Title
82326
    1SAPS     N    1   0.934   1.631  10.852 -0.1155 -0.0215  0.2012
    1SAPS   HN1    2   0.981   1.690  10.782 -0.4459 -0.1377 -0.1208
    1SAPS   HN2    3   1.003   1.575  10.907 -0.1619  1.7341  2.1959
    1SAPS   HN3    4   0.879   1.563  10.794  0.4097  0.6055 -1.0557
    1SAPS   C12    5   0.852   1.729  10.941  0.7782 -0.0965  0.9704
    1SAPS  H12A    6   0.767   1.670  10.970  0.3912 -0.0577 -0.0427
    1SAPS   C13    7   0.923   1.771  11.066  0.1860  0.1598 -0.6564
    1SAPS  O13A    8   1.041   1.729  11.085 -0.2341 -0.4326 -0.4981
    1SAPS  O13B    9   0.860   1.836  11.154 -0.4010 -0.6510 -0.8387
    1SAPS   C11   10   0.816   1.846  10.845 -0.1114 -0.2912 -0.7442
    1SAPS  H11A   11   0.763   1.912  10.917 -0.8971 -3.5170  1.8818
    1SAPS  H11B   12   0.746   1.821  10.763  0.5323 -1.4804 -0.9501
    1SAPS     P   13   0.946   2.057  10.774 -0.3698  0.2865 -0.6683
    1SAPS   O13   14   0.820   2.128  10.756  0.2428  0.0462  0.6391
    1SAPS   O14   15   1.029   2.108  10.886  0.1504 -0.4757  0.4093
    1SAPS   O12   16   0.932   1.901  10.787  0.2352  0.0634  0.1264
    1SAPS   O11   17   1.037   2.071  10.643  0.0571 -0.1459 -0.4546
    1SAPS    C1   18   1.026   1.983  10.530 -0.2656  0.1532  0.0135
    1SAPS    HA   19   1.128   1.938  10.520  0.0687  1.4063 -3.5330
    1SAPS    HB   20   0.951   1.902  10.538 -0.6248  0.3830 -0.9187
    1SAPS    C2   21   0.990   2.063  10.407 -0.1924 -0.0161 -0.0538
    1SAPS    HS   22   0.882   2.086  10.409  0.0388  1.0627  0.3369
    1SAPS   O21   23   1.028   1.986  10.285 -0.1629  0.2694  0.7272
    1SAPS   C21   24   0.959   1.875  10.253  0.1638  0.0640 -0.1081
    1SAPS   O22   25   0.851   1.845  10.299  0.1449 -0.4383  0.1010
    1SAPS   C22   26   1.035   1.800  10.147 -0.2468 -0.4132  0.2399
    1SAPS   H2R   27   1.050   1.868  10.061  0.9991 -1.1858 -0.1742
    1SAPS   H2S   28   1.134   1.763  10.183 -1.4072 -1.2120  2.9040
    1SAPS    C3   29   1.060   2.200  10.402 -0.1235  0.3669  0.1832
    1SAPS    HX   30   1.170   2.190  10.399  0.1001  2.5664 -1.7756
    1SAPS    HY   31   1.030   2.257  10.493 -1.6445 -0.9332  0.5472
    1SAPS   O31   32   1.019   2.277  10.287 -0.6181 -0.1453  0.3654
    1SAPS   C31   33   1.099   2.388  10.272  0.3435 -0.0200 -0.0806
    1SAPS   O32   34   1.194   2.410  10.344 -0.2069 -0.0575  0.0964
    1SAPS   C32   35   1.048   2.478  10.162 -0.2606 -0.1422 -0.2440
    1SAPS   H2X   36   0.964   2.536  10.204  0.7397 -0.2851  2.0806
    1SAPS   H2Y   37   1.020   2.424  10.068  1.3889  1.5032 -1.7611
    1SAPS   C23   38   0.947   1.689  10.086  0.2351  0.3261  0.5726
    1SAPS   H3R   39   0.902   1.620  10.161 -1.8398 -0.7371 -1.5119
    1SAPS   H3S   40   1.007   1.618  10.024 -1.3584 -1.6317  1.1354
    1SAPS   C24   41   0.826   1.732   9.996  0.6562  1.2676 -0.1924
    1SAPS   H4R   42   0.858   1.809   9.924 -1.9039 -0.7873 -3.8513
    1SAPS   H4S   43   0.760   1.781  10.070  1.2917 -0.4737  1.6239
    1SAPS   C25   44   0.749   1.614   9.937  0.1963  0.2326 -0.3615
    1SAPS   H5R   45   0.699   1.562  10.020  1.1761 -0.3005 -0.0843
    1SAPS   C26   46   0.731   1.577   9.805 -0.7253  0.0899 -0.3034
    1SAPS   H6R   47   0.661   1.492   9.799  1.0068 -1.6140  1.7709
    1SAPS   C27   48   0.804   1.638   9.685  0.1152  0.0366 -0.2157
    1SAPS   H7R   49   0.830   1.560   9.609  3.9494  1.2409 -0.3891
    1SAPS   H7S   50   0.904   1.669   9.722  0.2800 -1.2275  0.4613
    1SAPS   C28   51   0.724   1.755   9.628 -0.1200  0.4094  0.1227
    1SAPS   H8R   52   0.693   1.838   9.693 -0.1190  1.0730 -0.7152
    1SAPS   C29   53   0.686   1.771   9.496 -0.1328 -0.8654  0.2508
    1SAPS   H9R   54   0.651   1.871   9.468 -1.4958 -1.6973 -1.1729
    1SAPS  C210   55   0.716   1.685   9.372 -0.1433 -0.0813 -0.7016
    1SAPS  H10R   56   0.784   1.602   9.400  1.0602  0.8378 -0.7724
    1SAPS  H10S   57   0.770   1.759   9.308 -1.9231  1.6034 -0.3436
    1SAPS  C211   58   0.594   1.635   9.289 -0.2308 -0.1128 -0.7116
    1SAPS  H11R   59   0.508   1.616   9.356  0.1091  1.2075  0.1570
    1SAPS  C212   60   0.571   1.645   9.155  0.4518  0.7515 -0.2063
    1SAPS  H12R   61   0.471   1.622   9.115  0.5512  0.3909 -0.2494
    1SAPS  C213   62   0.662   1.705   9.052  0.0683 -0.4644 -0.2031
    1SAPS  H13R   63   0.655   1.650   8.956  0.0396  0.5232 -0.7760
    1SAPS  H13S   64   0.771   1.711   9.072 -0.3215 -1.0100  2.3801
    1SAPS  C214   65   0.606   1.843   9.015 -0.3399 -0.1680 -0.5822
    1SAPS  H14R   66   0.537   1.890   9.086 -2.1645 -1.2580 -1.5566
    1SAPS  C215   67   0.636   1.909   8.900 -0.3758  0.5791  1.0239
    1SAPS  H15R   68   0.598   2.010   8.879 -1.6137 -0.1143 -0.1922
    1SAPS  C216   69   0.719   1.860   8.787 -0.4156 -0.6639  0.6125
    1SAPS  H16R   70   0.790   1.778   8.809  1.3943  0.9984  1.1961
    1SAPS  H16S   71   0.776   1.952   8.763 -2.0881  0.3845  0.4663
    1SAPS  C217   72   0.635   1.835   8.665  0.0922 -0.0394 -0.1815
    1SAPS  H17R   73   0.695   1.811   8.575 -0.3357 -0.6081 -0.3228
    1SAPS  H17S   74   0.574   1.923   8.634 -0.8429 -0.9834 -1.1200
    1SAPS  C218   75   0.534   1.719   8.679 -0.4795  0.1818  0.0443
    1SAPS  H18R   76   0.465   1.720   8.592  0.7931  2.3171 -1.0068
    1SAPS  H18S   77   0.473   1.720   8.773 -1.1103  1.4610 -0.3597
    1SAPS  C219   78   0.609   1.583   8.674  0.3207 -0.5449 -0.3463
    1SAPS  H19R   79   0.644   1.568   8.778  3.5929  1.4110 -1.0320
    1SAPS  H19S   80   0.696   1.586   8.605  0.6659  2.4468  0.0969
    1SAPS  C220   81   0.520   1.465   8.624  0.0760  0.6361 -0.2721
    1SAPS  H20R   82   0.424   1.481   8.678  0.9863  0.3004  1.5121
    1SAPS  H20S   83   0.545   1.358   8.641 -3.9105 -0.3395  0.5358
    1SAPS  H20T   84   0.509   1.481   8.515  2.6521  1.8756 -0.4221
    1SAPS   C33   85   1.162   2.569  10.105 -0.1333  0.0975  0.7593
    1SAPS   H3X   86   1.249   2.581  10.173 -1.4520  0.0566  2.5395
    1SAPS   H3Y   87   1.125   2.671  10.079 -0.4248  0.1354  1.2913
    1SAPS   C34   88   1.227   2.496   9.984 -0.1888 -0.2977 -0.5737
    1SAPS   H4X   89   1.234   2.387  10.007 -0.2568  0.2674  2.4799
    1SAPS   H4Y   90   1.333   2.528   9.975  0.0050 -0.9648 -0.7305
    1SAPS   C35   91   1.156   2.504   9.850  0.2506  0.5847 -0.5503
    1SAPS   H5X   92   1.146   2.610   9.818  0.7490  0.9364  0.4055
    1SAPS   H5Y   93   1.049   2.474   9.861  0.1552  1.2222  0.4004
    1SAPS   C36   94   1.218   2.414   9.747  0.2472  0.4736  0.2688
    1SAPS   H6X   95   1.216   2.309   9.784 -3.0261 -0.9980 -3.4182
    1SAPS   H6Y   96   1.329   2.425   9.740  0.3280  0.3285  1.2087
    1SAPS   C37   97   1.142   2.416   9.614 -0.3034 -0.3051 -0.5340
    1SAPS   H7X   98   1.135   2.514   9.562  1.6056 -0.4405 -1.1251
    1SAPS   H7Y   99   1.036   2.397   9.641  0.0103  0.2281  1.1326
    1SAPS   C38  100   1.197   2.310   9.516 -0.0513  0.1169  0.3470
    1SAPS   H8X  101   1.195   2.206   9.556 -0.4583 -0.3323 -0.8055
    1SAPS   H8Y  102   1.302   2.338   9.495  0.3318 -0.5819  1.2131
    1SAPS   C39  103   1.117   2.299   9.384 -0.2295  0.4741 -0.1609
    1SAPS   H9X  104   1.133   2.399   9.339  0.5449  0.4679  0.0822
    1SAPS   H9Y  105   1.010   2.290   9.412  0.1557  1.2972  1.6994
    1SAPS  C310  106   1.180   2.186   9.298  0.2118  0.2259 -0.1865
    1SAPS  H10X  107   1.138   2.083   9.311  0.1548 -0.2831 -3.4900
    1SAPS  H10Y  108   1.290   2.188   9.309  0.0440  1.4712  1.6348
    1SAPS  C311  109   1.158   2.212   9.144 -0.3008  0.8853 -0.5234
    1SAPS  H11X  110   1.222   2.298   9.114 -0.9234  2.1621  1.5552
    1SAPS  H11Y  111   1.050   2.238   9.138 -0.2404  1.0283 -0.9803
    1SAPS  C312  112   1.180   2.085   9.060 -0.5648  1.1664  0.3779
    1SAPS  H12X  113   1.153   1.998   9.123 -0.3187  1.0445  0.3172
    1SAPS  H12Y  114   1.286   2.064   9.035 -1.1671 -1.9254 -0.0307
    1SAPS  C313  115   1.096   2.086   8.931 -0.0631  0.5225 -0.6207
    1SAPS  H13X  116   1.127   2.178   8.877  0.3460 -0.6649 -2.5271
    1SAPS  H13Y  117   0.987   2.087   8.954  0.3122  1.2487  1.2934
    1SAPS  C314  118   1.160   1.983   8.832 -0.0670 -0.4749 -0.9354
    1SAPS  H14X  119   1.158   1.882   8.879  0.2630  0.2974  0.8137
    1SAPS  H14Y  120   1.263   2.012   8.800  0.0287  0.2732 -0.0116
    1SAPS  C315  121   1.075   1.976   8.707  0.6430 -0.0262 -0.2961
    1SAPS  H15X  122   1.082   2.077   8.662  1.1066 -1.0310 -2.6357
    1SAPS  H15Y  123   0.973   1.942   8.738  0.8473 -0.7618 -0.4094
    1SAPS  C316  124   1.132   1.878   8.603  0.5735 -0.2107  0.0786
    1SAPS  H16X  125   1.243   1.881   8.610  0.5946  0.7128 -0.4395
    1SAPS  H16Y  126   1.117   1.917   8.500  0.1789  0.6933  0.4684
    1SAPS  C317  127   1.076   1.729   8.615 -0.2214 -0.2070  0.5045
    1SAPS  H17X  128   1.130   1.667   8.541 -0.6143 -0.1325  0.1489
    1SAPS  H17Y  129   0.973   1.744   8.576 -0.3139 -3.2486 -0.6260
    1SAPS  C318  130   1.070   1.658   8.750 -0.3386  0.1554  0.5451
    1SAPS  H18X  131   1.164   1.654   8.808 -0.0181  2.2137  0.2401
    1SAPS  H18Y  132   1.051   1.553   8.721 -3.4780  1.1047 -1.4345
    1SAPS  H18Z  133   0.983   1.685   8.814 -0.9370 -1.9088  0.6793
    2SAPS     N  134   4.201   2.783  10.747 -0.0236 -0.6620  0.2967
    2SAPS   HN1  135   4.253   2.866  10.783  1.2700 -0.8318 -1.0681
    2SAPS   HN2  136   4.257   2.735  10.673  0.6897  0.2367  0.2378
    2SAPS   HN3  137   4.112   2.810  10.701 -0.4587 -1.8377  0.4301
    2SAPS   C12  138   4.164   2.703  10.858 -0.0422 -0.2107 -0.2090
    2SAPS  H12A  139   4.229   2.618  10.872 -0.1513 -0.1069  1.0505
    2SAPS   C13  140   4.149   2.775  10.994  0.5951  0.0407  0.3866
    2SAPS  O13A  141   4.189   2.896  11.002  0.3027  0.0654  0.2414
    2SAPS  O13B  142   4.143   2.702  11.097  0.0575 -0.1138  0.4256
    2SAPS   C11  143   4.025   2.635  10.826  0.2279 -0.5570  0.5896
    2SAPS  H11A  144   3.946   2.712  10.810 -1.1888 -1.9629  0.5931
    2SAPS  H11B  145   3.981   2.577  10.910  0.1100 -0.4027  0.6341
    2SAPS     P  146   4.069   2.409  10.713 -0.7432 -0.1420  0.3131
    2SAPS   O13  147   4.016   2.347  10.833 -0.7493  0.0509 -0.0853
    2SAPS   O14  148   4.033   2.341  10.588 -0.0867  0.1722 -0.1194
    2SAPS   O12  149   4.026   2.564  10.701 -0.5811 -0.5595 -0.5330
    2SAPS   O11  150   4.232   2.425  10.722  0.1641 -0.3264  0.1368
    2SAPS    C1  151   4.307   2.307  10.720 -0.1032 -0.1100  0.5979
    2SAPS    HA  152   4.289   2.245  10.810 -0.3197  0.3767  0.8934
    2SAPS    HB  153   4.292   2.246  10.628  2.8521  2.8602 -2.1184
    2SAPS    C2  154   4.461   2.333  10.724 -0.5426  1.0131 -0.0564
    2SAPS    HS  155   4.486   2.405  10.805  1.4016  2.2130 -1.6380
    2SAPS   O21  156   4.501   2.391  10.595  0.1331 -0.1813 -0.4317
    2SAPS   C21  157   4.599   2.471  10.592  0.3145 -0.0600 -0.0186
    2SAPS   O22  158   4.665   2.507  10.685 -0.2256 -0.5822  0.1063
    2SAPS   C22  159   4.603   2.530  10.453 -0.1651  0.0236  0.3964
    2SAPS   H2R  160   4.503   2.531  10.404 -0.5191  1.4643  1.1252
    2SAPS   H2S  161   4.633   2.636  10.463  1.4681 -0.3648  0.0510
    2SAPS    C3  162   4.544   2.196  10.744 -0.6022 -0.0436  0.6000
    2SAPS    HX  163   4.514   2.137  10.832 -1.0860 -3.2771 -1.5681
    2SAPS    HY  164   4.652   2.220  10.750 -0.0006 -1.5723 -2.3909
    2SAPS   O31  165   4.518   2.103  10.637  0.1878  0.4703 -0.2679
    2SAPS   C31  166   4.609   2.092  10.538 -0.3517  0.7869 -0.3771
    2SAPS   O32  167   4.717   2.151  10.535  0.1601 -0.6451 -0.0514
    2SAPS   C32  168   4.542   2.023  10.425 -0.7595 -0.3840 -0.8884
    2SAPS   H2X  169   4.479   2.088  10.361 -1.3541  0.4568  0.5164
    2SAPS   H2Y  170   4.476   1.949  10.474  0.3304  0.4608  2.0348
    2SAPS   C23  171   4.708   2.453  10.363 -0.0968  0.4291 -0.6708
    2SAPS   H3R  172   4.713   2.352  10.410  4.5934  0.4836 -0.5459
    2SAPS   H3S  173   4.810   2.492  10.385  0.5487 -0.3680 -2.1484
    2SAPS   C24  174   4.686   2.445  10.211 -0.0321  0.0088 -0.2789
    2SAPS   H4R  175   4.777   2.403  10.164  0.5451  0.6915  0.2096
    2SAPS   H4S  176   4.675   2.550  10.179 -1.6846 -0.0957 -0.1580
    2SAPS   C25  177   4.577   2.351  10.183  0.2696 -0.5871  0.0110
    2SAPS   H5R  178   4.478   2.386  10.217 -0.1219 -0.5771 -1.1209
    2SAPS   C26  179   4.571   2.240  10.107  0.1874  0.0084 -0.9625
    2SAPS   H6R  180   4.476   2.186  10.090  0.1928 -0.2323 -0.2827
    2SAPS   C27  181   4.691   2.181  10.031  0.0866  1.0372  0.5428
    2SAPS   H7R  182   4.696   2.072  10.053 -1.0995  1.5116  3.7334
    2SAPS   H7S  183   4.791   2.205  10.072  1.2855  0.3129 -1.7474
    2SAPS   C28  184   4.702   2.230   9.887  0.2653 -0.1586 -0.2904
    2SAPS   H8R  185   4.690   2.339   9.886  0.1156 -0.1749 -0.2520
    2SAPS   C29  186   4.733   2.170   9.775 -0.0178  0.5374 -0.1983
    2SAPS   H9R  187   4.724   2.229   9.683  2.5377 -0.5305 -1.2420
    2SAPS  C210  188   4.767   2.020   9.748 -0.0290  0.0282 -0.2551
    2SAPS  H10R  189   4.676   1.958   9.733 -1.0810  1.6686 -1.0890
    2SAPS  H10S  190   4.809   1.980   9.843  1.9872 -1.4932 -1.7246
    2SAPS  C211  191   4.861   1.974   9.641 -0.1037 -0.1273  0.9001
    2SAPS  H11R  192   4.958   1.943   9.681  0.7491 -0.5982 -1.4222
    2SAPS  C212  193   4.838   1.974   9.508  0.1539  0.2006 -0.2979
    2SAPS  H12R  194   4.925   1.936   9.453  0.6127  1.4226 -0.4489
    2SAPS  C213  195   4.717   2.023   9.432  0.0183 -0.3800  0.1569
    2SAPS  H13R  196   4.736   2.102   9.356  0.7775  0.9204  1.6322
    2SAPS  H13S  197   4.653   2.072   9.508  1.0677  1.3753 -0.0349
    2SAPS  C214  198   4.648   1.901   9.376  0.8053  0.1011  0.4061
    2SAPS  H14R  199   4.569   1.859   9.439  0.2921  0.7750  0.2210
    2SAPS  C215  200   4.666   1.848   9.250  0.0405 -1.0379  0.0077
    2SAPS  H15R  201   4.599   1.767   9.218 -2.0468  0.7700 -0.4374
    2SAPS  C216  202   4.770   1.902   9.157  0.2691 -0.7214 -0.1288
    2SAPS  H16R  203   4.835   1.824   9.111  0.6697 -0.5661  0.1597
    2SAPS  H16S  204   4.839   1.966   9.216  0.0222 -0.1724 -0.4228
    2SAPS  C217  205   4.715   1.982   9.040  0.1952  0.6613  0.1478
    2SAPS  H17R  206   4.646   2.061   9.076  1.8101  0.7741  3.3634
    2SAPS  H17S  207   4.652   1.911   8.982 -0.7149  0.0635  1.7917
    2SAPS  C218  208   4.831   2.059   8.968 -0.1686  0.4255 -1.0034
    2SAPS  H18R  209   4.881   1.986   8.900  2.2726 -0.3560  1.4493
    2SAPS  H18S  210   4.909   2.081   9.043  0.0578 -3.5420  0.1568
    2SAPS  C219  211   4.781   2.190   8.900  0.3382 -0.2209  0.1081
    2SAPS  H19R  212   4.863   2.243   8.847 -1.1467  0.6986 -1.3908
    2SAPS  H19S  213   4.748   2.267   8.972 -0.9222  2.2587 -2.8794
    2SAPS  C220  214   4.663   2.173   8.807 -0.1138  0.0090  0.1147
    2SAPS  H20R  215   4.651   2.265   8.745  2.1752  0.1041 -0.2832
    2SAPS  H20S  216   4.571   2.150   8.865  0.3658  2.3739  1.9967
    2SAPS  H20T  217   4.686   2.095   8.731  0.7745  1.0175 -0.6958
    2SAPS   C33  218   4.652   1.939  10.342 -0.1760 -0.5284  0.0751
    2SAPS   H3X  219   4.715   1.860  10.388 -0.4848 -1.1434 -0.5463
    2SAPS   H3Y  220   4.724   2.016  10.307  3.6333 -2.5994  2.5937
    2SAPS   C34  221   4.572   1.869  10.226  0.8983  0.0214 -0.2851
    2SAPS   H4X  222   4.521   1.952  10.173  3.0001  1.2638 -0.4792
    2SAPS   H4Y  223   4.488   1.804  10.260  0.1934  0.9808 -0.1476
    2SAPS   C35  224   4.667   1.787  10.134  0.1697 -0.5726  0.2885
    2SAPS   H5X  225   4.697   1.697  10.192  0.6721  0.1764  1.2207
    2SAPS   H5Y  226   4.752   1.855  10.113  0.1474 -0.6089  0.0758
    2SAPS   C36  227   4.615   1.740   9.993 -0.0760  0.1726 -0.2623
    2SAPS   H6X  228   4.705   1.697   9.945 -0.5003 -0.3874 -0.5644
    2SAPS   H6Y  229   4.583   1.832   9.938  1.5610  0.6817 -0.4195
    2SAPS   C37  230   4.494   1.647  10.000  1.0437 -0.0392 -0.1021
    2SAPS   H7X  231   4.390   1.684  10.013  0.0467 -1.9453 -1.8446
    2SAPS   H7Y  232   4.507   1.577  10.085 -2.7533 -1.5739 -0.5819
    2SAPS   C38  233   4.474   1.556   9.877  0.0123 -0.3153  0.4202
    2SAPS   H8X  234   4.398   1.482   9.908 -1.0577  0.9947  1.0420
    2SAPS   H8Y  235   4.564   1.497   9.849 -1.5648 -1.4443 -2.8095
    2SAPS   C39  236   4.430   1.631   9.747 -0.2530 -0.1912  0.0096
    2SAPS   H9X  237   4.499   1.716   9.726 -0.7951  0.3696  0.4252
    2SAPS   H9Y  238   4.335   1.684   9.771  0.0854  0.7201 -0.5724
    2SAPS  C310  239   4.408   1.538   9.625 -0.3363  1.0235  0.5282
    2SAPS  H10X  240   4.330   1.467   9.659  0.7361 -0.6595 -0.3705
    2SAPS  H10Y  241   4.498   1.473   9.618 -0.3203  0.8081  2.2382
    2SAPS  C311  242   4.390   1.608   9.490  0.2062  0.0588  0.2519
    2SAPS  H11X  243   4.483   1.667   9.478  1.1971 -1.1723  1.5225
    2SAPS  H11Y  244   4.304   1.676   9.506  1.2342  1.2296  0.9897
    2SAPS  C312  245   4.364   1.511   9.380  0.9423 -0.2013  0.4490
    2SAPS  H12X  246   4.261   1.471   9.393  1.0095 -1.2570 -1.7653
    2SAPS  H12Y  247   4.432   1.424   9.382 -1.9790 -2.6751 -0.0015
    2SAPS  C313  248   4.369   1.574   9.244 -0.8595 -0.2849 -0.3275
    2SAPS  H13X  249   4.473   1.600   9.214 -0.8347  0.9147  0.7039
    2SAPS  H13Y  250   4.318   1.672   9.260  0.1365  0.1448  0.3207
    2SAPS  C314  251   4.299   1.493   9.136  0.1076  0.1830  0.0629
    2SAPS  H14X  252   4.198   1.486   9.182 -0.1699 -2.0030 -0.7435
    2SAPS  H14Y  253   4.338   1.389   9.129  1.2876  0.6182 -0.0198
    2SAPS  C315  254   4.301   1.561   9.006 -0.1303  0.1194 -0.1893
    2SAPS  H15X  255   4.384   1.534   8.938 -0.0735 -0.5747  0.1477
    2SAPS  H15Y  256   4.326   1.669   9.016 -1.3825  0.3881  0.1878
    2SAPS  C316  257   4.174   1.553   8.916 -0.2461 -0.4055  0.2081
    2SAPS  H16X  258   4.094   1.591   8.982  2.5499  3.4186  1.7977
    2SAPS  H16Y  259   4.159   1.447   8.888  0.6715 -0.5990  0.4065
    2SAPS  C317  260   4.180   1.637   8.791  0.0120  0.3189  0.8993
    2SAPS  H17X  261   4.124   1.590   8.708  0.1082  1.2396  0.2912
    2SAPS  H17Y  262   4.285   1.647   8.755 -1.0911  0.0524 -2.8315
    2SAPS  C318  263   4.139   1.780   8.812 -0.3388 -0.3718  0.0635
    2SAPS  H18X  264   4.184   1.821   8.904 -0.0277 -0.2010 -0.1633
    2SAPS  H18Y  265   4.029   1.791   8.825 -0.8013 -0.7228 -2.8238
    2SAPS  H18Z  266   4.173   1.844   8.728  0.1611  0.6237  1.0047
    3SAPS     N  267   6.788   2.845  11.077 -0.2327 -0.0105  0.2103
    3SAPS   HN1  268   6.734   2.931  11.056  1.1538  1.2339  1.4800
    3SAPS   HN2  269   6.775   2.827  11.179  0.0540 -2.6608 -0.1333
    3SAPS   HN3  270   6.890   2.857  11.061 -0.4604 -0.6990 -2.0454
    3SAPS   C12  271   6.745   2.742  10.984  0.5190  0.5915 -0.5679
    3SAPS  H12A  272   6.747   2.644  11.030 -2.5810  1.0820  0.8908
    3SAPS   C13  273   6.613   2.756  10.912  0.3268  0.5938  0.2024
    3SAPS  O13A  274   6.544   2.855  10.938  0.4697 -0.3184  0.0954
    3SAPS  O13B  275   6.573   2.669  10.825 -0.2864  0.5191 -0.1963
    3SAPS   C11  276   6.854   2.749  10.869 -0.2463  0.4202 -0.0272
    3SAPS  H11A  277   6.848   2.846  10.815 -1.2920 -0.1953 -1.0825
    3SAPS  H11B  278   6.820   2.679  10.789 -0.9041  0.5601  0.1206
    3SAPS     P  279   7.116   2.731  10.838 -0.3289  0.5516 -0.4740
    3SAPS   O13  280   7.165   2.871  10.862  0.1728 -0.0749 -0.5064
    3SAPS   O14  281   7.214   2.622  10.875  0.3691  0.5479 -1.2162
    3SAPS   O12  282   6.989   2.720  10.916 -0.1094  0.5032  0.0919
    3SAPS   O11  283   7.059   2.722  10.685  0.0500 -0.1724 -0.5017
    3SAPS    C1  284   7.065   2.607  10.596 -0.4465 -0.9465  0.4335
    3SAPS    HA  285   7.076   2.513  10.654  0.1465 -0.8653  0.4554
    3SAPS    HB  286   6.966   2.608  10.546  0.8465 -0.8944 -2.2547
    3SAPS    C2  287   7.179   2.624  10.494 -0.5555  0.8069  0.5445
    3SAPS    HS  288   7.275   2.629  10.550 -0.2023 -0.3303  0.0725
    3SAPS   O21  289   7.152   2.743  10.415 -0.4280 -0.0307 -0.3864
    3SAPS   C21  290   7.246   2.785  10.334 -0.1142 -0.1325  0.5621
    3SAPS   O22  291   7.361   2.747  10.333  0.5949  0.0313 -0.3073
    3SAPS   C22  292   7.182   2.892  10.249 -0.4586  0.0987 -0.0277
    3SAPS   H2R  293   7.219   2.894  10.145  2.4015 -0.3200  0.9100
    3SAPS   H2S  294   7.074   2.863  10.251  0.0171 -1.8995 -0.9675
    3SAPS    C3  295   7.179   2.492  10.409  0.1905  0.6069 -0.1650
    3SAPS    HX  296   7.088   2.487  10.345 -0.8815  0.3800  1.3233
    3SAPS    HY  297   7.174   2.403  10.475  2.1962 -0.4719 -1.3560
    3SAPS   O31  298   7.296   2.479  10.323  0.3487  0.4660  0.1326
    3SAPS   C31  299   7.409   2.471  10.387 -0.7695  0.2604 -0.0447
    3SAPS   O32  300   7.424   2.480  10.510 -0.0433  0.2898  0.3133
    3SAPS   C32  301   7.519   2.454  10.280 -0.4114 -0.3646 -0.2190
    3SAPS   H2X  302   7.621   2.485  10.313 -0.6551 -0.4125  0.6161
    3SAPS   H2Y  303   7.487   2.520  10.197 -1.8389 -0.9532 -0.1590
    3SAPS   C23  304   7.179   3.037  10.310 -0.9138  0.2360  0.3852
    3SAPS   H3R  305   7.162   3.031  10.420  1.8347 -1.1633  0.8234
    3SAPS   H3S  306   7.086   3.083  10.269 -0.2975 -0.0726 -1.4398
    3SAPS   C24  307   7.287   3.130  10.260 -0.5579 -0.2880 -0.8262
    3SAPS   H4R  308   7.267   3.232  10.299 -0.2624  0.4060 -2.4388
    3SAPS   H4S  309   7.279   3.144  10.150 -0.3359  0.1990 -0.7847
    3SAPS   C25  310   7.424   3.089  10.312 -0.1496  0.4495  1.0198
    3SAPS   H5R  311   7.446   3.152  10.399  3.6422 -1.3892  1.6125
    3SAPS   C26  312   7.525   3.012  10.258 -0.0871  0.4449 -0.2655
    3SAPS   H6R  313   7.613   2.993  10.320 -0.0910  0.3788 -0.2800
    3SAPS   C27  314   7.524   2.941  10.121  0.5148  0.2535 -1.1767
    3SAPS   H7R  315   7.438   2.973  10.059 -0.4405  1.9389  0.9169
    3SAPS   H7S  316   7.512   2.833  10.147  1.4706  1.0644  3.5364
    3SAPS   C28  317   7.660   2.968  10.059  0.0258  0.2352  0.3996
    3SAPS   H8R  318   7.694   3.072  10.053  2.3200 -0.5441 -1.4293
    3SAPS   C29  319   7.733   2.869  10.004 -0.9255 -0.0523  0.2413
    3SAPS   H9R  320   7.830   2.888   9.956 -0.8335  0.3688  0.5865
    3SAPS  C210  321   7.692   2.725   9.996 -0.0572  1.0110 -0.3846
    3SAPS  H10R  322   7.669   2.685  10.097  0.1555 -1.2943 -1.1909
    3SAPS  H10S  323   7.777   2.661   9.964  1.6722  1.5943  2.6394
    3SAPS  C211  324   7.577   2.686   9.910  0.0023  0.2808 -0.3633
    3SAPS  H11R  325   7.485   2.666   9.967  1.7928  0.6040  2.8805
    3SAPS  C212  326   7.574   2.664   9.775 -0.1128 -0.2987  0.3045
    3SAPS  H12R  327   7.479   2.638   9.725  0.2390  0.8911 -1.0509
    3SAPS  C213  328   7.690   2.678   9.681 -0.1047  0.5487 -0.3203
    3SAPS  H13R  329   7.786   2.635   9.716 -0.6881  0.6993  1.5684
    3SAPS  H13S  330   7.702   2.786   9.656  1.1436  1.0016  2.0031
    3SAPS  C214  331   7.656   2.596   9.556 -0.1163 -0.4268 -0.5006
    3SAPS  H14R  332   7.655   2.487   9.570 -0.8911 -0.4028 -0.3277
    3SAPS  C215  333   7.609   2.647   9.443  0.3310  0.6816  0.6936
    3SAPS  H15R  334   7.588   2.577   9.361  1.1016 -1.3454  2.1437
    3SAPS  C216  335   7.593   2.790   9.403  0.1414 -0.0427 -0.5226
    3SAPS  H16R  336   7.630   2.858   9.483 -0.9227 -0.4886  0.3827
    3SAPS  H16S  337   7.485   2.815   9.392  0.9692  3.4539 -1.9052
    3SAPS  C217  338   7.651   2.828   9.268 -0.3342 -0.1549 -0.4355
    3SAPS  H17R  339   7.601   2.922   9.238 -3.6747 -1.9755 -1.0718
    3SAPS  H17S  340   7.622   2.760   9.185 -0.0811  0.8171 -1.3392
    3SAPS  C218  341   7.805   2.827   9.263  0.1601 -0.4749 -0.3064
    3SAPS  H18R  342   7.838   2.886   9.352  1.3845 -0.3216 -0.8363
    3SAPS  H18S  343   7.848   2.881   9.176  1.6583  0.3026  0.8637
    3SAPS  C219  344   7.878   2.692   9.254 -0.3156 -0.2913 -0.8504
    3SAPS  H19R  345   7.889   2.633   9.347 -0.1693 -0.9294 -1.2587
    3SAPS  H19S  346   7.980   2.728   9.227  1.0909 -2.1008  1.6816
    3SAPS  C220  347   7.840   2.603   9.136  0.2451 -0.3698 -0.2618
    3SAPS  H20R  348   7.760   2.532   9.165 -2.5404  3.3368  2.0771
    3SAPS  H20S  349   7.930   2.550   9.100  0.4569  0.2751 -0.7081
    3SAPS  H20T  350   7.800   2.666   9.053 -1.1129  0.4060  0.9343
    3SAPS   C33  351   7.514   2.310  10.229  0.3926  0.0654  0.0100
    3SAPS   H3X  352   7.411   2.269  10.232  0.0535  0.8561 -0.4346
    3SAPS   H3Y  353   7.579   2.241  10.287  0.1565  1.6273  2.2419
    3SAPS   C34  354   7.554   2.322  10.076  0.0778 -0.0470  0.3145
    3SAPS   H4X  355   7.638   2.393  10.060 -0.7678  0.3764 -2.7899
    3SAPS   H4Y  356   7.473   2.377  10.023  1.0384 -0.6485 -1.8871
    3SAPS   C35  357   7.577   2.182  10.017 -0.3446 -0.1286 -0.2378
    3SAPS   H5X  358   7.481   2.128  10.023  0.5207 -2.0337 -2.2211
    3SAPS   H5Y  359   7.656   2.135  10.079 -0.8380  1.5310  1.7934
    3SAPS   C36  360   7.625   2.191   9.876 -0.0096  0.1939 -0.0020
    3SAPS   H6X  361   7.652   2.086   9.855 -1.7387  0.0571 -1.9527
    3SAPS   H6Y  362   7.711   2.260   9.861  0.1678 -0.4379 -2.2799
    3SAPS   C37  363   7.519   2.205   9.761 -0.2585  0.1788 -0.5117
    3SAPS   H7X  364   7.480   2.309   9.760  0.2523  0.3704 -1.0501
    3SAPS   H7Y  365   7.444   2.124   9.774 -0.9205  0.9965  1.2046
    3SAPS   C38  366   7.580   2.179   9.626  0.1425 -0.2963 -0.4730
    3SAPS   H8X  367   7.624   2.077   9.633  1.6331  0.2915 -0.8258
    3SAPS   H8Y  368   7.666   2.249   9.621  0.1917  0.0715  3.2213
    3SAPS   C39  369   7.487   2.199   9.506 -0.1482  0.1872  0.1551
    3SAPS   H9X  370   7.426   2.292   9.506 -1.0077 -0.3603 -0.1691
    3SAPS   H9Y  371   7.405   2.123   9.509  0.6777 -0.7457 -0.3970
    3SAPS  C310  372   7.565   2.181   9.379 -0.1021  0.5097  0.2898
    3SAPS  H10X  373   7.630   2.091   9.384  1.0341  1.3724  2.1653
    3SAPS  H10Y  374   7.630   2.272   9.380 -1.1744  1.2981  1.2951
    3SAPS  C311  375   7.477   2.184   9.257  0.5239 -0.7364  0.3556
    3SAPS  H11X  376   7.404   2.268   9.255  0.0654 -1.1463 -0.9270
    3SAPS  H11Y  377   7.411   2.095   9.255 -3.1924  1.6762  2.9626
    3SAPS  C312  378   7.571   2.210   9.137 -0.1894  0.2965 -0.1268
    3SAPS  H12X  379   7.628   2.116   9.118 -1.1115 -0.2338 -0.3446
    3SAPS  H12Y  380   7.656   2.280   9.155  1.7614 -2.2640  1.3969
    3SAPS  C313  381   7.497   2.269   9.020 -0.4169  0.2691 -0.2965
    3SAPS  H13X  382   7.452   2.365   9.052 -0.8692 -0.3958  1.1127
    3SAPS  H13Y  383   7.420   2.192   8.997 -0.3874  0.2170 -0.2209
    3SAPS  C314  384   7.591   2.276   8.898  0.2768 -0.2544  0.7552
    3SAPS  H14X  385   7.645   2.179   8.905 -0.1609 -0.8237 -2.3003
    3SAPS  H14Y  386   7.675   2.348   8.907  0.0673 -0.1452  2.1910
    3SAPS  C315  387   7.529   2.304   8.757 -0.0438 -0.4550 -0.7314
    3SAPS  H15X  388   7.504   2.412   8.748  0.2516 -0.4388 -1.4064
    3SAPS  H15Y  389   7.446   2.229   8.751 -1.3344  0.8539  0.1050
    3SAPS  C316  390   7.616   2.275   8.640 -0.0678 -0.0392  0.2162
    3SAPS  H16X  391   7.628   2.166   8.624 -0.7085  0.2960 -3.7758
    3SAPS  H16Y  392   7.719   2.315   8.654 -0.0193 -0.7715  2.3068
    3SAPS  C317  393   7.570   2.339   8.506 -0.6454  0.4875  0.2828
    3SAPS  H17X  394   7.565   2.450   8.510 -1.2427  0.4339  1.6936
    3SAPS  H17Y  395   7.469   2.302   8.477 -0.9486  0.7728  0.9602
    3SAPS  C318  396   7.666   2.307   8.387  0.1176 -0.1149  0.1591
    3SAPS  H18X  397   7.686   2.202   8.360  2.4066 -0.0793  1.5083
    3SAPS  H18Y  398   7.765   2.346   8.417 -0.1090  0.8506 -0.3036
    3SAPS  H18Z  399   7.623   2.356   8.296 -1.1163  1.7814  1.6621
    4SAPS     N  400   6.542   5.563  11.291 -0.2167 -0.3875 -0.1897
    4SAPS   HN1  401   6.610   5.631  11.251 -2.6257  1.3849 -1.5656
    4SAPS   HN2  402   6.470   5.620  11.340  1.1186  0.6767  0.5926
    4SAPS   HN3  403   6.579   5.498  11.362 -0.5192  0.3565  0.6658
    4SAPS   C12  404   6.494   5.488  11.166  0.3219 -0.1082  0.0085
    4SAPS  H12A  405   6.571   5.422  11.130 -1.1289 -2.7920  1.4743
    4SAPS   C13  406   6.363   5.399  11.189 -0.0174  0.2781 -0.3903
    4SAPS  O13A  407   6.291   5.413  11.284 -0.1112  0.1394 -0.0990
    4SAPS  O13B  408   6.336   5.307  11.105  0.2677 -0.0460 -0.1237
    4SAPS   C11  409   6.461   5.593  11.050 -0.9689 -0.1461 -0.2138
    4SAPS  H11A  410   6.364   5.643  11.071 -1.6425 -1.0821 -1.0459
    4SAPS  H11B  411   6.436   5.535  10.959 -0.3492 -0.3053 -0.2898
    4SAPS     P  412   6.682   5.641  10.921  0.1492  0.0632 -0.1048
    4SAPS   O13  413   6.791   5.739  10.935 -0.1387  0.0774  0.2405
    4SAPS   O14  414   6.713   5.499  10.942 -0.1590  0.3547  0.3237
    4SAPS   O12  415   6.577   5.686  11.030  0.4368  0.5797 -0.1182
    4SAPS   O11  416   6.601   5.658  10.784 -0.1877 -0.4405 -0.2247
    4SAPS    C1  417   6.526   5.768  10.745 -0.2491 -0.3152 -0.1823
    4SAPS    HA  418   6.454   5.796  10.825 -0.9905  0.2030 -1.0172
    4SAPS    HB  419   6.603   5.845  10.723 -1.1837  0.3111 -1.3598
    4SAPS    C2  420   6.444   5.740  10.616  0.1169 -0.0940 -0.1136
    4SAPS    HS  421   6.357   5.808  10.605  1.1262  0.8995 -2.9432
    4SAPS   O21  422   6.406   5.606  10.618  0.0055 -0.1356  0.4512
    4SAPS   C21  423   6.310   5.574  10.699  1.2224  0.1086 -0.1336
    4SAPS   O22  424   6.262   5.641  10.787 -0.1537  0.3182  0.2285
    4SAPS   C22  425   6.263   5.432  10.648 -0.6141 -0.1583  0.1951
    4SAPS   H2R  426   6.341   5.360  10.678 -1.2361 -0.3135  1.4805
    4SAPS   H2S  427   6.172   5.410  10.707 -1.6461  2.9245 -0.0841
    4SAPS    C3  428   6.535   5.761  10.498  0.5412  0.6011  0.2711
    4SAPS    HX  429   6.615   5.685  10.509 -1.1657 -1.2912  0.2313
    4SAPS    HY  430   6.582   5.862  10.505  1.6546  0.2069 -1.0351
    4SAPS   O31  431   6.463   5.733  10.372  0.1700 -0.3609 -0.0464
    4SAPS   C31  432   6.359   5.815  10.354 -0.0976  0.4251 -0.0278
    4SAPS   O32  433   6.339   5.925  10.406  0.3285  0.6109 -0.2158
    4SAPS   C32  434   6.283   5.762  10.231 -0.1963  0.1449 -0.4926
    4SAPS   H2X  435   6.266   5.655  10.256  1.9056 -0.5764 -1.9602
    4SAPS   H2Y  436   6.345   5.751  10.139  0.6976  3.1179 -0.3623
    4SAPS   C23  437   6.231   5.437  10.500  0.0072  0.0294 -0.3842
    4SAPS   H3R  438   6.233   5.330  10.470  3.1584  0.4338 -2.0438
    4SAPS   H3S  439   6.313   5.478  10.436 -1.5366  3.1641 -0.5590
    4SAPS   C24  440   6.108   5.506  10.454 -0.3991  0.0766  0.4950
    4SAPS   H4R  441   6.112   5.505  10.343 -1.6358  1.8164  0.3957
    4SAPS   H4S  442   6.105   5.614  10.483  0.4477 -0.0226  0.9859
    4SAPS   C25  443   5.990   5.442  10.508 -0.0817 -0.3725 -0.0930
    4SAPS   H5R  444   5.987   5.462  10.616 -0.8485  3.7776 -0.7266
    4SAPS   C26  445   5.901   5.361  10.448  0.3723  0.0593 -0.4013
    4SAPS   H6R  446   5.811   5.316  10.493  2.7581 -5.0286 -0.0286
    4SAPS   C27  447   5.906   5.328  10.299 -0.4944  0.4818 -0.2035
    4SAPS   H7R  448   5.841   5.239  10.286  0.2609 -0.4418  1.8273
    4SAPS   H7S  449   6.005   5.284  10.272 -0.4582  1.4975 -1.8521
    4SAPS   C28  450   5.857   5.434  10.210 -0.0530 -0.5379 -0.0135
    4SAPS   H8R  451   5.807   5.523  10.251 -2.2824 -2.0902  0.9021
    4SAPS   C29  452   5.838   5.419  10.080 -0.0553 -0.0383 -0.2776
    4SAPS   H9R  453   5.793   5.504  10.026 -2.0485 -0.5698  0.4649
    4SAPS  C210  454   5.879   5.296  10.005 -0.3124 -0.0137  0.0559
    4SAPS  H10R  455   5.934   5.231  10.077  1.4191  2.4637  1.0991
    4SAPS  H10S  456   5.961   5.323   9.935  0.4114 -0.1059  0.8415
    4SAPS  C211  457   5.761   5.235   9.935 -1.0871  0.3624  1.0330
    4SAPS  H11R  458   5.682   5.199  10.002 -3.3796  0.0789 -1.6318
    4SAPS  C212  459   5.750   5.203   9.803  0.6834 -0.5338  0.2963
    4SAPS  H12R  460   5.649   5.178   9.768 -0.8678  2.3396  2.2397
    4SAPS  C213  461   5.852   5.233   9.699 -0.3399  0.8573  0.0346
    4SAPS  H13R  462   5.860   5.143   9.634  1.7944  0.9154  0.1367
    4SAPS  H13S  463   5.955   5.223   9.740 -0.3470 -0.1952 -0.1721
    4SAPS  C214  464   5.834   5.367   9.626 -0.4260  0.4370 -0.1572
    4SAPS  H14R  465   5.902   5.449   9.653  0.7589 -0.0854 -1.4459
    4SAPS  C215  466   5.734   5.391   9.535  0.4193 -0.1510 -0.6347
    4SAPS  H15R  467   5.737   5.490   9.488  1.5796 -0.2631 -0.8447
    4SAPS  C216  468   5.617   5.295   9.502  0.3547 -0.1642 -0.2438
    4SAPS  H16R  469   5.518   5.345   9.511 -1.0900 -2.9549  0.6902
    4SAPS  H16S  470   5.613   5.207   9.570 -0.7307  2.3801  3.2603
    4SAPS  C217  471   5.623   5.235   9.354  0.5052 -0.5119 -0.2597
    4SAPS  H17R  472   5.549   5.152   9.346 -0.0390  0.0936 -1.7770
    4SAPS  H17S  473   5.715   5.173   9.340 -0.4561 -2.0075 -0.2130
    4SAPS  C218  474   5.597   5.329   9.237 -0.3766 -0.0866  0.0722
    4SAPS  H18R  475   5.697   5.371   9.218  0.2074 -2.0084 -1.4586
    4SAPS  H18S  476   5.527   5.405   9.278 -1.2134 -1.7811  1.9674
    4SAPS  C219  477   5.525   5.267   9.110 -0.3383  0.0700 -0.5194
    4SAPS  H19R  478   5.422   5.231   9.129 -1.2898  2.1215 -1.5053
    4SAPS  H19S  479   5.569   5.178   9.059  0.4708 -0.4496  1.0017
    4SAPS  C220  480   5.514   5.366   9.002 -0.3812  0.3217  0.7006
    4SAPS  H20R  481   5.615   5.399   8.970 -0.7182  2.0572  1.3423
    4SAPS  H20S  482   5.462   5.456   9.041  1.9998  2.0746  0.0810
    4SAPS  H20T  483   5.459   5.321   8.916 -1.6444 -0.4890  1.8881
    4SAPS   C33  484   6.148   5.834  10.205 -0.2100 -0.4835 -0.3099
    4SAPS   H3X  485   6.175   5.937  10.174 -0.2418 -0.8090 -1.4440
    4SAPS   H3Y  486   6.079   5.833  10.292 -0.8965 -0.3386 -0.8516
    4SAPS   C34  487   6.071   5.771  10.087  0.1673 -0.0114  0.3224
    4SAPS   H4X  488   5.979   5.827  10.060 -0.2175 -1.3148 -1.1984
    4SAPS   H4Y  489   6.037   5.670  10.117 -0.7419  0.8918  2.6108
    4SAPS   C35  490   6.149   5.781   9.954 -0.8146  0.2995 -0.2271
    4SAPS   H5X  491   6.242   5.719   9.953 -0.4212  0.8729  0.1978
    4SAPS   H5Y  492   6.183   5.886   9.939  0.1527 -0.1053 -1.0246
    4SAPS   C36  493   6.062   5.730   9.840 -0.4500 -1.0266 -0.0062
    4SAPS   H6X  494   5.967   5.788   9.847  0.1367 -0.0927  0.3537
    4SAPS   H6Y  495   6.040   5.622   9.854  0.1351 -1.1702 -0.1976
    4SAPS   C37  496   6.139   5.746   9.708  0.8184 -0.1745 -0.0700
    4SAPS   H7X  497   6.238   5.697   9.721  0.2284 -1.3780 -0.0192
    4SAPS   H7Y  498   6.161   5.853   9.688 -0.6022 -0.2416 -2.3057
    4SAPS   C38  499   6.064   5.682   9.594  0.9632  0.1167  0.2660
    4SAPS   H8X  500   5.964   5.728   9.592  0.7348 -0.3800 -0.8470
    4SAPS   H8Y  501   6.060   5.573   9.615 -3.3765 -0.2220 -1.4006
    4SAPS   C39  502   6.129   5.720   9.460 -0.1768  0.3860  0.0391
    4SAPS   H9X  503   6.235   5.693   9.478  0.0375  1.3338  0.2769
    4SAPS   H9Y  504   6.127   5.831   9.450  1.4598  0.6875  2.2342
    4SAPS  C310  505   6.061   5.666   9.339  0.1038 -0.5066 -0.4627
    4SAPS  H10X  506   6.017   5.569   9.372 -0.8305 -0.3359 -1.1716
    4SAPS  H10Y  507   6.130   5.655   9.252  0.5810 -0.0337 -0.1531
    4SAPS  C311  508   5.937   5.742   9.286  0.6405  0.4577 -0.2279
    4SAPS  H11X  509   5.956   5.842   9.241 -0.5902  0.8817  0.1726
    4SAPS  H11Y  510   5.869   5.755   9.372  0.5832  0.1423 -0.2250
    4SAPS  C312  511   5.853   5.658   9.185 -0.5408 -0.2956 -0.3237
    4SAPS  H12X  512   5.816   5.562   9.227 -1.7105 -0.6375 -2.0498
    4SAPS  H12Y  513   5.913   5.626   9.096 -1.0476  1.2570 -1.2522
    4SAPS  C313  514   5.732   5.733   9.124  0.3023  0.2478 -0.3150
    4SAPS  H13X  515   5.697   5.814   9.190  2.7636  0.1807  1.2152
    4SAPS  H13Y  516   5.665   5.650   9.092 -0.8981  0.2814  1.8880
    4SAPS  C314  517   5.784   5.823   9.008 -0.2137 -0.2169 -0.2979
    4SAPS  H14X  518   5.833   5.750   8.941 -0.0434 -0.9737  0.6293
    4SAPS  H14Y  519   5.866   5.889   9.045 -0.8323  1.4130 -1.6767
    4SAPS  C315  520   5.683   5.905   8.926  0.6402  0.5515  0.3153
    4SAPS  H15X  521   5.624   5.973   8.991 -1.3591 -2.1124  1.5333
    4SAPS  H15Y  522   5.611   5.828   8.888  0.8267 -0.2890  1.6046
    4SAPS  C316  523   5.745   5.973   8.806  0.2302 -0.4643 -0.7894
    4SAPS  H16X  524   5.795   5.899   8.740  0.3484  0.1260 -1.3622
    4SAPS  H16Y  525   5.826   6.040   8.841  1.2125 -3.5140  3.6783
    4SAPS  C317  526   5.653   6.047   8.712 -0.0095  0.0824  0.3231
    4SAPS  H17X  527   5.590   5.969   8.665  0.2952  0.0054  0.0364
    4SAPS  H17Y  528   5.707   6.087   8.623  1.2583  0.5261  1.2659
    4SAPS  C318  529   5.585   6.166   8.771 -0.6653  0.5030  0.6629
    4SAPS  H18X  530   5.511   6.149   8.853 -0.3963  1.2951  1.0764
    4SAPS  H18Y  531   5.538   6.226   8.691 -0.6039 -0.0703  0.1900
    4SAPS  H18Z  532   5.665   6.231   8.812 -0.6111  0.3139  0.8625
    5SAPS     N  533   6.520   3.106  10.842 -0.1095 -0.1990 -0.2445
    5SAPS   HN1  534   6.605   3.131  10.788  0.2499 -2.7120 -0.9683
    5SAPS   HN2  535   6.544   3.010  10.871  1.1196  0.9245  2.8961
    5SAPS   HN3  536   6.431   3.101  10.788  0.0886 -0.0755 -0.5868
    5SAPS   C12  537   6.493   3.193  10.964  0.3819  0.0328 -0.8497
    5SAPS  H12A  538   6.411   3.145  11.015  0.6166 -0.7878 -1.2229
    5SAPS   C13  539   6.606   3.183  11.062  0.1713 -0.8919 -1.0257
    5SAPS  O13A  540   6.715   3.121  11.040 -0.2525  0.3201 -0.0858
    5SAPS  O13B  541   6.603   3.260  11.167 -0.2389  0.1469  0.4218
    5SAPS   C11  542   6.466   3.339  10.922 -0.2980 -0.0898  0.1648
    5SAPS  H11A  543   6.556   3.391  10.883 -0.8807  0.7930 -0.0366
    5SAPS  H11B  544   6.444   3.394  11.016  0.7022 -0.8578  0.8597
    5SAPS     P  545   6.357   3.495  10.745  0.3141 -0.6514  0.0208
    5SAPS   O13  546   6.307   3.597  10.847  0.3381 -0.1506  0.3665
    5SAPS   O14  547   6.495   3.513  10.694 -0.2891 -0.5278  0.0073
    5SAPS   O12  548   6.361   3.357  10.829 -0.3378  0.7461 -0.2881
    5SAPS   O11  549   6.253   3.474  10.627 -0.6328  0.2740 -0.2032
    5SAPS    C1  550   6.270   3.396  10.510  0.5304 -0.0694  0.1884
    5SAPS    HA  551   6.342   3.313  10.524  0.6103 -0.1923 -0.8738
    5SAPS    HB  552   6.171   3.350  10.490 -0.2813  1.3572  0.7942
    5SAPS    C2  553   6.318   3.478  10.386 -0.4416  0.5443 -0.5613
    5SAPS    HS  554   6.406   3.539  10.415 -1.0055  1.3073 -0.4172
    5SAPS   O21  555   6.214   3.550  10.330 -0.4746 -0.1791 -0.4272
    5SAPS   C21  556   6.177   3.669  10.385 -0.7751 -0.0498  0.4164
    5SAPS   O22  557   6.243   3.734  10.461  0.5486 -0.0475  0.1642
    5SAPS   C22  558   6.042   3.714  10.309  0.3383  0.2806 -0.1165
    5SAPS   H2R  559   6.048   3.651  10.218  0.7838 -3.4786  2.2679
    5SAPS   H2S  560   5.959   3.680  10.375  1.2222 -1.3026  0.2236
    5SAPS    C3  561   6.375   3.378  10.285 -0.1032 -0.3557  0.1239
    5SAPS    HX  562   6.288   3.312  10.261 -0.1496 -0.6041  0.9260
    5SAPS    HY  563   6.447   3.305  10.327 -1.6255 -2.2648 -0.4032
    5SAPS   O31  564   6.411   3.436  10.161  0.6618 -0.1489  0.0376
    5SAPS   C31  565   6.532   3.503  10.162  0.1109 -0.3661 -0.0900
    5SAPS   O32  566   6.610   3.502  10.253 -0.0464 -0.1250 -0.0753
    5SAPS   C32  567   6.546   3.566  10.019 -1.0560 -0.5468 -0.3415
    5SAPS   H2X  568   6.452   3.558   9.960 -2.4249 -1.3361  1.8099
    5SAPS   H2Y  569   6.619   3.497   9.974 -1.9864 -1.1739 -0.9293
    5SAPS   C23  570   6.039   3.862  10.281 -0.1370 -0.1839 -0.2298
    5SAPS   H3R  571   6.020   3.914  10.377 -1.3740  0.4181 -0.7847
    5SAPS   H3S  572   5.957   3.885  10.210 -0.2595 -0.4996 -0.1929
    5SAPS   C24  573   6.166   3.911  10.202 -0.6061  1.1466  0.6723
    5SAPS   H4R  574   6.170   3.857  10.105 -2.6767  3.0020 -0.5501
    5SAPS   H4S  575   6.261   3.899  10.259 -1.1553 -0.2398  1.3209
    5SAPS   C25  576   6.157   4.062  10.169 -0.4655  0.4325 -0.3239
    5SAPS   H5R  577   6.140   4.122  10.259 -1.9362  1.0449 -0.9687
    5SAPS   C26  578   6.155   4.118  10.048  0.5751  1.5112 -0.1513
    5SAPS   H6R  579   6.133   4.225  10.037 -1.0592  1.3650  1.3222
    5SAPS   C27  580   6.162   4.035   9.916  0.0559  0.2440 -0.3419
    5SAPS   H7R  581   6.113   3.936   9.927  1.2116 -0.2578  0.4704
    5SAPS   H7S  582   6.271   4.019   9.901  0.5217  1.8511  0.9482
    5SAPS   C28  583   6.114   4.095   9.790  0.3283 -0.3480 -0.0461
    5SAPS   H8R  584   6.021   4.046   9.758 -0.3177  0.9318 -0.2087
    5SAPS   C29  585   6.158   4.202   9.725  0.4665 -0.2851  0.1339
    5SAPS   H9R  586   6.096   4.225   9.637  0.3961 -1.1032 -0.0395
    5SAPS  C210  587   6.266   4.289   9.768  0.1947 -0.0504 -0.1099
    5SAPS  H10R  588   6.302   4.279   9.872 -0.0921  2.9211  0.3491
    5SAPS  H10S  589   6.229   4.393   9.757  0.4224  0.2344  1.6207
    5SAPS  C211  590   6.393   4.261   9.688  0.0639 -1.0730 -0.2486
    5SAPS  H11R  591   6.463   4.188   9.731 -2.3664 -2.6394  1.2963
    5SAPS  C212  592   6.429   4.328   9.576 -1.0520  0.0642 -0.1384
    5SAPS  H12R  593   6.519   4.294   9.523 -0.9533  2.0936 -1.3621
    5SAPS  C213  594   6.363   4.444   9.507 -0.4717  0.3347  1.4958
    5SAPS  H13R  595   6.266   4.470   9.555 -1.0021  0.9249  0.1548
    5SAPS  H13S  596   6.344   4.415   9.402 -0.6938  1.7528  1.1231
    5SAPS  C214  597   6.446   4.570   9.506  0.5429  0.4635 -0.0655
    5SAPS  H14R  598   6.509   4.590   9.594 -0.4657 -0.3559  0.8686
    5SAPS  C215  599   6.445   4.655   9.404  0.3569 -0.0532  0.7629
    5SAPS  H15R  600   6.501   4.750   9.409 -1.0835  0.8687 -0.0566
    5SAPS  C216  601   6.371   4.635   9.273  0.3336  0.1780 -0.5963
    5SAPS  H16R  602   6.366   4.735   9.225  0.9347 -0.2307 -1.5394
    5SAPS  H16S  603   6.265   4.605   9.280 -0.0536  1.0885 -2.0646
    5SAPS  C217  604   6.453   4.543   9.175  0.1559  0.1305 -0.2602
    5SAPS  H17R  605   6.447   4.437   9.208  3.1102  0.8078  3.0963
    5SAPS  H17S  606   6.561   4.561   9.196  0.4291 -1.0275 -0.6015
    5SAPS  C218  607   6.426   4.580   9.030 -0.6549 -0.3364  0.9771
    5SAPS  H18R  608   6.436   4.688   9.008  1.9895 -0.9781 -1.5304
    5SAPS  H18S  609   6.506   4.526   8.975 -0.6613  0.2928  0.3476
    5SAPS  C219  610   6.300   4.527   8.967 -0.5453 -0.1451 -1.1011
    5SAPS  H19R  611   6.219   4.577   9.025  0.8678  2.7980 -1.5293
    5SAPS  H19S  612   6.286   4.416   8.966 -3.1945  0.1082 -1.8157
    5SAPS  C220  613   6.275   4.568   8.816  0.1768  0.1860 -0.3211
    5SAPS  H20R  614   6.252   4.677   8.808  1.6100  0.4175 -1.7119
    5SAPS  H20S  615   6.198   4.502   8.770  1.6315 -1.1136 -0.9671
    5SAPS  H20T  616   6.359   4.548   8.746 -0.4703 -1.4743 -0.6662
    5SAPS   C33  617   6.624   3.702  10.018  0.1101 -0.2280 -0.1017
    5SAPS   H3X  618   6.719   3.706  10.075  0.1160 -2.0562  0.0608
    5SAPS   H3Y  619   6.544   3.767  10.061 -0.5734  0.0724 -1.7365
    5SAPS   C34  620   6.657   3.761   9.881 -0.2788  0.3771 -0.4872
    5SAPS   H4X  621   6.721   3.685   9.830  0.4679  0.7056 -0.0490
    5SAPS   H4Y  622   6.717   3.853   9.895 -1.5719  0.8967  2.3236
    5SAPS   C35  623   6.536   3.779   9.792  1.0654  0.8887  0.3460
    5SAPS   H5X  624   6.454   3.834   9.844  0.3355 -0.8718  1.1702
    5SAPS   H5Y  625   6.485   3.683   9.768  1.6873  0.4466  0.7856
    5SAPS   C36  626   6.574   3.846   9.664 -0.3597 -0.3448 -0.5325
    5SAPS   H6X  627   6.644   3.779   9.610 -0.1262 -0.0871 -0.5518
    5SAPS   H6Y  628   6.620   3.938   9.706 -1.6653 -1.0295  2.7506
    5SAPS   C37  629   6.461   3.896   9.567 -0.1240  0.4807  0.3445
    5SAPS   H7X  630   6.390   3.956   9.628 -0.3439  0.4943  0.0803
    5SAPS   H7Y  631   6.414   3.806   9.521  2.1178  0.7691 -2.8778
    5SAPS   C38  632   6.524   3.967   9.453 -0.6030 -0.2385  0.9525
    5SAPS   H8X  633   6.593   3.899   9.400 -1.2677 -0.3079  0.1505
    5SAPS   H8Y  634   6.571   4.061   9.490 -2.9363  1.1349  0.6444
    5SAPS   C39  635   6.412   4.011   9.353  0.1673 -0.0242 -0.7227
    5SAPS   H9X  636   6.332   4.048   9.420  1.2108  0.4740  0.2670
    5SAPS   H9Y  637   6.385   3.919   9.297 -0.3192 -0.9333  0.9439
    5SAPS  C310  638   6.450   4.121   9.254  0.3216  0.1523  0.1852
    5SAPS  H10X  639   6.550   4.097   9.211 -0.4622 -1.3705 -0.9006
    5SAPS  H10Y  640   6.458   4.209   9.321  0.8429  0.1171  0.1732
    5SAPS  C311  641   6.343   4.164   9.155  0.4247  0.5992  0.3763
    5SAPS  H11X  642   6.391   4.244   9.095  3.2091 -0.2610  1.3187
    5SAPS  H11Y  643   6.263   4.215   9.213 -1.7965  0.4024 -2.3539
    5SAPS  C312  644   6.295   4.059   9.048  0.1473  0.2091  0.2512
    5SAPS  H12X  645   6.287   3.956   9.088  1.2051  1.4584  4.1749
    5SAPS  H12Y  646   6.367   4.060   8.964 -1.1598  2.4608 -0.9437
    5SAPS  C313  647   6.161   4.098   8.981  0.3485  0.4029 -0.8857
    5SAPS  H13X  648   6.181   4.198   8.938 -0.3699  2.1884  2.5303
    5SAPS  H13Y  649   6.086   4.113   9.062  0.9971 -0.6989 -0.0529
    5SAPS  C314  650   6.123   3.986   8.882 -0.2944  0.2852 -0.0467
    5SAPS  H14X  651   6.076   3.895   8.925 -2.2135  1.3025  0.1202
    5SAPS  H14Y  652   6.211   3.966   8.818 -0.4386  1.7306 -0.7366
    5SAPS  C315  653   6.016   4.047   8.782 -0.0305 -0.4168 -0.0053
    5SAPS  H15X  654   6.068   4.123   8.720  0.2890 -0.9269 -0.3736
    5SAPS  H15Y  655   5.937   4.088   8.849 -1.0874 -1.4058 -0.6155
    5SAPS  C316  656   5.948   3.947   8.687 -0.6357 -0.2026 -0.4639
    5SAPS  H16X  657   5.932   3.852   8.743  0.6216  1.0816  2.2475
    5SAPS  H16Y  658   6.013   3.936   8.598 -0.3179  0.9900 -0.3922
    5SAPS  C317  659   5.806   3.998   8.651  0.8984 -0.0391  0.4536
    5SAPS  H17X  660   5.813   4.084   8.581  0.0712  0.8611  1.4366
    5SAPS  H17Y  661   5.759   4.034   8.745  0.5833 -0.0158  0.2870
    5SAPS  C318  662   5.722   3.888   8.584  0.3952  0.5828  0.7662
    5SAPS  H18X  663   5.615   3.904   8.606  0.1326 -1.6382  1.2511
    5SAPS  H18Y  664   5.739   3.786   8.624  1.6442 -0.3402 -1.8216
    5SAPS  H18Z  665   5.735   3.897   8.473  0.8023 -0.2405  0.7394
    6SAPS     N  666   5.053   3.902  10.694 -0.6642  0.2788 -0.2496
    6SAPS   HN1  667   5.089   3.980  10.635  1.3943  1.4560  2.3559
    6SAPS   HN2  668   5.137   3.862  10.740 -1.1720  1.6172  2.0249
    6SAPS   HN3  669   5.005   3.831  10.635 -1.6795 -0.0515  0.9217
    6SAPS   C12  670   4.949   3.954  10.791 -0.2234  0.4087  1.2304
    6SAPS  H12A  671   4.908   3.868  10.843 -1.5610  0.1074 -0.2476
    6SAPS   C13  672   5.000   4.056  10.888 -0.6040 -0.2289 -0.3432
    6SAPS  O13A  673   5.120   4.072  10.911 -0.0795  0.0164  0.1342
    6SAPS  O13B  674   4.917   4.106  10.965  0.1469  0.5445  0.4500
    6SAPS   C11  675   4.827   4.018  10.727  0.7368 -0.4023  0.0609
    6SAPS  H11A  676   4.856   4.120  10.693 -1.4650  0.0826 -0.4821
    6SAPS  H11B  677   4.745   4.040  10.798 -1.2417  1.3789 -2.5604
    6SAPS     P  678   4.669   3.839  10.612 -0.2817 -0.0064 -0.0773
    6SAPS   O13  679   4.741   3.712  10.591 -0.5075  0.6519 -0.3188
    6SAPS   O14  680   4.592   3.859  10.738  0.1774 -0.0774  0.2144
    6SAPS   O12  681   4.781   3.957  10.605 -0.1690  0.5186  0.2033
    6SAPS   O11  682   4.575   3.871  10.489  0.2906  0.2407 -0.6469
    6SAPS    C1  683   4.528   4.002  10.458 -0.0642 -0.4605 -0.9074
    6SAPS    HA  684   4.425   4.013  10.500 -1.2590 -2.6900 -2.9867
    6SAPS    HB  685   4.597   4.079  10.497  1.3129 -2.1289  0.1183
    6SAPS    C2  686   4.522   4.019  10.307 -0.2049 -0.3264  0.3488
    6SAPS    HS  687   4.448   3.943  10.271 -1.2064  0.0930  1.4495
    6SAPS   O21  688   4.649   4.003  10.242 -0.4483 -0.6282 -0.7589
    6SAPS   C21  689   4.668   3.876  10.189  0.2207 -0.3868 -0.1455
    6SAPS   O22  690   4.583   3.790  10.204 -0.1689  0.0898  0.7251
    6SAPS   C22  691   4.813   3.867  10.141  0.3695 -0.0490 -0.5323
    6SAPS   H2R  692   4.845   3.966  10.103 -0.3161  1.1715  1.8781
    6SAPS   H2S  693   4.887   3.840  10.219 -0.4521 -0.5563  0.0932
    6SAPS    C3  694   4.455   4.160  10.289 -0.0983  0.7298  0.5389
    6SAPS    HX  695   4.493   4.230  10.366  0.5720  1.3255 -0.3153
    6SAPS    HY  696   4.346   4.155  10.310  0.1026 -0.6854  1.3485
    6SAPS   O31  697   4.483   4.210  10.155  0.2671  0.2573  0.3698
    6SAPS   C31  698   4.398   4.163  10.058 -0.2554 -0.7378 -0.1311
    6SAPS   O32  699   4.290   4.109  10.079 -0.7521  0.5192 -0.3509
    6SAPS   C32  700   4.458   4.193   9.926  0.3067  0.3613 -0.2301
    6SAPS   H2X  701   4.545   4.125   9.922  0.0681  0.1146 -1.5030
    6SAPS   H2Y  702   4.497   4.297   9.927 -0.1856  0.5499  0.3944
    6SAPS   C23  703   4.820   3.746  10.046 -0.5187 -0.7017 -0.3222
    6SAPS   H3R  704   4.795   3.650  10.096  0.8729 -1.2645 -0.6604
    6SAPS   H3S  705   4.928   3.735  10.026 -0.5706  0.2860 -1.2277
    6SAPS   C24  706   4.725   3.775   9.921 -0.0670  0.1447  0.6931
    6SAPS   H4R  707   4.620   3.801   9.947  0.0037  0.7019  0.4406
    6SAPS   H4S  708   4.724   3.675   9.871 -1.4333  1.2310 -1.5825
    6SAPS   C25  709   4.799   3.865   9.825  0.4314 -0.1611 -0.1323
    6SAPS   H5R  710   4.870   3.935   9.872  0.2698  0.7237 -1.1628
    6SAPS   C26  711   4.788   3.870   9.693  0.1072 -0.2355 -0.9068
    6SAPS   H6R  712   4.859   3.935   9.642  1.0054 -0.3651  0.1385
    6SAPS   C27  713   4.693   3.779   9.624  0.4192  0.7076  0.6646
    6SAPS   H7R  714   4.588   3.780   9.659  0.2373 -2.7152  0.4891
    6SAPS   H7S  715   4.728   3.676   9.644  0.5427  0.9557  1.7886
    6SAPS   C28  716   4.683   3.803   9.477  0.0433 -0.3565  0.3166
    6SAPS   H8R  717   4.772   3.844   9.428  0.0498 -0.0962  0.5439
    6SAPS   C29  718   4.574   3.781   9.393 -1.0273 -0.0841  0.4410
    6SAPS   H9R  719   4.595   3.817   9.291  1.1376  0.7697  1.1332
    6SAPS  C210  720   4.441   3.727   9.425 -0.3358 -0.5024 -0.2510
    6SAPS  H10R  721   4.362   3.805   9.418  0.5897  0.4510 -0.3373
    6SAPS  H10S  722   4.438   3.707   9.534 -0.6551 -2.8816 -0.6438
    6SAPS  C211  723   4.408   3.595   9.365  0.5350  0.2367  0.0537
    6SAPS  H11R  724   4.500   3.539   9.342 -0.6351 -1.3616 -0.9878
    6SAPS  C212  725   4.286   3.551   9.326 -0.8641  0.7699  0.4408
    6SAPS  H12R  726   4.278   3.449   9.287 -0.3113  0.6522  0.6255
    6SAPS  C213  727   4.161   3.625   9.340  0.4461  0.2594 -0.2653
    6SAPS  H13R  728   4.182   3.718   9.282  2.7244  0.0299  0.0993
    6SAPS  H13S  729   4.157   3.657   9.446 -1.3699 -0.8010  0.0272
    6SAPS  C214  730   4.035   3.551   9.295  0.0218 -0.5147  0.6395
    6SAPS  H14R  731   4.041   3.442   9.310 -0.5818 -0.7581 -0.7758
    6SAPS  C215  732   3.922   3.608   9.248 -0.6260 -0.0677  0.5050
    6SAPS  H15R  733   3.846   3.533   9.222  1.3532 -1.2275 -2.5539
    6SAPS  C216  734   3.899   3.751   9.222  0.3871 -0.8817 -0.7405
    6SAPS  H16R  735   3.996   3.804   9.232 -0.4925  1.1324 -2.0918
    6SAPS  H16S  736   3.833   3.781   9.306  1.0883 -1.6371  0.0969
    6SAPS  C217  737   3.839   3.796   9.085  0.9929  0.1792 -0.1785
    6SAPS  H17R  738   3.787   3.889   9.118  0.2288 -1.1500  2.6396
    6SAPS  H17S  739   3.752   3.730   9.062 -0.0271  1.3895  0.0756
    6SAPS  C218  740   3.938   3.807   8.975  0.4421 -0.0032  0.5940
    6SAPS  H18R  741   4.002   3.717   8.963  1.2917  0.6230  0.3360
    6SAPS  H18S  742   3.997   3.896   9.004 -0.9049  0.8656  0.7608
    6SAPS  C219  743   3.861   3.828   8.841  1.0669 -0.3591  0.2666
    6SAPS  H19R  744   3.800   3.738   8.819  0.0617  0.8594 -2.3475
    6SAPS  H19S  745   3.936   3.833   8.759 -1.6207  0.7193 -2.3215
    6SAPS  C220  746   3.765   3.950   8.830 -0.3584 -0.4961 -0.8078
    6SAPS  H20R  747   3.813   4.043   8.868 -2.8020  0.0127  1.2635
    6SAPS  H20S  748   3.678   3.934   8.896  0.2955 -2.0241 -0.2818
    6SAPS  H20T  749   3.726   3.966   8.727 -2.0345 -0.3392 -0.1797
    6SAPS   C33  750   4.354   4.146   9.815  0.3095  0.3799  0.1133
    6SAPS   H3X  751   4.286   4.234   9.810  1.8417  1.5757 -0.6502
    6SAPS   H3Y  752   4.301   4.056   9.853  1.0562 -0.8530 -1.6511
    6SAPS   C34  753   4.427   4.118   9.679 -0.8724 -0.4546  0.4561
    6SAPS   H4X  754   4.485   4.023   9.682  1.0555  0.5843 -1.2168
    6SAPS   H4Y  755   4.502   4.200   9.668 -1.0289 -0.3362  0.2685
    6SAPS   C35  756   4.328   4.123   9.561 -0.3509 -0.0273  0.1670
    6SAPS   H5X  757   4.268   4.214   9.582  0.4551  0.0642  2.4369
    6SAPS   H5Y  758   4.258   4.037   9.568 -0.2480  0.0207  3.3377
    6SAPS   C36  759   4.401   4.151   9.437  0.0887  0.3313 -0.6147
    6SAPS   H6X  760   4.497   4.097   9.420  0.0031 -0.2172  0.5432
    6SAPS   H6Y  761   4.429   4.259   9.434  0.4128  0.3609  1.4256
    6SAPS   C37  762   4.312   4.113   9.326 -0.0782 -0.4170 -0.5404
    6SAPS   H7X  763   4.223   4.180   9.328 -0.0010 -0.3186 -0.4461
    6SAPS   H7Y  764   4.274   4.009   9.336 -1.6616  0.2317  0.5481
    6SAPS   C38  765   4.373   4.107   9.184 -0.8572  0.5475  0.3299
    6SAPS   H8X  766   4.449   4.026   9.179  0.7722  2.0825 -0.9958
    6SAPS   H8Y  767   4.433   4.198   9.163 -0.4225  0.1459 -0.2161
    6SAPS   C39  768   4.271   4.078   9.077 -0.1902 -0.3560 -0.0521
    6SAPS   H9X  769   4.175   4.127   9.104 -0.0287  0.0337 -0.1891
    6SAPS   H9Y  770   4.250   3.970   9.095  0.5306 -0.4866  0.0450
    6SAPS  C310  771   4.306   4.105   8.934 -0.1593  0.2681 -0.1855
    6SAPS  H10X  772   4.383   4.033   8.902  0.0393  0.5619 -0.3680
    6SAPS  H10Y  773   4.341   4.210   8.925  1.1197 -0.1794 -0.6550
    6SAPS  C311  774   4.186   4.095   8.841 -0.0125  0.2702 -0.0534
    6SAPS  H11X  775   4.111   4.172   8.870 -0.2750  0.4931 -1.2462
    6SAPS  H11Y  776   4.141   3.993   8.841 -1.0379  0.7023  0.9653
    6SAPS  C312  777   4.221   4.131   8.691 -0.0928 -0.3341  0.1429
    6SAPS  H12X  778   4.270   4.230   8.700 -0.7841 -0.2100  4.3926
    6SAPS  H12Y  779   4.131   4.136   8.626  0.5506 -1.4358 -0.8866
    6SAPS  C313  780   4.327   4.038   8.618 -0.7834 -0.0481  0.0587
    6SAPS  H13X  781   4.306   3.930   8.604 -0.9721 -0.1848  1.2886
    6SAPS  H13Y  782   4.420   4.041   8.678 -1.8700  0.0642  1.8130
    6SAPS  C314  783   4.355   4.093   8.476  0.9180  0.0928 -0.7021
    6SAPS  H14X  784   4.373   4.203   8.478 -1.3245  0.5099 -1.2172
    6SAPS  H14Y  785   4.265   4.088   8.412 -0.5138 -0.2526  1.2413
    6SAPS  C315  786   4.459   4.012   8.399  0.4920 -0.6489 -0.2090
    6SAPS  H15X  787   4.429   4.026   8.293 -1.7266 -0.8281  0.3364
    6SAPS  H15Y  788   4.449   3.904   8.426  0.4406 -0.2609  1.4326
    6SAPS  C316  789   4.603   4.049   8.416  0.0927 -0.1921  0.1671
    6SAPS  H16X  790   4.633   4.021   8.520 -1.3933 -0.0642  0.6603
    6SAPS  H16Y  791   4.611   4.158   8.395  0.5195 -0.3017 -0.2522
    6SAPS  C317  792   4.684   3.960   8.319 -0.0794  0.7067  0.8323
    6SAPS  H17X  793   4.656   4.001   8.220  0.0123  0.1106  0.5553
    6SAPS  H17Y  794   4.652   3.854   8.327 -1.2476  1.0897  1.4085
    6SAPS  C318  795   4.842   3.969   8.324  0.0979 -0.3411 -0.1626
    6SAPS  H18X  796   4.871   3.910   8.414 -0.9907 -1.5659 -0.5881
    6SAPS  H18Y  797   4.883   4.072   8.338 -1.6671  0.1381  2.1280
    6SAPS  H18Z  798   4.888   3.930   8.231  3.8998 -1.4495  1.9876
    7SAPS     N  799   6.463   5.114  10.950 -0.1230 -0.4016  0.8133
    7SAPS   HN1  800   6.492   5.167  10.865 -0.5568  0.8257  1.4086
    7SAPS   HN2  801   6.399   5.171  11.009 -2.7397 -3.0177  0.7631
    7SAPS   HN3  802   6.549   5.088  11.003  0.4813 -2.8767 -1.1968
    7SAPS   C12  803   6.390   4.991  10.916  0.7353 -0.4011 -0.1666
    7SAPS  H12A  804   6.451   4.912  10.875  0.9202 -0.6751  0.6272
    7SAPS   C13  805   6.316   4.928  11.036  0.2283  0.0456  0.4744
    7SAPS  O13A  806   6.324   4.973  11.153 -0.8117 -0.8430  0.1895
    7SAPS  O13B  807   6.260   4.816  11.005 -0.1791  0.0368  0.4425
    7SAPS   C11  808   6.286   5.034  10.804  0.1740  0.2162  0.7348
    7SAPS  H11A  809   6.209   5.098  10.850 -2.1029 -1.8925  0.0565
    7SAPS  H11B  810   6.236   4.941  10.768 -2.7943  1.7592  0.5648
    7SAPS     P  811   6.423   5.040  10.572 -0.2567  0.1952  0.1194
    7SAPS   O13  812   6.461   5.138  10.471  0.0022 -0.2503 -0.1838
    7SAPS   O14  813   6.530   4.954  10.617 -0.6084  0.6640 -0.0958
    7SAPS   O12  814   6.351   5.111  10.691 -0.2919 -0.0924 -0.8433
    7SAPS   O11  815   6.314   4.939  10.526 -0.5449 -0.4114 -0.0623
    7SAPS    C1  816   6.185   4.990  10.498  0.7000  0.0211 -0.4659
    7SAPS    HA  817   6.120   4.959  10.583 -2.2433  1.0444 -2.1639
    7SAPS    HB  818   6.176   5.098  10.473  1.2200 -0.2324 -1.8440
    7SAPS    C2  819   6.126   4.930  10.370 -0.3777  0.4315  0.0844
    7SAPS    HS  820   6.025   4.971  10.345 -0.2452  0.8061  0.1601
    7SAPS   O21  821   6.120   4.783  10.374  0.8167 -0.5673  0.3578
    7SAPS   C21  822   6.007   4.741  10.439  0.6615 -0.1641  0.0415
    7SAPS   O22  823   5.918   4.823  10.470  0.7223  1.5019  0.3579
    7SAPS   C22  824   6.013   4.595  10.489 -0.7561 -0.5489 -0.4906
    7SAPS   H2R  825   6.106   4.546  10.452 -1.1966  0.3963 -3.0627
    7SAPS   H2S  826   6.027   4.613  10.598 -3.2617 -2.9143  0.3299
    7SAPS    C3  827   6.214   4.966  10.253  0.0784  0.2050  0.0802
    7SAPS    HX  828   6.177   4.920  10.159  0.9231 -1.4629  0.5221
    7SAPS    HY  829   6.311   4.914  10.271 -1.3378 -2.5981  0.2315
    7SAPS   O31  830   6.227   5.109  10.240  0.0244  0.2393 -0.6492
    7SAPS   C31  831   6.339   5.159  10.195  0.1434  0.2614 -0.1001
    7SAPS   O32  832   6.438   5.094  10.173 -0.0787  0.1155 -0.0628
    7SAPS   C32  833   6.331   5.312  10.179 -0.0045 -0.2884 -0.7273
    7SAPS   H2X  834   6.435   5.349  10.193  0.2140  0.6780 -4.0778
    7SAPS   H2Y  835   6.254   5.344  10.252  0.6825 -1.4146  0.5343
    7SAPS   C23  836   5.892   4.512  10.468  0.0406 -0.7762  0.4418
    7SAPS   H3R  837   5.801   4.564  10.504 -0.5567 -1.2948 -0.2832
    7SAPS   H3S  838   5.914   4.409  10.504 -0.3617 -0.4732  1.5634
    7SAPS   C24  839   5.854   4.501  10.317 -0.1911  0.4851  0.1745
    7SAPS   H4R  840   5.832   4.604  10.280 -2.5424 -0.0359 -0.0387
    7SAPS   H4S  841   5.767   4.435  10.298 -1.4435  1.6501  1.5927
    7SAPS   C25  842   5.971   4.439  10.241  0.1354 -0.3946  0.3533
    7SAPS   H5R  843   6.034   4.366  10.294  1.7669  1.5969  1.2553
    7SAPS   C26  844   6.011   4.475  10.121  0.6319  0.3945  0.3467
    7SAPS   H6R  845   6.102   4.426  10.084  0.5772 -0.1067  0.8484
    7SAPS   C27  846   5.947   4.576  10.037 -0.0868  0.4958  0.4533
    7SAPS   H7R  847   5.848   4.610  10.074 -0.8889 -1.1650 -0.0520
    7SAPS   H7S  848   5.931   4.535   9.934  4.3889  1.6873 -0.9383
    7SAPS   C28  849   6.035   4.695  10.025  0.1283  0.1791 -0.5870
    7SAPS   H8R  850   6.083   4.730  10.117 -0.7752 -0.3382  0.0945
    7SAPS   C29  851   6.061   4.779   9.921  0.9158  0.2064  0.1015
    7SAPS   H9R  852   6.131   4.863   9.930  0.9366  0.3138 -0.9577
    7SAPS  C210  853   6.001   4.764   9.789  0.2306 -0.5253 -0.1889
    7SAPS  H10R  854   5.952   4.862   9.770 -1.7008 -0.8397  2.5786
    7SAPS  H10S  855   5.920   4.688   9.793 -0.4049  0.1648  0.3970
    7SAPS  C211  856   6.109   4.744   9.692 -0.4329  0.1715 -0.0244
    7SAPS  H11R  857   6.173   4.655   9.706 -2.6824 -1.3092  1.4333
    7SAPS  C212  858   6.147   4.820   9.590  0.1761  0.2561 -0.8274
    7SAPS  H12R  859   6.230   4.784   9.528  0.7266 -0.1099  0.1088
    7SAPS  C213  860   6.072   4.947   9.548 -0.0723  0.0023  0.7497
    7SAPS  H13R  861   6.076   5.018   9.633  1.2015  0.6845  0.1393
    7SAPS  H13S  862   5.966   4.919   9.532  0.4443 -0.5702 -2.2917
    7SAPS  C214  863   6.127   5.000   9.423 -0.1636  0.2693  0.5131
    7SAPS  H14R  864   6.193   5.088   9.437  0.2935 -0.0519  0.4114
    7SAPS  C215  865   6.098   4.960   9.296  0.3214 -0.4369  0.0434
    7SAPS  H15R  866   6.154   5.003   9.211  0.4037  0.8703  0.7446
    7SAPS  C216  867   6.007   4.850   9.251  0.1966 -1.0597 -0.7631
    7SAPS  H16R  868   5.960   4.807   9.342 -0.9641  0.1877 -0.7410
    7SAPS  H16S  869   6.061   4.769   9.200  1.1012  0.1810 -1.8379
    7SAPS  C217  870   5.890   4.898   9.150 -0.2682 -0.0913 -0.1293
    7SAPS  H17R  871   5.820   4.962   9.208 -2.3657 -2.2719 -0.1128
    7SAPS  H17S  872   5.835   4.807   9.118  1.3727 -1.5246  0.9280
    7SAPS  C218  873   5.945   4.974   9.023  0.9058 -0.1670  0.5303
    7SAPS  H18R  874   6.029   4.917   8.978 -1.1803 -0.4846 -3.3387
    7SAPS  H18S  875   5.980   5.078   9.045  2.0066 -0.6575  1.1745
    7SAPS  C219  876   5.842   4.964   8.910 -0.5507 -0.2629 -0.0501
    7SAPS  H19R  877   5.899   5.007   8.824 -0.5340 -0.6849 -0.2534
    7SAPS  H19S  878   5.758   5.032   8.935  1.1529  1.5901  0.8920
    7SAPS  C220  879   5.803   4.825   8.858 -0.3590  0.5348  0.4733
    7SAPS  H20R  880   5.733   4.770   8.924  0.7563 -2.3326 -0.5861
    7SAPS  H20S  881   5.897   4.765   8.856 -0.5228  0.2889  0.0170
    7SAPS  H20T  882   5.763   4.845   8.757  3.8979  2.1862 -1.1190
    7SAPS   C33  883   6.279   5.353  10.041  0.1219 -0.0932 -0.4820
    7SAPS   H3X  884   6.279   5.463  10.030  2.4582 -0.0093 -0.1264
    7SAPS   H3Y  885   6.173   5.319  10.040 -0.1474  0.7245 -1.0000
    7SAPS   C34  886   6.360   5.295   9.927 -0.9191 -0.1993 -0.3721
    7SAPS   H4X  887   6.343   5.186   9.914  0.4539 -0.7116  1.6274
    7SAPS   H4Y  888   6.470   5.312   9.938 -0.9437 -1.5329  3.2696
    7SAPS   C35  889   6.317   5.359   9.789 -0.1320 -0.5470 -0.0576
    7SAPS   H5X  890   6.366   5.457   9.768  1.1150 -1.7824 -3.6541
    7SAPS   H5Y  891   6.207   5.370   9.799 -0.4035 -2.2268 -0.8771
    7SAPS   C36  892   6.350   5.276   9.670  0.2912  0.0495  0.0401
    7SAPS   H6X  893   6.306   5.176   9.689 -1.3320  0.5854 -0.6360
    7SAPS   H6Y  894   6.458   5.257   9.655  0.5054  1.2123  0.0336
    7SAPS   C37  895   6.292   5.342   9.546  0.2794 -0.6702  1.0185
    7SAPS   H7X  896   6.295   5.452   9.563 -0.8594 -0.5437  0.4976
    7SAPS   H7Y  897   6.184   5.322   9.533 -0.0620  2.3091 -2.5345
    7SAPS   C38  898   6.364   5.301   9.410 -0.3935  0.6992  0.4334
    7SAPS   H8X  899   6.354   5.191   9.396  2.0783  0.4716 -0.0035
    7SAPS   H8Y  900   6.474   5.315   9.415 -0.0776 -1.3702  0.3138
    7SAPS   C39  901   6.316   5.365   9.274 -0.7070  0.3036 -0.6330
    7SAPS   H9X  902   6.395   5.329   9.204  0.1141  2.2614 -0.7730
    7SAPS   H9Y  903   6.328   5.475   9.279  0.3062  0.1445  1.8042
    7SAPS  C310  904   6.175   5.328   9.233 -0.1142 -0.1992 -0.4472
    7SAPS  H10X  905   6.092   5.383   9.283 -0.5370 -1.8188  0.7071
    7SAPS  H10Y  906   6.157   5.225   9.270  1.7766 -1.0319 -1.6880
    7SAPS  C311  907   6.158   5.330   9.082 -0.4542 -0.4047 -0.6774
    7SAPS  H11X  908   6.056   5.291   9.063 -0.5408 -1.0077  0.9130
    7SAPS  H11Y  909   6.230   5.264   9.029  0.3604  1.6143 -2.2366
    7SAPS  C312  910   6.205   5.462   9.016 -0.4577 -0.9070 -0.7853
    7SAPS  H12X  911   6.307   5.493   9.047 -0.1129 -1.8150 -0.9696
    7SAPS  H12Y  912   6.139   5.540   9.060 -1.2329 -0.0406 -3.2623
    7SAPS  C313  913   6.200   5.462   8.863 -0.3893  0.1928 -0.3956
    7SAPS  H13X  914   6.262   5.379   8.824  0.3607  1.3652 -1.7838
    7SAPS  H13Y  915   6.248   5.555   8.828  3.2694 -1.5743 -0.5280
    7SAPS  C314  916   6.057   5.442   8.804  0.0405  0.3288  0.0444
    7SAPS  H14X  917   5.992   5.526   8.837 -2.9271 -2.2371  1.2109
    7SAPS  H14Y  918   6.017   5.352   8.855 -1.7448  0.4920 -0.9745
    7SAPS  C315  919   6.045   5.435   8.650  0.5397  0.2256 -0.2573
    7SAPS  H15X  920   6.124   5.374   8.603  0.3897  0.5378 -0.9251
    7SAPS  H15Y  921   6.067   5.535   8.606  0.8642 -0.2763 -1.2565
    7SAPS  C316  922   5.905   5.396   8.606 -0.0583  0.2909  0.4897
    7SAPS  H16X  923   5.895   5.405   8.495  1.6043 -1.4717  0.1416
    7SAPS  H16Y  924   5.823   5.459   8.646 -0.6723  1.0630 -1.7909
    7SAPS  C317  925   5.868   5.255   8.648  0.0169  0.0804 -0.4397
    7SAPS  H17X  926   5.900   5.235   8.753 -1.9509 -0.9463  0.0102
    7SAPS  H17Y  927   5.930   5.186   8.587 -0.0905  1.0429 -1.6720
    7SAPS  C318  928   5.721   5.221   8.633 -0.2439 -0.2491  0.2545
    7SAPS  H18X  929   5.663   5.272   8.713 -1.8161 -1.6296  0.0565
    7SAPS  H18Y  930   5.703   5.112   8.625 -0.7358 -0.1133 -0.6010
    7SAPS  H18Z  931   5.683   5.273   8.542  0.9324  0.3802  0.0965
    8SAPS     N  932   2.416   6.748  10.824 -0.2406 -0.7383 -0.6113
    8SAPS   HN1  933   2.491   6.816  10.800 -1.0016  0.7122  0.8876
    8SAPS   HN2  934   2.409   6.671  10.755 -1.5599 -1.1676 -0.0301
    8SAPS   HN3  935   2.323   6.795  10.816  0.3509  0.9705  1.4650
    8SAPS   C12  936   2.433   6.688  10.962 -0.2112  0.1686 -0.3762
    8SAPS  H12A  937   2.411   6.758  11.041  0.4151 -1.6100  1.4610
    8SAPS   C13  938   2.347   6.566  10.993 -0.0140  0.0659 -0.3181
    8SAPS  O13A  939   2.283   6.509  10.901 -0.2187 -0.5415  0.3425
    8SAPS  O13B  940   2.359   6.517  11.113  0.7367  0.5490  0.4564
    8SAPS   C11  941   2.583   6.631  10.972 -0.3883 -0.5234 -0.8271
    8SAPS  H11A  942   2.582   6.549  10.898  0.6943 -0.1394 -1.2775
    8SAPS  H11B  943   2.597   6.601  11.078  0.8100  1.7956 -0.2538
    8SAPS     P  944   2.831   6.686  10.912  0.4406  0.4563  0.1254
    8SAPS   O13  945   2.916   6.659  11.029 -0.0760 -0.3295 -0.0397
    8SAPS   O14  946   2.817   6.587  10.803  0.2249 -0.4427  0.0315
    8SAPS   O12  947   2.691   6.736  10.957  0.0224  0.2081 -0.1538
    8SAPS   O11  948   2.874   6.822  10.846 -0.0758 -0.4296  0.0140
    8SAPS    C1  949   3.006   6.882  10.844 -0.3344  0.7302  0.1129
    8SAPS    HA  950   3.009   6.987  10.880 -1.3659  0.6850  0.3670
    8SAPS    HB  951   3.075   6.817  10.903  1.3630  2.2667 -0.1209
    8SAPS    C2  952   3.056   6.892  10.699 -0.1894  0.0115 -0.3855
    8SAPS    HS  953   3.150   6.950  10.709 -0.0585 -0.5625  2.6423
    8SAPS   O21  954   2.962   6.958  10.616  0.4102 -1.1165  0.3321
    8SAPS   C21  955   2.961   7.085  10.621 -0.0972  0.2943 -0.4922
    8SAPS   O22  956   3.028   7.156  10.694  0.9860 -0.1473 -0.1968
    8SAPS   C22  957   2.862   7.136  10.510 -0.3985  0.4779 -0.4527
    8SAPS   H2R  958   2.876   7.080  10.415 -0.9411 -0.3028 -0.0889
    8SAPS   H2S  959   2.756   7.124  10.542 -0.6513  1.2746 -0.9747
    8SAPS    C3  960   3.085   6.755  10.648 -0.4431  0.3421  0.5690
    8SAPS    HX  961   2.998   6.687  10.652 -0.3726 -0.0796 -2.6799
    8SAPS    HY  962   3.156   6.712  10.722 -0.6658 -0.9200  0.0716
    8SAPS   O31  963   3.158   6.753  10.525  0.7863  0.2887  0.3460
    8SAPS   C31  964   3.078   6.759  10.419 -0.1343 -0.5430  0.6032
    8SAPS   O32  965   2.956   6.767  10.424  0.0614  0.0210 -0.5659
    8SAPS   C32  966   3.158   6.762  10.285 -0.1206 -0.1914 -0.0161
    8SAPS   H2X  967   3.199   6.658  10.282 -1.1987 -0.7588  2.3355
    8SAPS   H2Y  968   3.231   6.845  10.291  0.6368 -0.8617  0.2814
    8SAPS   C23  969   2.885   7.283  10.480  0.4533  0.3194 -0.2002
    8SAPS   H3R  970   2.987   7.296  10.438  0.7622 -0.3001  0.3430
    8SAPS   H3S  971   2.886   7.336  10.578  0.4361 -0.2413  0.1094
    8SAPS   C24  972   2.780   7.352  10.391 -0.0557  0.1563  0.4647
    8SAPS   H4R  973   2.786   7.461  10.411  1.0595 -0.2571  2.7791
    8SAPS   H4S  974   2.677   7.337  10.431  0.5623  1.2302  2.6108
    8SAPS   C25  975   2.805   7.319  10.246  0.3198 -0.1748  0.5368
    8SAPS   H5R  976   2.807   7.211  10.228 -0.1547 -0.4296  1.8929
    8SAPS   C26  977   2.835   7.401  10.149  0.4033  0.8803 -0.1521
    8SAPS   H6R  978   2.839   7.358  10.048  0.8372 -2.3368  1.1114
    8SAPS   C27  979   2.858   7.547  10.152  1.0672 -0.6575 -0.0613
    8SAPS   H7R  980   2.876   7.578  10.257  0.7567  0.7616 -0.4067
    8SAPS   H7S  981   2.756   7.589  10.138  0.8466 -1.0858  0.2253
    8SAPS   C28  982   2.957   7.599  10.053  0.7729 -0.8457 -0.1892
    8SAPS   H8R  983   3.062   7.601  10.087  1.2199 -1.5460 -1.4694
    8SAPS   C29  984   2.936   7.635   9.924  0.2035 -0.3850 -1.0929
    8SAPS   H9R  985   3.025   7.659   9.864  1.0224 -1.6730 -0.4225
    8SAPS  C210  986   2.810   7.645   9.850 -0.0847 -0.1218 -0.4098
    8SAPS  H10R  987   2.790   7.748   9.812 -1.7906 -0.3916 -0.3181
    8SAPS  H10S  988   2.715   7.630   9.906 -0.1415 -0.1716 -0.5179
    8SAPS  C211  989   2.823   7.549   9.738 -0.3616  1.0069 -0.2286
    8SAPS  H11R  990   2.853   7.447   9.766 -3.3915  0.1336  0.1539
    8SAPS  C212  991   2.801   7.562   9.604 -0.1795 -0.3604  0.6748
    8SAPS  H12R  992   2.799   7.471   9.543 -4.3008  0.6856 -1.1210
    8SAPS  C213  993   2.761   7.690   9.537 -0.3681  0.6205 -0.5403
    8SAPS  H13R  994   2.773   7.775   9.608 -0.0611 -0.0819  0.2572
    8SAPS  H13S  995   2.650   7.685   9.527 -0.5016  3.3350 -1.4509
    8SAPS  C214  996   2.829   7.714   9.401  0.8068 -0.3195  0.2183
    8SAPS  H14R  997   2.924   7.770   9.401 -1.0771  3.0796  0.4537
    8SAPS  C215  998   2.776   7.682   9.283  0.1414 -0.0479 -0.1282
    8SAPS  H15R  999   2.834   7.711   9.194 -1.0235 -0.0564 -0.9092
    8SAPS  C216 1000   2.646   7.621   9.246 -0.5173 -0.1797 -0.7353
    8SAPS  H16R 1001   2.594   7.699   9.186  0.8822  0.1687 -1.5212
    8SAPS  H16S 1002   2.591   7.597   9.340  1.4345  0.6537  0.6871
    8SAPS  C217 1003   2.655   7.486   9.167 -0.1189  0.0079 -0.3372
    8SAPS  H17R 1004   2.552   7.460   9.133 -0.8085  0.9912  0.8979
    8SAPS  H17S 1005   2.715   7.413   9.227  0.6887  0.5795 -0.4347
    8SAPS  C218 1006   2.730   7.492   9.030  0.2393 -0.0700  0.3226
    8SAPS  H18R 1007   2.724   7.386   8.999  1.0033  0.3656 -1.4203
    8SAPS  H18S 1008   2.837   7.523   9.040 -0.4353  2.3992  0.5029
    8SAPS  C219 1009   2.663   7.584   8.917 -0.5606  0.0402 -0.1868
    8SAPS  H19R 1010   2.685   7.690   8.942 -1.0070 -0.2283  1.4456
    8SAPS  H19S 1011   2.552   7.571   8.921 -0.4568 -0.6424  1.6984
    8SAPS  C220 1012   2.711   7.552   8.776  0.0735  0.4291  0.4316
    8SAPS  H20R 1013   2.676   7.451   8.745 -2.0509  1.0756  0.5664
    8SAPS  H20S 1014   2.821   7.564   8.771 -0.0578  1.1344 -2.0265
    8SAPS  H20T 1015   2.656   7.623   8.711  1.1401  0.6187 -0.2772
    8SAPS   C33 1016   3.063   6.776  10.159  0.0940 -0.4255 -0.5541
    8SAPS   H3X 1017   3.029   6.882  10.168  3.0992  0.7700 -1.9488
    8SAPS   H3Y 1018   2.976   6.708  10.160  0.9127 -1.4988  0.0294
    8SAPS   C34 1019   3.146   6.762  10.033  0.3107  0.0172  0.6116
    8SAPS   H4X 1020   3.205   6.670  10.014  1.2733  0.8634 -0.7162
    8SAPS   H4Y 1021   3.220   6.845  10.034 -0.2083  0.5094  2.4738
    8SAPS   C35 1022   3.063   6.783   9.905  0.7247 -0.6803 -0.0466
    8SAPS   H5X 1023   3.014   6.880   9.927  2.2495  0.3061 -0.8040
    8SAPS   H5Y 1024   2.978   6.714   9.918 -0.3827  0.8394  1.1064
    8SAPS   C36 1025   3.139   6.769   9.780  0.0914  0.4946 -0.4455
    8SAPS   H6X 1026   3.170   6.662   9.771 -1.5668  0.0768 -1.6900
    8SAPS   H6Y 1027   3.230   6.833   9.779  1.1741 -0.9568  0.3391
    8SAPS   C37 1028   3.062   6.781   9.648  0.3833  0.3042 -0.2172
    8SAPS   H7X 1029   3.023   6.884   9.634  0.2061  0.4865  1.3843
    8SAPS   H7Y 1030   2.982   6.705   9.662  2.2828 -1.5222  1.7985
    8SAPS   C38 1031   3.140   6.749   9.522 -0.4191 -0.5275 -0.0554
    8SAPS   H8X 1032   3.164   6.640   9.530 -0.8166 -0.7366 -1.4645
    8SAPS   H8Y 1033   3.235   6.807   9.522  0.1175 -1.3826  0.2359
    8SAPS   C39 1034   3.069   6.764   9.382 -0.4974 -0.8054 -0.1664
    8SAPS   H9X 1035   3.036   6.871   9.380 -1.5739 -1.1330 -1.1819
    8SAPS   H9Y 1036   2.980   6.698   9.374 -0.1977 -1.0789 -1.3905
    8SAPS  C310 1037   3.152   6.721   9.264  0.2592  0.1249 -0.7280
    8SAPS  H10X 1038   3.171   6.613   9.285  0.3774  0.2684 -0.1048
    8SAPS  H10Y 1039   3.249   6.775   9.266  0.1438  0.3115  0.5078
    8SAPS  C311 1040   3.068   6.733   9.134  0.1953  0.1989  1.1991
    8SAPS  H11X 1041   3.067   6.839   9.101 -3.0944 -0.4712 -1.4842
    8SAPS  H11Y 1042   2.961   6.716   9.160 -0.2705  2.0580  0.6567
    8SAPS  C312 1043   3.106   6.642   9.014  0.0591  0.0581  0.0396
    8SAPS  H12X 1044   3.075   6.537   9.033  0.6642 -0.8284 -3.2023
    8SAPS  H12Y 1045   3.216   6.641   8.998 -0.0810 -0.1554 -1.0077
    8SAPS  C313 1046   3.041   6.687   8.882  0.1019  0.0117  0.0632
    8SAPS  H13X 1047   3.064   6.794   8.864 -0.6279  0.5656  2.1632
    8SAPS  H13Y 1048   2.931   6.678   8.895  0.0080  2.0214  1.0336
    8SAPS  C314 1049   3.095   6.611   8.763 -0.4364  0.0508  0.0816
    8SAPS  H14X 1050   3.072   6.506   8.791 -1.9035  0.3189  0.0034
    8SAPS  H14Y 1051   3.201   6.643   8.772 -0.4608  0.9878 -2.2307
    8SAPS  C315 1052   3.030   6.638   8.624 -0.9455 -1.1849  0.3341
    8SAPS  H15X 1053   2.930   6.592   8.610 -0.9528 -1.1624  0.3105
    8SAPS  H15Y 1054   3.094   6.595   8.544 -1.0893 -0.3466 -0.2513
    8SAPS  C316 1055   3.019   6.789   8.591 -0.0137 -1.2964 -0.0087
    8SAPS  H16X 1056   3.114   6.847   8.581 -1.3666  0.6944 -2.9291
    8SAPS  H16Y 1057   2.968   6.828   8.682  3.4384 -2.0020  2.4379
    8SAPS  C317 1058   2.944   6.815   8.461  0.0010  0.2226 -0.3725
    8SAPS  H17X 1059   2.839   6.778   8.463  0.4274 -1.0257  0.3043
    8SAPS  H17Y 1060   2.999   6.758   8.384  0.9958 -0.5792  0.8813
    8SAPS  C318 1061   2.938   6.965   8.412  0.4234  0.2945  0.2144
    8SAPS  H18X 1062   2.872   7.025   8.478 -1.0284 -1.5506  0.5291
    8SAPS  H18Y 1063   2.894   6.979   8.311 -0.5704  0.4024  0.6470
    8SAPS  H18Z 1064   3.043   7.000   8.418  1.5246 -2.8620  1.9356
    9SAPS     N 1065   1.290   1.719   6.376  0.5122  0.2311 -0.3709
    9SAPS   HN1 1066   1.219   1.735   6.451 -2.0255 -0.8143 -2.3720
    9SAPS   HN2 1067   1.356   1.643   6.402  1.3124  0.8380 -0.5971
    9SAPS   HN3 1068   1.343   1.808   6.367 -1.1274  1.2746 -0.2160
    9SAPS   C12 1069   1.218   1.675   6.245  0.7909  0.4510 -0.0027
    9SAPS  H12A 1070   1.128   1.733   6.232  0.8332  0.5123 -0.0249
    9SAPS   C13 1071   1.310   1.683   6.118 -0.1028 -0.5638 -0.0935
    9SAPS  O13A 1072   1.414   1.755   6.113 -0.2185 -0.0974 -0.1280
    9SAPS  O13B 1073   1.264   1.636   6.005  0.1149 -0.2892  0.5783
    9SAPS   C11 1074   1.181   1.524   6.275  0.3504  0.2145  0.6518
    9SAPS  H11A 1075   1.274   1.470   6.301 -0.6886 -1.0259  1.9734
    9SAPS  H11B 1076   1.134   1.485   6.182  1.2213  1.3188 -0.2842
    9SAPS     P 1077   1.003   1.389   6.420  0.2001 -0.2304  0.1997
    9SAPS   O13 1078   0.972   1.334   6.286 -0.3620 -0.6042  1.0120
    9SAPS   O14 1079   1.063   1.300   6.519 -0.7202 -0.2311  0.4026
    9SAPS   O12 1080   1.096   1.519   6.392  0.3564 -0.0764 -0.0448
    9SAPS   O11 1081   0.862   1.445   6.479  0.0104 -0.7290 -0.8780
    9SAPS    C1 1082   0.866   1.572   6.538  0.2192  0.5435 -0.0835
    9SAPS    HA 1083   0.929   1.651   6.492 -0.2548  0.7132 -0.4519
    9SAPS    HB 1084   0.764   1.614   6.534  0.8254  1.9844 -2.1893
    9SAPS    C2 1085   0.914   1.572   6.682  0.4241 -0.1151  0.2514
    9SAPS    HS 1086   1.025   1.577   6.675  0.6430  2.5736  3.2906
    9SAPS   O21 1087   0.885   1.442   6.739  0.3777  0.1033 -0.2416
    9SAPS   C21 1088   0.963   1.401   6.830 -0.1315 -0.3958  0.1896
    9SAPS   O22 1089   1.071   1.453   6.867 -0.7548 -0.0925  0.0738
    9SAPS   C22 1090   0.923   1.272   6.889  0.6684  0.0863 -0.1411
    9SAPS   H2R 1091   0.929   1.198   6.807  2.3588  0.9848 -0.8859
    9SAPS   H2S 1092   1.005   1.237   6.956 -0.2352 -0.5701  0.6468
    9SAPS    C3 1093   0.855   1.682   6.760  0.5096  0.3465  0.0535
    9SAPS    HX 1094   0.745   1.670   6.770  0.5153  0.8612  0.9204
    9SAPS    HY 1095   0.865   1.780   6.710 -0.3034  0.5921  0.3472
    9SAPS   O31 1096   0.895   1.681   6.904  0.0084 -0.0195 -0.3195
    9SAPS   C31 1097   1.017   1.736   6.926  0.4563 -0.0056 -0.2870
    9SAPS   O32 1098   1.100   1.770   6.845  0.4981 -0.0622 -0.2100
    9SAPS   C32 1099   1.037   1.751   7.074 -0.9302  0.0651  0.4709
    9SAPS   H2X 1100   0.952   1.707   7.131 -0.7148  1.2023  1.7157
    9SAPS   H2Y 1101   1.023   1.858   7.098 -0.3589  0.0707  0.7846
    9SAPS   C23 1102   0.784   1.279   6.962 -0.2367 -0.2485 -0.0776
    9SAPS   H3R 1103   0.759   1.184   7.015 -0.6765 -0.0698  0.0407
    9SAPS   H3S 1104   0.705   1.284   6.884  0.7350 -0.4615 -1.1029
    9SAPS   C24 1105   0.769   1.394   7.064  0.3701  0.2704  0.0650
    9SAPS   H4R 1106   0.666   1.404   7.105  0.2966 -0.2317  0.0017
    9SAPS   H4S 1107   0.784   1.487   7.004  1.2097 -0.3119 -0.6487
    9SAPS   C25 1108   0.874   1.398   7.173  1.0617  0.1071  0.1540
    9SAPS   H5R 1109   0.969   1.440   7.137  0.2760  0.4193 -1.7310
    9SAPS   C26 1110   0.871   1.368   7.305  0.1240 -0.9087  0.4696
    9SAPS   H6R 1111   0.965   1.367   7.361  0.5521 -0.2437 -0.2065
    9SAPS   C27 1112   0.748   1.320   7.372  0.0428  0.4468 -0.5422
    9SAPS   H7R 1113   0.686   1.246   7.317  0.5714  1.0744 -2.0177
    9SAPS   H7S 1114   0.680   1.404   7.396 -0.4062  0.4777 -1.8510
    9SAPS   C28 1115   0.794   1.250   7.503 -0.8561  0.8792  0.1867
    9SAPS   H8R 1116   0.836   1.149   7.492 -0.2049  0.6098  3.7780
    9SAPS   C29 1117   0.790   1.292   7.634 -0.3951 -0.0722  0.7503
    9SAPS   H9R 1118   0.833   1.226   7.711  1.9190 -0.2599 -0.6156
    9SAPS  C210 1119   0.728   1.425   7.675 -0.3516  0.6809 -0.4685
    9SAPS  H10R 1120   0.619   1.406   7.685 -0.4032  0.1381 -1.7867
    9SAPS  H10S 1121   0.732   1.501   7.594 -1.6815  0.8139 -0.4338
    9SAPS  C211 1122   0.784   1.479   7.805  0.5700  0.1282  0.0011
    9SAPS  H11R 1123   0.870   1.545   7.783  0.2853  0.9339  1.2379
    9SAPS  C212 1124   0.751   1.460   7.933  0.1403  0.4378 -0.1405
    9SAPS  H12R 1125   0.806   1.509   8.014  1.4157 -2.3081  0.7889
    9SAPS  C213 1126   0.643   1.367   7.966 -0.0217 -0.0713 -0.6025
    9SAPS  H13R 1127   0.696   1.287   8.021 -0.6139 -1.0997 -1.4862
    9SAPS  H13S 1128   0.591   1.329   7.875 -1.0208  1.0127 -0.5095
    9SAPS  C214 1129   0.535   1.423   8.051  0.0566  0.3277  0.4408
    9SAPS  H14R 1130   0.468   1.491   7.997 -0.3558  0.4509  1.0946
    9SAPS  C215 1131   0.524   1.403   8.184  0.6212 -0.5368 -0.4121
    9SAPS  H15R 1132   0.447   1.454   8.242 -0.3869  0.4556 -2.5293
    9SAPS  C216 1133   0.619   1.312   8.267 -0.1041  0.4587  0.0116
    9SAPS  H16R 1134   0.652   1.361   8.362  0.3886 -2.6716  1.5767
    9SAPS  H16S 1135   0.715   1.300   8.213 -0.9043 -0.8605 -1.1704
    9SAPS  C217 1136   0.569   1.171   8.298 -0.9118 -0.1407 -0.0586
    9SAPS  H17R 1137   0.594   1.100   8.216 -3.0364 -1.1787  0.1345
    9SAPS  H17S 1138   0.460   1.188   8.301 -1.0656 -0.4014 -2.3117
    9SAPS  C218 1139   0.629   1.103   8.415  0.8923  0.4988  0.3861
    9SAPS  H18R 1140   0.625   1.163   8.508  0.1029  1.1152 -0.0354
    9SAPS  H18S 1141   0.737   1.083   8.401  0.0457 -2.7492 -3.3863
    9SAPS  C219 1142   0.562   0.958   8.439  0.3858  0.4664 -0.3234
    9SAPS  H19R 1143   0.578   0.889   8.354 -0.8365  0.8133 -0.8533
    9SAPS  H19S 1144   0.452   0.968   8.435  0.1884 -1.3460 -0.3571
    9SAPS  C220 1145   0.602   0.902   8.577  0.2653  0.3588  0.1744
    9SAPS  H20R 1146   0.713   0.896   8.585  0.2934 -1.0191 -0.9142
    9SAPS  H20S 1147   0.548   0.810   8.606 -1.0184  1.6075  1.9190
    9SAPS  H20T 1148   0.571   0.976   8.654 -0.4395  0.8295 -0.5484
    9SAPS   C33 1149   1.178   1.704   7.116 -0.3396  0.6054 -0.8514
    9SAPS   H3X 1150   1.265   1.728   7.051 -1.2267 -0.0625 -2.3348
    9SAPS   H3Y 1151   1.169   1.593   7.121  0.6313  0.5106 -1.0413
    9SAPS   C34 1152   1.226   1.726   7.259  0.1455  0.6614  0.1710
    9SAPS   H4X 1153   1.255   1.833   7.271  1.2076  0.3242  0.7723
    9SAPS   H4Y 1154   1.317   1.662   7.262 -2.0641 -2.7525 -0.9717
    9SAPS   C35 1155   1.128   1.688   7.372  0.5234  0.4557  0.3871
    9SAPS   H5X 1156   1.104   1.580   7.367  1.5286  0.1143  2.1647
    9SAPS   H5Y 1157   1.027   1.734   7.359  0.7530  0.9271  0.2245
    9SAPS   C36 1158   1.195   1.715   7.509  0.3530 -0.0575 -0.7663
    9SAPS   H6X 1159   1.226   1.821   7.515 -0.4820  0.1131  1.3047
    9SAPS   H6Y 1160   1.284   1.652   7.529 -0.7188 -1.6672 -0.7992
    9SAPS   C37 1161   1.102   1.689   7.635 -1.0489  0.1403  0.0785
    9SAPS   H7X 1162   1.088   1.579   7.636 -0.7429  0.0908 -0.7819
    9SAPS   H7Y 1163   1.002   1.737   7.631 -2.1177 -1.8354  1.5011
    9SAPS   C38 1164   1.164   1.748   7.760  0.0592  0.5180 -0.1970
    9SAPS   H8X 1165   1.130   1.851   7.781  1.2813  1.1214 -1.0675
    9SAPS   H8Y 1166   1.275   1.749   7.751  0.2234  0.8913  1.5791
    9SAPS   C39 1167   1.128   1.659   7.884 -0.3067 -0.1258 -0.4064
    9SAPS   H9X 1168   1.166   1.555   7.880  0.7428  0.2772 -2.5334
    9SAPS   H9Y 1169   1.021   1.632   7.879  0.1337 -2.0585 -0.1042
    9SAPS  C310 1170   1.170   1.733   8.023  0.1424  0.0580  0.1789
    9SAPS  H10X 1171   1.096   1.811   8.047  0.0497 -0.6558  2.5163
    9SAPS  H10Y 1172   1.262   1.792   8.002  1.2203 -0.5952  2.6009
    9SAPS  C311 1173   1.185   1.633   8.142  0.1280 -0.5216 -0.3205
    9SAPS  H11X 1174   1.188   1.683   8.241 -0.6867 -1.6591  0.2979
    9SAPS  H11Y 1175   1.277   1.572   8.127  0.1060 -1.3965  2.4443
    9SAPS  C312 1176   1.071   1.529   8.159  0.1527 -0.3121 -0.2162
    9SAPS  H12X 1177   1.030   1.483   8.067 -0.9535  2.3988 -1.1820
    9SAPS  H12Y 1178   0.990   1.585   8.210  0.3674  1.2292 -1.4959
    9SAPS  C313 1179   1.127   1.424   8.255  0.4627  0.3146 -0.3559
    9SAPS  H13X 1180   1.195   1.469   8.329  0.2501 -0.9996  0.6837
    9SAPS  H13Y 1181   1.175   1.355   8.182 -0.1958  0.0163 -0.5164
    9SAPS  C314 1182   1.019   1.351   8.332  0.8265  0.0208  0.0247
    9SAPS  H14X 1183   0.960   1.277   8.274  1.2328  0.0643 -0.4490
    9SAPS  H14Y 1184   0.948   1.434   8.352  0.6732 -0.4928  1.8563
    9SAPS  C315 1185   1.077   1.288   8.461 -0.5926  0.7176 -0.5657
    9SAPS  H15X 1186   1.127   1.371   8.516 -1.1372  0.4030  0.4333
    9SAPS  H15Y 1187   1.152   1.211   8.434  0.1687  1.4061 -0.4469
    9SAPS  C316 1188   0.971   1.232   8.561  0.4104 -0.9630 -0.0680
    9SAPS  H16X 1189   0.916   1.140   8.531  1.7581 -2.5706  2.0783
    9SAPS  H16Y 1190   0.892   1.309   8.578  0.3406 -0.9525 -0.4331
    9SAPS  C317 1191   1.038   1.194   8.696  0.1067 -0.2476 -0.2253
    9SAPS  H17X 1192   1.085   1.283   8.741 -0.3280 -1.5297  3.0245
    9SAPS  H17Y 1193   1.123   1.127   8.671 -0.1634 -1.1340  1.1311
    9SAPS  C318 1194   0.942   1.124   8.792 -0.8468 -0.7766 -0.4502
    9SAPS  H18X 1195   0.848   1.182   8.798  1.0508  2.9495 -2.7091
    9SAPS  H18Y 1196   0.999   1.122   8.887  1.6155 -0.5343 -1.8293
    9SAPS  H18Z 1197   0.930   1.016   8.769 -1.2294 -1.2265  1.6809
   10SAPS     N 1198   1.631   1.903   6.131  0.2424 -0.0628  0.3237
   10SAPS   HN1 1199   1.541   1.855   6.150 -1.2311  2.2463 -0.3993
   10SAPS   HN2 1200   1.618   1.997   6.173  0.2122 -0.2776  0.7936
   10SAPS   HN3 1201   1.640   1.913   6.027 -1.8377  0.2007  0.1184
   10SAPS   C12 1202   1.755   1.847   6.189  1.0915 -0.0098 -0.0589
   10SAPS  H12A 1203   1.774   1.764   6.123 -0.2767  0.7140 -1.4309
   10SAPS   C13 1204   1.880   1.942   6.176  0.0619  1.0577 -0.5487
   10SAPS  O13A 1205   1.877   2.019   6.080 -0.3521 -0.1440  0.7323
   10SAPS  O13B 1206   1.986   1.896   6.217 -0.2704  0.1108 -0.0447
   10SAPS   C11 1207   1.737   1.814   6.336  0.1865  0.0261 -0.0143
   10SAPS  H11A 1208   1.743   1.901   6.405 -2.7499  1.2755 -1.1508
   10SAPS  H11B 1209   1.821   1.747   6.361 -1.6431 -2.4940 -0.1978
   10SAPS     P 1210   1.619   1.581   6.379 -0.0464 -0.1885 -0.2562
   10SAPS   O13 1211   1.489   1.537   6.439  1.0158  0.5840 -0.1075
   10SAPS   O14 1212   1.675   1.513   6.264  0.1303 -0.2311  0.2923
   10SAPS   O12 1213   1.612   1.740   6.353 -0.3292  0.8968 -0.4421
   10SAPS   O11 1214   1.731   1.571   6.492 -0.5051 -0.3449  0.1701
   10SAPS    C1 1215   1.724   1.657   6.608 -0.5238  0.1162  0.0615
   10SAPS    HA 1216   1.827   1.678   6.644 -0.7271 -1.0836  1.4182
   10SAPS    HB 1217   1.691   1.762   6.590 -0.4888  0.1885  0.3990
   10SAPS    C2 1218   1.641   1.608   6.729  0.3448 -0.1264  0.2830
   10SAPS    HS 1219   1.533   1.614   6.704  0.1503 -0.2362  1.0560
   10SAPS   O21 1220   1.661   1.705   6.832 -0.3953 -0.2597  0.3383
   10SAPS   C21 1221   1.561   1.737   6.913 -0.2425  0.1699  0.1110
   10SAPS   O22 1222   1.447   1.707   6.897  0.2591 -0.7970  0.0314
   10SAPS   C22 1223   1.617   1.831   7.026 -0.0747  0.0905  0.4257
   10SAPS   H2R 1224   1.684   1.774   7.093  0.1262 -1.2558 -0.8805
   10SAPS   H2S 1225   1.663   1.915   6.970 -0.3649 -1.3536 -2.1592
   10SAPS    C3 1226   1.675   1.459   6.762  0.4621 -0.0582  0.3949
   10SAPS    HX 1227   1.785   1.460   6.773  0.2791  0.1417  2.5501
   10SAPS    HY 1228   1.663   1.381   6.683  1.6995 -1.1900  1.2674
   10SAPS   O31 1229   1.619   1.433   6.894 -0.3656  0.5755 -0.1346
   10SAPS   C31 1230   1.502   1.372   6.899  0.9299 -0.6931 -0.2078
   10SAPS   O32 1231   1.442   1.326   6.807  0.6099  0.1238  0.6829
   10SAPS   C32 1232   1.454   1.363   7.044  0.2688 -0.0519  0.2558
   10SAPS   H2X 1233   1.450   1.465   7.090  0.6712 -0.6779  1.7388
   10SAPS   H2Y 1234   1.531   1.297   7.090  0.8936 -0.2551 -1.0263
   10SAPS   C23 1235   1.511   1.905   7.111 -0.1458  0.2720  0.2654
   10SAPS   H3R 1236   1.461   1.831   7.178 -0.8866  0.2952 -0.2520
   10SAPS   H3S 1237   1.439   1.952   7.041 -0.5435  0.7946  1.0068
   10SAPS   C24 1238   1.565   2.027   7.198  0.3169  0.2815  0.2730
   10SAPS   H4R 1239   1.470   2.077   7.228 -0.8687 -1.0941 -1.0445
   10SAPS   H4S 1240   1.616   2.099   7.131 -1.0766 -0.1955 -1.3762
   10SAPS   C25 1241   1.650   1.978   7.320 -0.0335 -0.1981 -0.7541
   10SAPS   H5R 1242   1.753   1.944   7.302 -0.1913 -1.2754  0.2771
   10SAPS   C26 1243   1.602   1.959   7.449  0.0777  0.6405  1.1894
   10SAPS   H6R 1244   1.675   1.929   7.525 -0.3287  1.0820  1.7697
   10SAPS   C27 1245   1.459   1.991   7.488 -0.2906 -0.1662  0.3642
   10SAPS   H7R 1246   1.386   1.919   7.446 -0.3060 -0.8733  1.5494
   10SAPS   H7S 1247   1.432   2.089   7.444 -0.1281 -0.9538 -1.5816
   10SAPS   C28 1248   1.429   1.999   7.636  0.1118 -1.1215 -0.6876
   10SAPS   H8R 1249   1.494   1.936   7.698 -0.6581 -1.6560 -0.4091
   10SAPS   C29 1250   1.338   2.079   7.699  0.0484 -0.4064 -0.4242
   10SAPS   H9R 1251   1.326   2.061   7.806  0.4564  0.9286 -0.1408
   10SAPS  C210 1252   1.245   2.180   7.626 -0.6326 -0.1426 -0.4876
   10SAPS  H10R 1253   1.138   2.178   7.658 -0.0318  1.4584  1.9542
   10SAPS  H10S 1254   1.249   2.160   7.517 -2.4770 -1.0362 -0.4218
   10SAPS  C211 1255   1.292   2.321   7.663  1.5463  0.2326  0.0333
   10SAPS  H11R 1256   1.344   2.335   7.758  2.5634 -2.8044  0.0255
   10SAPS  C212 1257   1.276   2.431   7.585 -0.7674  1.0279  0.3732
   10SAPS  H12R 1258   1.332   2.520   7.616  0.1608  0.6251 -0.0999
   10SAPS  C213 1259   1.209   2.441   7.450 -0.0690 -0.5120  0.3498
   10SAPS  H13R 1260   1.269   2.388   7.373 -0.6786 -2.4031  1.1177
   10SAPS  H13S 1261   1.207   2.549   7.426  0.4160 -0.2035  1.6439
   10SAPS  C214 1262   1.065   2.396   7.445 -0.2483  0.4608 -0.2631
   10SAPS  H14R 1263   0.997   2.403   7.531  2.0601  1.7728  1.5954
   10SAPS  C215 1264   1.017   2.331   7.338 -0.7171 -0.2007 -0.2112
   10SAPS  H15R 1265   0.913   2.297   7.349  0.0798 -2.7538  0.2356
   10SAPS  C216 1266   1.078   2.289   7.203  0.1966  0.1601  0.2219
   10SAPS  H16R 1267   1.168   2.345   7.168  0.8603 -1.2811 -0.4735
   10SAPS  H16S 1268   1.000   2.319   7.131 -0.5280  0.8436  1.2586
   10SAPS  C217 1269   1.116   2.133   7.194  0.1418 -0.2897 -0.5968
   10SAPS  H17R 1270   1.025   2.077   7.164  0.2211  0.6318 -2.7540
   10SAPS  H17S 1271   1.171   2.110   7.288  0.5140 -0.9352 -0.9621
   10SAPS  C218 1272   1.230   2.102   7.093  0.1540 -0.0277  0.1828
   10SAPS  H18R 1273   1.238   1.991   7.090 -1.1724 -0.1342 -1.3975
   10SAPS  H18S 1274   1.324   2.155   7.119 -1.0842  0.8384  3.3166
   10SAPS  C219 1275   1.200   2.145   6.940  0.1193  0.2046 -0.1054
   10SAPS  H19R 1276   1.182   2.254   6.946  0.4064  0.2814 -0.5341
   10SAPS  H19S 1277   1.104   2.097   6.911  0.1571 -0.2508  0.5189
   10SAPS  C220 1278   1.291   2.098   6.827 -0.1841  0.2679 -0.4599
   10SAPS  H20R 1279   1.293   1.987   6.824  1.0712  0.2550  0.2843
   10SAPS  H20S 1280   1.394   2.127   6.855 -0.5688 -0.7138  2.3583
   10SAPS  H20T 1281   1.258   2.139   6.729 -0.9140  0.2686 -0.2178
   10SAPS   C33 1282   1.314   1.289   7.057 -0.4423 -0.3753 -0.0679
   10SAPS   H3X 1283   1.304   1.206   6.984  3.3528 -1.2851  0.2925
   10SAPS   H3Y 1284   1.232   1.364   7.045 -0.3192  0.2081  2.2838
   10SAPS   C34 1285   1.306   1.228   7.197 -0.7574  1.1452 -0.4459
   10SAPS   H4X 1286   1.397   1.182   7.239 -0.4743  1.1971 -0.9919
   10SAPS   H4Y 1287   1.231   1.147   7.210  1.4568 -0.6616  2.4535
   10SAPS   C35 1288   1.263   1.334   7.300 -0.4074 -0.3356 -0.1408
   10SAPS   H5X 1289   1.156   1.359   7.284 -0.3406  0.0228 -0.0462
   10SAPS   H5Y 1290   1.320   1.427   7.275 -0.0821 -0.5194 -0.0918
   10SAPS   C36 1291   1.291   1.298   7.440  0.3440 -0.4641 -0.7375
   10SAPS   H6X 1292   1.260   1.380   7.509 -2.6866 -0.3396 -2.0802
   10SAPS   H6Y 1293   1.400   1.284   7.457  0.4033  2.7096  2.8142
   10SAPS   C37 1294   1.221   1.175   7.487  0.2356 -0.3205  0.4616
   10SAPS   H7X 1295   1.261   1.084   7.437  0.8393 -0.7318  1.6507
   10SAPS   H7Y 1296   1.113   1.179   7.461  0.2378 -0.4467  0.4322
   10SAPS   C38 1297   1.233   1.138   7.635 -0.4790  0.2888 -0.1313
   10SAPS   H8X 1298   1.338   1.118   7.666 -0.9824 -1.0156  0.8330
   10SAPS   H8Y 1299   1.180   1.041   7.643 -0.3544  0.2314  0.0163
   10SAPS   C39 1300   1.174   1.244   7.720  0.3704  0.3772 -0.2586
   10SAPS   H9X 1301   1.067   1.257   7.693  0.4586 -0.1431 -0.8869
   10SAPS   H9Y 1302   1.224   1.343   7.721 -1.5809  1.4073  0.0844
   10SAPS  C310 1303   1.173   1.212   7.870 -0.2086  0.2967 -0.5178
   10SAPS  H10X 1304   1.137   1.309   7.911 -0.2637 -0.4264  1.2292
   10SAPS  H10Y 1305   1.275   1.184   7.904 -0.8337  0.3168  1.5694
   10SAPS  C311 1306   1.082   1.101   7.916 -0.3164  0.3894  0.0238
   10SAPS  H11X 1307   1.109   1.000   7.879 -2.1544  0.8747 -2.9825
   10SAPS  H11Y 1308   0.979   1.116   7.876 -0.3142  0.7398  0.1456
   10SAPS  C312 1309   1.066   1.098   8.065 -0.7907  0.5847  0.2665
   10SAPS  H12X 1310   1.071   1.206   8.090  3.1031  0.9998 -1.5557
   10SAPS  H12Y 1311   1.165   1.065   8.104 -0.0172  0.5993 -1.5964
   10SAPS  C313 1312   0.943   1.024   8.120 -0.1178 -0.5773 -0.2560
   10SAPS  H13X 1313   0.859   1.048   8.052  1.4065  0.3072 -1.8911
   10SAPS  H13Y 1314   0.929   1.072   8.219 -0.6602 -0.4733 -0.3788
   10SAPS  C314 1315   0.957   0.873   8.132  0.6317 -0.2762  0.1817
   10SAPS  H14X 1316   0.984   0.813   8.042  1.0824  0.6491 -0.3187
   10SAPS  H14Y 1317   0.864   0.839   8.183  0.9594  0.7668  1.5304
   10SAPS  C315 1318   1.064   0.837   8.241  0.5340 -0.8124  0.2694
   10SAPS  H15X 1319   1.040   0.894   8.333  0.9460 -1.6014  0.8759
   10SAPS  H15Y 1320   1.164   0.865   8.201 -0.7855  1.6889 -1.5926
   10SAPS  C316 1321   1.058   0.692   8.283  0.0994  0.5104  0.5442
   10SAPS  H16X 1322   1.054   0.631   8.190 -0.1824 -0.1397  0.9794
   10SAPS  H16Y 1323   0.971   0.679   8.350  1.0154  0.8377  1.8249
   10SAPS  C317 1324   1.189   0.662   8.367  0.3274  0.4794 -0.3092
   10SAPS  H17X 1325   1.187   0.728   8.456 -1.4333 -0.4628  0.4073
   10SAPS  H17Y 1326   1.267   0.704   8.300 -0.3225  0.7360 -0.9262
   10SAPS  C318 1327   1.237   0.519   8.400  0.8973 -0.6082 -0.3975
   10SAPS  H18X 1328   1.201   0.450   8.320  0.4165  0.3418 -1.0258
   10SAPS  H18Y 1329   1.194   0.486   8.497  1.9264  1.0720  0.6817
   10SAPS  H18Z 1330   1.347   0.510   8.414  0.7727  0.7775  2.0308
   11SAPS     N 1331   1.716   5.118   5.721  0.1748 -0.1541  0.1134
   11SAPS   HN1 1332   1.699   5.142   5.821 -0.3990 -1.0945  0.2510
   11SAPS   HN2 1333   1.807   5.068   5.713  0.6600  0.6475  0.4644
   11SAPS   HN3 1334   1.715   5.205   5.664 -1.1132  0.5260  1.1128
   11SAPS   C12 1335   1.600   5.028   5.692  1.0068  0.3033  0.1690
   11SAPS  H12A 1336   1.512   5.074   5.736  0.6930  1.0417 -1.1617
   11SAPS   C13 1337   1.578   5.012   5.542 -0.1395  0.0670 -0.5964
   11SAPS  O13A 1338   1.653   5.068   5.458 -0.2576 -0.5068 -0.1257
   11SAPS  O13B 1339   1.504   4.917   5.503  0.2720  0.2059 -0.4276
   11SAPS   C11 1340   1.613   4.891   5.759 -0.4772  0.0958  0.4676
   11SAPS  H11A 1341   1.685   4.826   5.705 -1.1401 -1.7139  1.6811
   11SAPS  H11B 1342   1.514   4.843   5.747 -1.1115  1.7486 -1.3279
   11SAPS     P 1343   1.533   4.860   6.008  0.5516  1.0731 -0.4586
   11SAPS   O13 1344   1.482   4.988   6.062 -0.0046 -0.3896 -0.0247
   11SAPS   O14 1345   1.420   4.774   5.959  0.3454 -0.3914  0.0887
   11SAPS   O12 1346   1.635   4.893   5.901  0.3730  0.3586  0.3263
   11SAPS   O11 1347   1.614   4.782   6.127  0.0841  0.0635 -0.1252
   11SAPS    C1 1348   1.736   4.857   6.160  0.4994  0.3910  0.3095
   11SAPS    HA 1349   1.795   4.883   6.070  0.7680  1.0541  0.6723
   11SAPS    HB 1350   1.713   4.955   6.206 -1.9616 -0.0895  0.2461
   11SAPS    C2 1351   1.823   4.776   6.257  0.6917 -0.1849  0.0961
   11SAPS    HS 1352   1.830   4.679   6.204  1.6266 -0.0319 -0.0781
   11SAPS   O21 1353   1.754   4.761   6.379  0.2189  0.2935 -0.7026
   11SAPS   C21 1354   1.688   4.646   6.392 -0.3783 -0.0179  0.5738
   11SAPS   O22 1355   1.676   4.562   6.306  0.4190 -0.3687 -0.4130
   11SAPS   C22 1356   1.614   4.639   6.524 -0.1690  0.0906  0.2319
   11SAPS   H2R 1357   1.662   4.722   6.579  2.0950 -2.1993  2.0016
   11SAPS   H2S 1358   1.505   4.636   6.503  0.2736 -0.9759 -2.2818
   11SAPS    C3 1359   1.964   4.837   6.279  0.1460 -0.0336 -0.1904
   11SAPS    HX 1360   1.941   4.934   6.328  0.2789 -0.3233  0.4640
   11SAPS    HY 1361   2.019   4.847   6.183 -0.0013  1.5550 -0.1400
   11SAPS   O31 1362   2.035   4.757   6.377  0.1806  0.1673 -0.2211
   11SAPS   C31 1363   2.095   4.650   6.333  0.3010 -0.0594  0.6078
   11SAPS   O32 1364   2.089   4.606   6.217 -0.3448 -0.6920 -0.3238
   11SAPS   C32 1365   2.159   4.579   6.450  0.3601 -0.0535  0.2385
   11SAPS   H2X 1366   2.098   4.603   6.540 -0.3852 -1.8896  0.2579
   11SAPS   H2Y 1367   2.262   4.618   6.459  1.6856 -3.3977  1.1378
   11SAPS   C23 1368   1.627   4.519   6.614 -0.0528  0.1325  0.2402
   11SAPS   H3R 1369   1.602   4.423   6.564  4.0641 -2.1034  2.0259
   11SAPS   H3S 1370   1.547   4.532   6.690  1.3548  0.4986  1.7089
   11SAPS   C24 1371   1.758   4.509   6.691 -0.2511  0.3770  0.0811
   11SAPS   H4R 1372   1.772   4.600   6.754 -0.0468  0.4081 -0.0095
   11SAPS   H4S 1373   1.839   4.509   6.615 -0.2022  1.6139  0.1030
   11SAPS   C25 1374   1.765   4.378   6.767  0.0532 -0.2968  0.2457
   11SAPS   H5R 1375   1.803   4.293   6.708 -0.2065  0.7371 -1.5025
   11SAPS   C26 1376   1.742   4.355   6.893 -0.2144  0.7577  0.2638
   11SAPS   H6R 1377   1.754   4.250   6.924 -1.6126  0.5917  0.3109
   11SAPS   C27 1378   1.703   4.450   6.999 -0.0381  0.2913  0.3049
   11SAPS   H7R 1379   1.659   4.544   6.959  0.4606  0.5307  0.3136
   11SAPS   H7S 1380   1.789   4.474   7.064 -0.3312  0.1538  0.7528
   11SAPS   C28 1381   1.601   4.384   7.093 -0.3058  0.1048 -0.2089
   11SAPS   H8R 1382   1.515   4.353   7.032 -0.2459 -0.6999  0.1113
   11SAPS   C29 1383   1.601   4.363   7.226 -0.0104 -0.2818 -0.1075
   11SAPS   H9R 1384   1.509   4.315   7.262 -0.8457  1.0881 -0.3277
   11SAPS  C210 1385   1.699   4.404   7.335 -0.3385  0.2290 -0.2837
   11SAPS  H10R 1386   1.645   4.385   7.430 -2.1243 -0.5031 -1.3913
   11SAPS  H10S 1387   1.720   4.513   7.328  1.5741 -0.1993 -2.6548
   11SAPS  C211 1388   1.825   4.327   7.339  0.0451 -0.4066 -0.0422
   11SAPS  H11R 1389   1.849   4.266   7.250 -1.7487 -1.3822  0.0909
   11SAPS  C212 1390   1.916   4.323   7.442 -0.2250 -0.3487 -0.5334
   11SAPS  H12R 1391   1.991   4.243   7.435  0.3069 -0.0287  1.0340
   11SAPS  C213 1392   1.901   4.401   7.570 -0.2247 -0.7992 -0.2745
   11SAPS  H13R 1393   1.880   4.508   7.549  2.5374 -0.4006 -1.4690
   11SAPS  H13S 1394   2.004   4.414   7.611 -0.3653 -0.4526 -0.0327
   11SAPS  C214 1395   1.812   4.333   7.670 -0.3199  0.6942 -0.5706
   11SAPS  H14R 1396   1.747   4.257   7.624  0.2022 -0.1214  0.0117
   11SAPS  C215 1397   1.829   4.334   7.803  0.0030 -0.2306 -0.2970
   11SAPS  H15R 1398   1.767   4.263   7.860  2.8107 -0.6771  2.4836
   11SAPS  C216 1399   1.940   4.407   7.879 -0.4854 -0.9870 -0.0609
   11SAPS  H16R 1400   1.973   4.495   7.820  0.0512 -1.5650 -0.6337
   11SAPS  H16S 1401   2.032   4.346   7.877 -0.2773 -0.6681 -0.5765
   11SAPS  C217 1402   1.909   4.436   8.020  0.2950  0.4659 -0.0508
   11SAPS  H17R 1403   1.805   4.475   8.020  0.5705  1.3215  1.7341
   11SAPS  H17S 1404   1.974   4.516   8.062  1.0467 -1.1673  2.0624
   11SAPS  C218 1405   1.906   4.318   8.119  0.5254 -0.3585 -0.0139
   11SAPS  H18R 1406   2.009   4.280   8.135  0.1156 -1.7227 -0.4195
   11SAPS  H18S 1407   1.851   4.228   8.082  0.3807 -1.0216  1.7485
   11SAPS  C219 1408   1.840   4.366   8.249  0.0474  0.5117  0.1197
   11SAPS  H19R 1409   1.734   4.386   8.223  0.5686  1.3975 -1.4737
   11SAPS  H19S 1410   1.895   4.458   8.280  0.3537  0.4856 -0.3339
   11SAPS  C220 1411   1.846   4.264   8.363 -0.0775  0.1146 -0.9426
   11SAPS  H20R 1412   1.953   4.263   8.395  0.3176  1.1766 -2.1542
   11SAPS  H20S 1413   1.816   4.160   8.337  1.4186  0.0186 -2.5154
   11SAPS  H20T 1414   1.779   4.303   8.442 -2.9247 -3.1699 -1.4828
   11SAPS   C33 1415   2.171   4.422   6.431  0.0041  0.1493  0.3673
   11SAPS   H3X 1416   2.227   4.397   6.338 -1.2202 -0.0690 -0.3409
   11SAPS   H3Y 1417   2.069   4.378   6.428 -0.7704  1.8853 -0.7006
   11SAPS   C34 1418   2.240   4.353   6.554  0.0800 -0.0751 -0.4716
   11SAPS   H4X 1419   2.338   4.403   6.566 -0.9545  1.8380  0.5486
   11SAPS   H4Y 1420   2.256   4.248   6.523 -0.4211 -0.6938  1.2154
   11SAPS   C35 1421   2.156   4.367   6.679 -0.2902 -0.0809  0.2938
   11SAPS   H5X 1422   2.047   4.346   6.666 -0.5772  1.7232 -0.5086
   11SAPS   H5Y 1423   2.158   4.468   6.725  0.3596 -0.2963  0.7514
   11SAPS   C36 1424   2.208   4.275   6.788 -0.3781  0.4753 -0.8737
   11SAPS   H6X 1425   2.313   4.309   6.800 -1.0754  2.6069 -0.3963
   11SAPS   H6Y 1426   2.203   4.170   6.752 -0.5221  0.6222 -1.2938
   11SAPS   C37 1427   2.132   4.293   6.918 -0.7201  0.0482 -0.5930
   11SAPS   H7X 1428   2.023   4.271   6.909 -0.6453 -0.0452 -1.3556
   11SAPS   H7Y 1429   2.143   4.399   6.948  0.5784 -0.9607  2.9073
   11SAPS   C38 1430   2.203   4.214   7.033 -0.0743 -0.0379  0.0886
   11SAPS   H8X 1431   2.299   4.266   7.052 -0.8314  0.4073  3.3031
   11SAPS   H8Y 1432   2.211   4.107   7.004  0.4139  0.1094 -0.3273
   11SAPS   C39 1433   2.128   4.228   7.162 -0.3939  0.6641  0.3619
   11SAPS   H9X 1434   2.028   4.185   7.138  0.4061  0.4148 -3.1887
   11SAPS   H9Y 1435   2.104   4.333   7.189  2.3922  1.3547  0.4063
   11SAPS  C310 1436   2.196   4.161   7.280 -0.3505  0.2782  0.3556
   11SAPS  H10X 1437   2.276   4.089   7.252  0.1433  1.1659 -0.5652
   11SAPS  H10Y 1438   2.114   4.112   7.338 -0.1483  0.7989  1.0966
   11SAPS  C311 1439   2.269   4.260   7.376 -0.6647  0.1694  0.0972
   11SAPS  H11X 1440   2.214   4.356   7.386 -3.1383 -1.2179  0.6245
   11SAPS  H11Y 1441   2.372   4.280   7.338 -0.3787 -1.4968 -0.0897
   11SAPS  C312 1442   2.266   4.198   7.520  0.0654 -0.3831 -0.0695
   11SAPS  H12X 1443   2.330   4.109   7.536 -0.1611 -0.5133  0.1158
   11SAPS  H12Y 1444   2.163   4.159   7.535 -0.9531  0.9786 -2.8095
   11SAPS  C313 1445   2.288   4.297   7.640 -0.1982 -0.4465 -0.2434
   11SAPS  H13X 1446   2.268   4.237   7.731  0.8674 -0.0508  0.2617
   11SAPS  H13Y 1447   2.218   4.383   7.638 -1.5594 -1.4272  1.6256
   11SAPS  C314 1448   2.439   4.330   7.664  0.6788  0.1589  0.1604
   11SAPS  H14X 1449   2.489   4.380   7.579  0.0621  1.0908  0.3340
   11SAPS  H14Y 1450   2.488   4.231   7.652 -0.2538 -0.0930 -2.1558
   11SAPS  C315 1451   2.478   4.392   7.800  0.4521 -0.6206  0.1210
   11SAPS  H15X 1452   2.447   4.498   7.791 -1.3646 -1.2093 -1.1859
   11SAPS  H15Y 1453   2.589   4.383   7.803  0.4639 -0.2118  1.4613
   11SAPS  C316 1454   2.427   4.324   7.930  0.9977 -0.6094  0.0154
   11SAPS  H16X 1455   2.449   4.218   7.908  1.7663 -0.5833  0.6404
   11SAPS  H16Y 1456   2.317   4.339   7.940  1.0137  0.0912 -0.7405
   11SAPS  C317 1457   2.484   4.367   8.061  0.0311 -0.1713 -0.5567
   11SAPS  H17X 1458   2.500   4.476   8.045  2.6060 -0.2476  0.8949
   11SAPS  H17Y 1459   2.589   4.330   8.068 -0.2425 -0.8463 -0.0162
   11SAPS  C318 1460   2.391   4.362   8.178 -0.0212 -0.0099 -0.0101
   11SAPS  H18X 1461   2.435   4.421   8.261 -1.3776 -1.2406  1.6713
   11SAPS  H18Y 1462   2.395   4.258   8.217 -2.6152 -0.6536 -1.2386
   11SAPS  H18Z 1463   2.289   4.403   8.159 -0.1571  0.6123  1.8559
   12SAPS     N 1464   1.529   5.595   5.914  0.0386  0.0742  0.2955
   12SAPS   HN1 1465   1.511   5.697   5.899 -3.8782 -0.6390 -1.0852
   12SAPS   HN2 1466   1.542   5.573   6.015 -2.2970  0.7354  0.7999
   12SAPS   HN3 1467   1.606   5.565   5.851 -1.1811 -0.2337 -1.1254
   12SAPS   C12 1468   1.410   5.517   5.885 -0.0501 -0.4926  0.5337
   12SAPS  H12A 1469   1.327   5.583   5.906 -0.8714 -1.2998 -0.1249
   12SAPS   C13 1470   1.403   5.473   5.736 -0.6198 -0.1033 -0.5595
   12SAPS  O13A 1471   1.494   5.506   5.653  0.1463 -0.3753  0.1761
   12SAPS  O13B 1472   1.327   5.374   5.707 -0.0153  0.0301 -0.3310
   12SAPS   C11 1473   1.393   5.392   5.970  0.0132  0.1880 -0.2536
   12SAPS  H11A 1474   1.479   5.330   5.938 -0.8318 -0.8048 -0.6767
   12SAPS  H11B 1475   1.306   5.325   5.951 -0.7703  1.0559  0.1819
   12SAPS     P 1476   1.270   5.429   6.194 -0.1334 -0.1335 -0.2188
   12SAPS   O13 1477   1.179   5.535   6.148 -0.6910  0.2319  0.5266
   12SAPS   O14 1478   1.219   5.287   6.190 -0.6719 -0.5985  0.7027
   12SAPS   O12 1479   1.398   5.436   6.111  0.1738  0.0988 -0.1124
   12SAPS   O11 1480   1.319   5.458   6.336  0.1313 -0.1032  0.3616
   12SAPS    C1 1481   1.448   5.494   6.384 -0.4448 -0.5899 -0.5747
   12SAPS    HA 1482   1.534   5.481   6.314  0.8935 -0.5378  0.9902
   12SAPS    HB 1483   1.448   5.601   6.411  1.0055 -1.5027  3.8987
   12SAPS    C2 1484   1.478   5.419   6.518 -0.0336  0.1082  0.8961
   12SAPS    HS 1485   1.567   5.465   6.566 -0.2363 -0.8015  2.2058
   12SAPS   O21 1486   1.502   5.278   6.493  0.3842  1.0272  0.2747
   12SAPS   C21 1487   1.618   5.253   6.430 -0.0283 -0.5616 -0.2954
   12SAPS   O22 1488   1.694   5.338   6.387 -0.1096 -0.3855 -0.0661
   12SAPS   C22 1489   1.651   5.104   6.438 -0.1092 -0.0030  0.0760
   12SAPS   H2R 1490   1.566   5.039   6.470  0.7772 -1.0012  0.5055
   12SAPS   H2S 1491   1.704   5.081   6.343  1.1130  0.2254  0.6756
   12SAPS    C3 1492   1.357   5.420   6.608 -0.0134 -0.1421 -0.0080
   12SAPS    HX 1493   1.290   5.355   6.547 -0.3818  0.3614 -0.1440
   12SAPS    HY 1494   1.313   5.522   6.617  0.8226  0.0997  2.0663
   12SAPS   O31 1495   1.379   5.357   6.741  0.1269 -0.1056  0.2058
   12SAPS   C31 1496   1.276   5.304   6.803  0.5383  0.3167 -0.3846
   12SAPS   O32 1497   1.158   5.314   6.771 -0.8616  0.0883 -0.0498
   12SAPS   C32 1498   1.328   5.219   6.924 -0.4425 -0.3132 -0.1922
   12SAPS   H2X 1499   1.436   5.241   6.934 -0.9880  1.7036  2.1506
   12SAPS   H2Y 1500   1.304   5.111   6.910 -0.8650 -0.0320 -1.9662
   12SAPS   C23 1501   1.752   5.083   6.552 -0.6988  0.3690 -1.3949
   12SAPS   H3R 1502   1.854   5.126   6.541  1.2340 -2.1413  3.6929
   12SAPS   H3S 1503   1.771   4.974   6.557  0.8213  0.6562  1.0125
   12SAPS   C24 1504   1.693   5.125   6.690 -0.1063  0.3353 -0.5189
   12SAPS   H4R 1505   1.603   5.068   6.719 -0.5521  0.9353 -0.7048
   12SAPS   H4S 1506   1.672   5.234   6.684 -1.4445  0.2009  1.1605
   12SAPS   C25 1507   1.802   5.097   6.794  0.6930 -0.2195  0.3100
   12SAPS   H5R 1508   1.892   5.160   6.789  1.1448 -0.9361 -1.3084
   12SAPS   C26 1509   1.808   4.993   6.871  0.6069  0.3873  0.5359
   12SAPS   H6R 1510   1.883   5.000   6.951  1.3773  1.6078 -0.2536
   12SAPS   C27 1511   1.713   4.873   6.865  0.1506 -0.2135 -0.7360
   12SAPS   H7R 1512   1.773   4.789   6.904  3.2517  1.4870 -1.4889
   12SAPS   H7S 1513   1.680   4.850   6.761  0.3277  1.1963 -1.1350
   12SAPS   C28 1514   1.583   4.902   6.940 -0.2321 -0.3691  0.3760
   12SAPS   H8R 1515   1.511   4.971   6.893 -0.6591 -0.1937  1.2529
   12SAPS   C29 1516   1.553   4.862   7.067  0.2429 -0.0362  0.3780
   12SAPS   H9R 1517   1.468   4.911   7.116 -1.2135  0.1110 -2.1275
   12SAPS  C210 1518   1.639   4.781   7.160  0.2215  0.2286  0.2497
   12SAPS  H10R 1519   1.720   4.728   7.106  0.4148 -0.1330  0.8764
   12SAPS  H10S 1520   1.576   4.700   7.204  0.2363 -0.1386 -0.3927
   12SAPS  C211 1521   1.703   4.870   7.266  0.6763  0.5396 -0.1843
   12SAPS  H11R 1522   1.783   4.935   7.227  0.3104  0.3176 -1.3470
   12SAPS  C212 1523   1.693   4.858   7.401 -1.2168 -0.0875  0.1409
   12SAPS  H12R 1524   1.752   4.931   7.458  1.9321 -1.5356 -1.0615
   12SAPS  C213 1525   1.611   4.767   7.480 -0.0991  0.5369 -0.5623
   12SAPS  H13R 1526   1.591   4.674   7.423  2.0164  0.7551 -1.7433
   12SAPS  H13S 1527   1.505   4.799   7.490 -0.0393  0.3665  0.7039
   12SAPS  C214 1528   1.663   4.731   7.618  0.3485  0.1828 -0.3028
   12SAPS  H14R 1529   1.687   4.624   7.632  1.0294  0.5450  1.6965
   12SAPS  C215 1530   1.677   4.821   7.719 -0.2470 -0.1269 -0.2825
   12SAPS  H15R 1531   1.720   4.773   7.807 -2.7038  0.4606  1.3368
   12SAPS  C216 1532   1.653   4.969   7.727 -0.3197 -0.4465  0.5630
   12SAPS  H16R 1533   1.574   4.980   7.805  0.8091  1.4452  1.5024
   12SAPS  H16S 1534   1.611   5.015   7.635  0.9746  2.0908  1.1728
   12SAPS  C217 1535   1.779   5.059   7.764 -0.4765 -0.0298 -0.4761
   12SAPS  H17R 1536   1.745   5.165   7.758 -2.5649 -0.6073  0.4433
   12SAPS  H17S 1537   1.866   5.038   7.699 -0.7519  1.1634 -1.2666
   12SAPS  C218 1538   1.820   5.053   7.913 -0.3950  0.0521 -0.0800
   12SAPS  H18R 1539   1.899   4.976   7.929  0.7351  0.7471 -1.9450
   12SAPS  H18S 1540   1.740   5.028   7.985 -1.1529 -0.0003 -0.9285
   12SAPS  C219 1541   1.890   5.186   7.955  0.1525  0.0793  0.1145
   12SAPS  H19R 1542   1.828   5.277   7.937 -1.9349 -1.1719  0.6235
   12SAPS  H19S 1543   1.972   5.193   7.880 -0.6811 -2.2077 -1.1058
   12SAPS  C220 1544   1.945   5.181   8.101 -0.1449  0.2325  0.2440
   12SAPS  H20R 1545   1.862   5.185   8.174  0.5807 -0.9653  1.1706
   12SAPS  H20S 1546   2.021   5.262   8.110 -0.0365  0.7438 -3.4555
   12SAPS  H20T 1547   1.995   5.082   8.115  1.5386  0.7167 -1.7927
   12SAPS   C33 1548   1.253   5.251   7.056  0.0536 -0.6311  0.0591
   12SAPS   H3X 1549   1.148   5.216   7.044 -1.5687  3.6739 -0.2614
   12SAPS   H3Y 1550   1.241   5.361   7.071 -0.0054 -0.6088 -0.1474
   12SAPS   C34 1551   1.311   5.185   7.185 -0.4519  1.0808  0.0866
   12SAPS   H4X 1552   1.408   5.227   7.220 -0.7411  1.3161  0.6103
   12SAPS   H4Y 1553   1.324   5.075   7.169  1.3248  0.9801  1.8595
   12SAPS   C35 1554   1.224   5.193   7.311  0.1173 -0.1766  0.3559
   12SAPS   H5X 1555   1.120   5.167   7.285  0.1636 -3.0840  2.5771
   12SAPS   H5Y 1556   1.214   5.299   7.345 -2.1512 -0.0382 -0.6188
   12SAPS   C36 1557   1.292   5.096   7.411 -0.3438 -0.2904 -0.2007
   12SAPS   H6X 1558   1.396   5.127   7.431 -0.1954 -1.6691  1.3278
   12SAPS   H6Y 1559   1.313   4.995   7.371 -2.0617 -0.0215 -1.9553
   12SAPS   C37 1560   1.214   5.085   7.550 -0.0532  0.5635  0.6873
   12SAPS   H7X 1561   1.108   5.063   7.526  0.3469 -0.4797 -0.2394
   12SAPS   H7Y 1562   1.211   5.185   7.597  2.3422  0.3912  1.3193
   12SAPS   C38 1563   1.274   4.972   7.634  0.5693  0.4641  0.1916
   12SAPS   H8X 1564   1.377   4.993   7.668  0.9934 -1.3979  0.1493
   12SAPS   H8Y 1565   1.270   4.879   7.573  3.2668  0.3376  0.0942
   12SAPS   C39 1566   1.200   4.957   7.770 -0.3413 -0.8254 -0.2108
   12SAPS   H9X 1567   1.092   4.939   7.751 -0.1758 -1.4940 -0.5635
   12SAPS   H9Y 1568   1.202   5.048   7.834 -3.5971  0.7497 -2.0848
   12SAPS  C310 1569   1.270   4.837   7.837 -0.2499  0.4040 -0.1189
   12SAPS  H10X 1570   1.378   4.857   7.849  0.3227 -2.2786 -0.2031
   12SAPS  H10Y 1571   1.271   4.758   7.759 -0.1906  1.0422 -0.7778
   12SAPS  C311 1572   1.213   4.794   7.969 -0.1362  0.5102 -0.6330
   12SAPS  H11X 1573   1.217   4.881   8.038  2.1128  1.3996 -1.7899
   12SAPS  H11Y 1574   1.287   4.717   8.000 -2.6991 -2.1239 -0.5689
   12SAPS  C312 1575   1.072   4.734   7.960  0.0418 -0.9399 -0.4494
   12SAPS  H12X 1576   1.070   4.658   7.879 -3.2924  0.5445 -1.9373
   12SAPS  H12Y 1577   0.999   4.810   7.925  1.1826  0.5016  0.2142
   12SAPS  C313 1578   1.026   4.679   8.094  0.4011  0.0041  0.2432
   12SAPS  H13X 1579   0.918   4.654   8.079  0.5404 -0.4963  0.0349
   12SAPS  H13Y 1580   1.033   4.753   8.176 -0.8995  1.4332 -0.8669
   12SAPS  C314 1581   1.089   4.540   8.138 -0.2654 -0.0156 -0.5050
   12SAPS  H14X 1582   1.191   4.557   8.178 -0.4142  1.2243 -0.6162
   12SAPS  H14Y 1583   1.101   4.466   8.056  0.4785 -0.3889 -0.0667
   12SAPS  C315 1584   1.013   4.480   8.253  0.2207 -0.0079 -0.2345
   12SAPS  H15X 1585   0.907   4.465   8.227  0.0962 -1.5227  0.9796
   12SAPS  H15Y 1586   1.019   4.552   8.337  0.7794 -1.2724  0.8462
   12SAPS  C316 1587   1.060   4.338   8.289 -0.7778  0.8469  0.9615
   12SAPS  H16X 1588   1.168   4.349   8.314 -0.3858 -0.1522 -0.1540
   12SAPS  H16Y 1589   1.051   4.277   8.196 -0.5111 -1.1636  2.2047
   12SAPS  C317 1590   0.979   4.264   8.394  0.5840 -0.1606 -0.0919
   12SAPS  H17X 1591   0.986   4.155   8.377  2.6711  0.2328 -2.1971
   12SAPS  H17Y 1592   0.874   4.298   8.381  0.8601  1.2246  0.9826
   12SAPS  C318 1593   1.018   4.291   8.540 -0.0239  0.2128  0.5807
   12SAPS  H18X 1594   0.980   4.393   8.557  1.1163  0.6075  0.8249
   12SAPS  H18Y 1595   1.126   4.299   8.564 -0.3672  0.2803  2.2103
   12SAPS  H18Z 1596   0.982   4.215   8.613  1.1097 -1.2530 -0.3106
   13SAPS     N 1597   2.090   2.156   5.955  0.1714 -0.1546  0.1888
   13SAPS   HN1 1598   1.999   2.117   5.987 -0.3480  1.0690  0.2601
   13SAPS   HN2 1599   2.123   2.103   5.872 -3.5180 -3.1354  0.3985
   13SAPS   HN3 1600   2.155   2.137   6.035  0.7625 -0.2514 -0.3047
   13SAPS   C12 1601   2.077   2.307   5.927 -1.2619  0.1653  0.7215
   13SAPS  H12A 1602   2.175   2.338   5.896 -1.3428  0.3092  0.6145
   13SAPS   C13 1603   1.992   2.332   5.804  0.4247 -0.2062  0.5649
   13SAPS  O13A 1604   1.935   2.236   5.747  0.2317  0.3244  0.0098
   13SAPS  O13B 1605   1.960   2.455   5.771 -0.3507  0.1733  0.0657
   13SAPS   C11 1606   2.032   2.383   6.057 -0.1493 -0.3324 -0.0979
   13SAPS  H11A 1607   1.929   2.356   6.089 -0.4249  0.0687 -0.6325
   13SAPS  H11B 1608   2.024   2.488   6.021  0.3651  0.2320  1.3456
   13SAPS     P 1609   2.244   2.461   6.175  0.2596  0.0156 -0.0796
   13SAPS   O13 1610   2.357   2.384   6.237  0.2962 -0.0371 -0.8629
   13SAPS   O14 1611   2.275   2.513   6.039  0.9729  0.4398 -0.6350
   13SAPS   O12 1612   2.121   2.366   6.163 -0.3882  0.8069  0.1712
   13SAPS   O11 1613   2.204   2.577   6.272 -0.2466 -0.3008  0.1939
   13SAPS    C1 1614   2.075   2.620   6.305 -0.2642  0.4822  0.1236
   13SAPS    HA 1615   2.045   2.696   6.230  2.4579 -1.1104 -2.8229
   13SAPS    HB 1616   1.990   2.549   6.296 -0.7231  0.8136  1.5034
   13SAPS    C2 1617   2.076   2.682   6.440 -0.2572  0.0112 -0.2548
   13SAPS    HS 1618   2.158   2.757   6.433  0.7615 -1.1190 -0.6656
   13SAPS   O21 1619   2.106   2.578   6.539  0.6313 -0.3879 -0.1379
   13SAPS   C21 1620   2.170   2.624   6.637 -0.5402 -0.2109  0.3121
   13SAPS   O22 1621   2.199   2.740   6.664  0.0430 -0.5576 -0.1185
   13SAPS   C22 1622   2.179   2.517   6.741  0.6839  0.5844 -1.1300
   13SAPS   H2R 1623   2.073   2.496   6.767  0.9300  0.5153 -0.1506
   13SAPS   H2S 1624   2.218   2.421   6.699  0.8581  0.5565 -0.9109
   13SAPS    C3 1625   1.948   2.756   6.476  0.0753  0.5222 -0.1989
   13SAPS    HX 1626   1.932   2.838   6.401 -0.2905  0.4096 -0.2444
   13SAPS    HY 1627   1.968   2.798   6.576  1.9285  0.0890 -0.3486
   13SAPS   O31 1628   1.831   2.669   6.469  0.0741 -0.2909  0.0494
   13SAPS   C31 1629   1.792   2.615   6.584 -0.2447  0.5520  0.5099
   13SAPS   O32 1630   1.851   2.627   6.690 -0.2441 -0.5776  0.6036
   13SAPS   C32 1631   1.661   2.542   6.574  0.6308 -0.5720  0.2499
   13SAPS   H2X 1632   1.672   2.433   6.591  0.7218 -0.6240 -0.1391
   13SAPS   H2Y 1633   1.608   2.566   6.479 -0.6519  4.4645  1.9040
   13SAPS   C23 1634   2.281   2.569   6.847  0.0080  0.1849  0.6111
   13SAPS   H3R 1635   2.223   2.654   6.888 -0.0923  2.0306 -2.9219
   13SAPS   H3S 1636   2.366   2.604   6.784  0.2810  0.4642  1.1348
   13SAPS   C24 1637   2.312   2.466   6.964 -0.1772 -0.5703  0.3372
   13SAPS   H4R 1638   2.366   2.378   6.925 -1.1257 -0.0126 -2.5604
   13SAPS   H4S 1639   2.216   2.426   7.002  0.1510 -2.7370 -0.9560
   13SAPS   C25 1640   2.398   2.537   7.068  0.1062  0.5763  0.4512
   13SAPS   H5R 1641   2.429   2.639   7.039 -0.2998  0.6245  0.1742
   13SAPS   C26 1642   2.422   2.483   7.188 -0.1864 -0.6107  0.8674
   13SAPS   H6R 1643   2.479   2.544   7.259  1.5343  0.2863 -1.1593
   13SAPS   C27 1644   2.365   2.351   7.236  0.1519  0.1655  0.0976
   13SAPS   H7R 1645   2.286   2.304   7.175  0.8235 -0.6218 -0.1786
   13SAPS   H7S 1646   2.325   2.366   7.339  2.3094 -0.6909  1.1227
   13SAPS   C28 1647   2.463   2.235   7.246 -0.2029  0.0744 -0.4587
   13SAPS   H8R 1648   2.473   2.174   7.155 -1.9881 -0.7828 -0.1324
   13SAPS   C29 1649   2.552   2.200   7.344 -0.3019 -0.3039 -0.1410
   13SAPS   H9R 1650   2.612   2.112   7.320  1.1917  0.0183  2.0909
   13SAPS  C210 1651   2.580   2.275   7.474 -0.8886 -0.5328  0.0027
   13SAPS  H10R 1652   2.604   2.195   7.548 -0.8385  0.7989  1.4696
   13SAPS  H10S 1653   2.494   2.329   7.520 -1.2740 -2.2874  1.4653
   13SAPS  C211 1654   2.696   2.371   7.447 -0.2980  0.0468 -0.1187
   13SAPS  H11R 1655   2.691   2.436   7.358  0.6035  0.2194 -0.0575
   13SAPS  C212 1656   2.790   2.385   7.543 -0.0346 -0.7003  0.2792
   13SAPS  H12R 1657   2.868   2.460   7.524 -1.3881  0.9075  0.8564
   13SAPS  C213 1658   2.779   2.315   7.683  0.2974  0.7291  0.2686
   13SAPS  H13R 1659   2.818   2.210   7.679 -0.8662  0.2974 -0.0850
   13SAPS  H13S 1660   2.673   2.300   7.711  0.4322 -3.6408 -0.7267
   13SAPS  C214 1661   2.849   2.398   7.786  0.4245  0.6052 -0.2313
   13SAPS  H14R 1662   2.957   2.412   7.771  0.7804 -2.2225 -0.8393
   13SAPS  C215 1663   2.799   2.444   7.902 -0.2153 -0.0761  0.4990
   13SAPS  H15R 1664   2.865   2.503   7.967 -0.7813  0.4164  0.6365
   13SAPS  C216 1665   2.661   2.429   7.955  0.1537  0.6874  0.0881
   13SAPS  H16R 1666   2.585   2.370   7.900  0.8465  0.0480 -0.2046
   13SAPS  H16S 1667   2.619   2.532   7.958 -0.1343  0.5609  0.4358
   13SAPS  C217 1668   2.670   2.378   8.095  0.1081 -0.0392 -0.0875
   13SAPS  H17R 1669   2.729   2.450   8.155  1.0948  0.5159 -1.6609
   13SAPS  H17S 1670   2.711   2.275   8.088  0.7109  0.1932 -0.0420
   13SAPS  C218 1671   2.532   2.369   8.155 -0.4374 -0.2456  0.1197
   13SAPS  H18R 1672   2.458   2.327   8.084 -0.6362  0.9304 -0.3842
   13SAPS  H18S 1673   2.495   2.470   8.182 -2.0529 -0.6426 -0.4883
   13SAPS  C219 1674   2.538   2.274   8.280 -0.5006  0.0067 -0.8609
   13SAPS  H19R 1675   2.444   2.283   8.337 -0.5759 -1.3448 -0.7566
   13SAPS  H19S 1676   2.613   2.316   8.350 -0.9240  0.0788 -0.4454
   13SAPS  C220 1677   2.565   2.124   8.253 -0.4252 -0.3581  0.6200
   13SAPS  H20R 1678   2.632   2.108   8.165 -0.8054  1.9293 -0.1536
   13SAPS  H20S 1679   2.473   2.067   8.231 -2.6522  3.5974 -1.5183
   13SAPS  H20T 1680   2.608   2.077   8.344  1.8742 -0.5407 -0.4685
   13SAPS   C33 1681   1.563   2.599   6.684  0.5512 -0.3208 -0.8103
   13SAPS   H3X 1682   1.460   2.570   6.655 -0.6559  0.8804  1.9220
   13SAPS   H3Y 1683   1.554   2.709   6.692  1.5748 -0.2056 -1.0808
   13SAPS   C34 1684   1.582   2.535   6.823 -0.2116  0.2047 -0.1429
   13SAPS   H4X 1685   1.675   2.574   6.870 -0.8509  0.6084  0.8243
   13SAPS   H4Y 1686   1.602   2.428   6.800  0.4566  0.0284  1.1394
   13SAPS   C35 1687   1.460   2.562   6.912  0.3162  0.4402  0.1448
   13SAPS   H5X 1688   1.367   2.541   6.855  1.4726 -2.4328 -0.8323
   13SAPS   H5Y 1689   1.466   2.670   6.940  3.4658 -0.0310  1.7886
   13SAPS   C36 1690   1.461   2.465   7.035  0.6381 -0.2418  0.0011
   13SAPS   H6X 1691   1.473   2.359   7.005  0.0409 -0.3606  0.1764
   13SAPS   H6Y 1692   1.362   2.483   7.083  0.0864 -1.6130 -0.5714
   13SAPS   C37 1693   1.573   2.497   7.133 -0.3221  0.5192 -0.4445
   13SAPS   H7X 1694   1.573   2.593   7.188 -0.5353  0.0205  0.4503
   13SAPS   H7Y 1695   1.667   2.501   7.075 -0.2535  0.8435 -0.3124
   13SAPS   C38 1696   1.581   2.402   7.250 -0.2270 -0.5530 -0.4146
   13SAPS   H8X 1697   1.643   2.314   7.222  2.9812  0.5173  2.6517
   13SAPS   H8Y 1698   1.480   2.363   7.276 -1.3447  0.7706 -2.4532
   13SAPS   C39 1699   1.638   2.465   7.377 -1.0315 -0.1063 -0.8312
   13SAPS   H9X 1700   1.599   2.565   7.408 -1.9556 -1.1733  1.8051
   13SAPS   H9Y 1701   1.745   2.491   7.365 -0.9664  0.2267  0.3229
   13SAPS  C310 1702   1.627   2.364   7.501 -0.3315 -0.4415 -0.3745
   13SAPS  H10X 1703   1.674   2.269   7.468  0.4866  0.2024 -1.1231
   13SAPS  H10Y 1704   1.518   2.342   7.511 -0.4784  0.9679  1.7416
   13SAPS  C311 1705   1.673   2.424   7.633  0.2376 -0.2206  0.5870
   13SAPS  H11X 1706   1.612   2.511   7.666 -0.8359 -1.9890  3.6425
   13SAPS  H11Y 1707   1.776   2.455   7.607 -0.7243  2.0817 -0.7390
   13SAPS  C312 1708   1.681   2.334   7.748 -0.3381  0.1478 -0.2361
   13SAPS  H12X 1709   1.733   2.238   7.727  1.5054  1.0727 -0.1505
   13SAPS  H12Y 1710   1.582   2.293   7.776  0.6640 -1.5833  1.0388
   13SAPS  C313 1711   1.737   2.398   7.874  0.6061 -0.0176 -0.4791
   13SAPS  H13X 1712   1.696   2.502   7.874  1.8482  0.4845 -0.0245
   13SAPS  H13Y 1713   1.847   2.403   7.866  0.7431 -0.9738  0.6002
   13SAPS  C314 1714   1.705   2.323   8.003  0.4640 -0.4052  0.0991
   13SAPS  H14X 1715   1.747   2.220   8.004 -0.2984 -0.7181  0.8626
   13SAPS  H14Y 1716   1.596   2.322   8.023  0.3916 -0.5457 -0.3033
   13SAPS  C315 1717   1.781   2.394   8.116 -0.5662  0.8422 -0.6626
   13SAPS  H15X 1718   1.767   2.504   8.121 -0.1084  0.8704  0.1030
   13SAPS  H15Y 1719   1.887   2.390   8.081 -0.3941 -1.2840 -0.0510
   13SAPS  C316 1720   1.766   2.320   8.247 -0.2259 -0.2044 -0.2859
   13SAPS  H16X 1721   1.800   2.215   8.239  0.1096 -0.0454 -0.9913
   13SAPS  H16Y 1722   1.660   2.317   8.282 -0.4137 -0.0938 -0.8415
   13SAPS  C317 1723   1.863   2.380   8.354  0.0672  0.3207  0.1761
   13SAPS  H17X 1724   1.851   2.489   8.367  1.1706  0.3534  1.0555
   13SAPS  H17Y 1725   1.966   2.359   8.318 -1.0102  0.2321 -3.2852
   13SAPS  C318 1726   1.840   2.314   8.489  0.2383  0.0099 -0.2687
   13SAPS  H18X 1727   1.833   2.204   8.472  0.6259  0.0875 -0.9558
   13SAPS  H18Y 1728   1.756   2.353   8.550 -1.2377 -1.6461 -1.1497
   13SAPS  H18Z 1729   1.927   2.334   8.555  0.2252  2.3973 -0.8786
   14SAPS     N 1730   2.352   5.490   5.406 -0.3841  0.5807 -0.3985
   14SAPS   HN1 1731   2.394   5.584   5.423  0.1485  0.3533 -0.4295
   14SAPS   HN2 1732   2.413   5.429   5.348 -1.9525 -2.6588  1.1292
   14SAPS   HN3 1733   2.265   5.504   5.350  0.0601 -3.9676 -2.7071
   14SAPS   C12 1734   2.313   5.429   5.544 -0.2142 -0.2166  0.0172
   14SAPS  H12A 1735   2.221   5.482   5.565 -0.3197 -0.1598 -0.5723
   14SAPS   C13 1736   2.268   5.282   5.533 -0.1317 -0.0543 -0.1732
   14SAPS  O13A 1737   2.271   5.224   5.420 -0.1993  0.4077 -0.3346
   14SAPS  O13B 1738   2.237   5.224   5.639 -0.1272 -0.3095  0.1757
   14SAPS   C11 1739   2.420   5.466   5.651  0.1699 -0.3963 -0.0116
   14SAPS  H11A 1740   2.522   5.446   5.612  0.5258  3.0950 -1.3105
   14SAPS  H11B 1741   2.402   5.413   5.746 -1.7116  1.5554  0.8020
   14SAPS     P 1742   2.369   5.683   5.802 -0.2387 -0.0585 -0.1499
   14SAPS   O13 1743   2.472   5.792   5.824 -0.2304 -0.3940 -0.2992
   14SAPS   O14 1744   2.226   5.717   5.782  0.7839  0.1552 -0.0876
   14SAPS   O12 1745   2.427   5.606   5.674 -0.1688 -0.5382  0.4607
   14SAPS   O11 1746   2.375   5.590   5.926 -0.2786  0.2424  0.2679
   14SAPS    C1 1747   2.490   5.531   5.990  0.1426  0.2183  0.1458
   14SAPS    HA 1748   2.490   5.421   5.979 -1.4113  0.3273 -1.3162
   14SAPS    HB 1749   2.587   5.573   5.953  1.6539 -2.9450  0.2256
   14SAPS    C2 1750   2.490   5.573   6.139  0.7994 -0.7581  0.8223
   14SAPS    HS 1751   2.485   5.684   6.144  0.9303 -0.6569 -0.7574
   14SAPS   O21 1752   2.607   5.519   6.206 -0.0435 -1.0609 -0.2443
   14SAPS   C21 1753   2.660   5.591   6.312  0.4618  0.0649  0.2004
   14SAPS   O22 1754   2.637   5.708   6.331 -0.4619 -0.3597 -0.0118
   14SAPS   C22 1755   2.746   5.496   6.401 -0.1263  0.0103  0.3645
   14SAPS   H2R 1756   2.756   5.399   6.347  0.6506 -1.1717  2.5051
   14SAPS   H2S 1757   2.843   5.551   6.403  0.4555 -1.0202  1.5996
   14SAPS    C3 1758   2.366   5.518   6.222  0.2984  0.1655  0.4515
   14SAPS    HX 1759   2.352   5.409   6.210  1.7322 -0.2478  2.0110
   14SAPS    HY 1760   2.270   5.558   6.184 -0.0183  0.8709  1.9178
   14SAPS   O31 1761   2.365   5.543   6.366 -0.5696 -0.6085  0.3331
   14SAPS   C31 1762   2.311   5.656   6.398 -0.3479 -0.2622  0.5350
   14SAPS   O32 1763   2.267   5.740   6.315 -0.3681 -0.7187 -0.2371
   14SAPS   C32 1764   2.311   5.680   6.543  0.4009 -0.2999  0.4225
   14SAPS   H2X 1765   2.328   5.592   6.608 -1.1448 -0.7557  0.2389
   14SAPS   H2Y 1766   2.212   5.730   6.555 -0.8085 -1.6707 -2.8255
   14SAPS   C23 1767   2.705   5.476   6.552 -0.3295 -0.1755  0.1184
   14SAPS   H3R 1768   2.680   5.579   6.586  0.1586  0.2307 -0.7391
   14SAPS   H3S 1769   2.794   5.441   6.609 -0.1311 -0.2988 -0.2696
   14SAPS   C24 1770   2.585   5.397   6.586  0.2580  0.2663 -0.0694
   14SAPS   H4R 1771   2.500   5.447   6.533  0.4606  0.3792 -0.2891
   14SAPS   H4S 1772   2.557   5.401   6.693  0.6533 -1.0208  0.0970
   14SAPS   C25 1773   2.604   5.258   6.533 -0.1485 -0.3858  0.3086
   14SAPS   H5R 1774   2.601   5.248   6.423 -0.0256 -0.4921  0.3145
   14SAPS   C26 1775   2.612   5.149   6.609  0.2618 -0.1400 -0.2490
   14SAPS   H6R 1776   2.619   5.056   6.551 -2.2117  0.0699 -0.9649
   14SAPS   C27 1777   2.610   5.151   6.762 -0.1635 -0.3242  0.1251
   14SAPS   H7R 1778   2.526   5.214   6.799 -1.0104 -0.9272 -0.7000
   14SAPS   H7S 1779   2.701   5.198   6.804 -0.5897  1.2806 -0.6540
   14SAPS   C28 1780   2.592   5.012   6.820  0.2181 -0.6258 -0.0512
   14SAPS   H8R 1781   2.629   4.929   6.760 -0.7908 -0.7590 -0.5184
   14SAPS   C29 1782   2.554   4.987   6.952  0.6053 -0.2342  0.7858
   14SAPS   H9R 1783   2.559   4.888   7.000  1.5890 -0.1249  0.9194
   14SAPS  C210 1784   2.520   5.101   7.048  0.4606  0.0484 -0.0200
   14SAPS  H10R 1785   2.462   5.179   6.994  0.6150  0.6049  0.6118
   14SAPS  H10S 1786   2.620   5.143   7.068  0.6033  0.0347 -0.6723
   14SAPS  C211 1787   2.454   5.075   7.187 -0.0499  0.6295  0.3861
   14SAPS  H11R 1788   2.354   5.119   7.202  0.7372  1.7146  3.0487
   14SAPS  C212 1789   2.504   5.017   7.291 -0.0294  0.2051 -0.2376
   14SAPS  H12R 1790   2.449   5.012   7.386  0.1979 -1.1665 -0.1546
   14SAPS  C213 1791   2.636   4.955   7.304  0.3058 -0.4086  0.0083
   14SAPS  H13R 1792   2.700   5.022   7.364 -0.4327  0.6676 -0.3697
   14SAPS  H13S 1793   2.683   4.950   7.203 -0.1888  1.8070 -0.3914
   14SAPS  C214 1794   2.620   4.820   7.362 -0.1472  0.9232 -0.6225
   14SAPS  H14R 1795   2.586   4.750   7.284 -1.3438  0.0252  0.6547
   14SAPS  C215 1796   2.652   4.766   7.479 -0.3130  0.6117  0.1126
   14SAPS  H15R 1797   2.631   4.661   7.501  3.5787 -0.5604 -0.9259
   14SAPS  C216 1798   2.721   4.841   7.584  0.5139 -0.0718 -0.4935
   14SAPS  H16R 1799   2.746   4.947   7.561  1.9828  0.0204  1.2500
   14SAPS  H16S 1800   2.826   4.808   7.602  1.2045  1.5027 -1.3495
   14SAPS  C217 1801   2.650   4.839   7.721 -0.1429  0.1892 -0.9618
   14SAPS  H17R 1802   2.621   4.737   7.753 -0.4635  1.1279  2.0903
   14SAPS  H17S 1803   2.556   4.895   7.703 -0.1935  1.1998  1.9508
   14SAPS  C218 1804   2.727   4.912   7.831  0.3922  1.0504  0.2898
   14SAPS  H18R 1805   2.723   5.020   7.806  0.3956  1.2842  1.2430
   14SAPS  H18S 1806   2.835   4.885   7.831  0.4639  1.1632 -1.8208
   14SAPS  C219 1807   2.682   4.883   7.976  0.0532 -0.0654 -0.0682
   14SAPS  H19R 1808   2.673   4.775   7.998 -0.9256  0.0720  0.2615
   14SAPS  H19S 1809   2.584   4.935   7.985  1.5929  2.8333  1.5997
   14SAPS  C220 1810   2.778   4.959   8.063  0.4482  0.7838 -0.2792
   14SAPS  H20R 1811   2.881   4.919   8.050  1.2573  2.3783  0.9010
   14SAPS  H20S 1812   2.773   4.942   8.173  0.3899  0.1725 -0.3707
   14SAPS  H20T 1813   2.778   5.069   8.049  3.1669  0.5772 -2.9745
   14SAPS   C33 1814   2.422   5.780   6.581  0.9082 -0.5678 -0.7240
   14SAPS   H3X 1815   2.424   5.873   6.520  3.0625  0.0219  0.1362
   14SAPS   H3Y 1816   2.525   5.739   6.578  0.8288 -0.9280  0.7687
   14SAPS   C34 1817   2.402   5.824   6.730  0.5556 -0.8496 -0.1700
   14SAPS   H4X 1818   2.299   5.865   6.724  0.0063 -2.2495 -0.6735
   14SAPS   H4Y 1819   2.469   5.911   6.746 -0.9456  0.6621 -1.6330
   14SAPS   C35 1820   2.415   5.720   6.847  0.1358  0.9434 -0.0383
   14SAPS   H5X 1821   2.357   5.629   6.821 -2.7773  2.4974  0.6220
   14SAPS   H5Y 1822   2.383   5.760   6.945 -1.7236 -0.8246  0.1431
   14SAPS   C36 1823   2.569   5.681   6.865  0.7211  0.6254  0.3992
   14SAPS   H6X 1824   2.632   5.757   6.917  0.7236  0.7231  0.2577
   14SAPS   H6Y 1825   2.618   5.656   6.768  1.7850 -1.3426  1.3761
   14SAPS   C37 1826   2.587   5.557   6.956  0.0707 -0.0991  0.4523
   14SAPS   H7X 1827   2.697   5.546   6.970  0.1954  0.5640  0.0486
   14SAPS   H7Y 1828   2.560   5.464   6.903  1.0309  0.8983 -1.9006
   14SAPS   C38 1829   2.522   5.580   7.099 -0.2436  0.0857  0.0337
   14SAPS   H8X 1830   2.416   5.612   7.099 -0.5132 -0.6771  1.7209
   14SAPS   H8Y 1831   2.591   5.654   7.145  0.0867 -0.0453 -0.2469
   14SAPS   C39 1832   2.535   5.454   7.181  0.3221  0.3155  0.3845
   14SAPS   H9X 1833   2.641   5.430   7.204  0.2358  1.0631  1.6660
   14SAPS   H9Y 1834   2.488   5.369   7.125 -2.6139  2.5711 -0.8320
   14SAPS  C310 1835   2.475   5.455   7.322  0.7258 -0.3698  0.0680
   14SAPS  H10X 1836   2.490   5.354   7.365  1.1203 -0.3042  0.0948
   14SAPS  H10Y 1837   2.367   5.479   7.333  0.6947 -0.1651 -0.6259
   14SAPS  C311 1838   2.555   5.549   7.416  0.3458 -0.1054  0.4496
   14SAPS  H11X 1839   2.522   5.650   7.384 -0.9126 -0.9022 -0.8621
   14SAPS  H11Y 1840   2.664   5.552   7.397  0.5794 -0.4521  1.6107
   14SAPS  C312 1841   2.530   5.522   7.559 -0.3950  1.4437  0.4139
   14SAPS  H12X 1842   2.596   5.440   7.596 -1.7245  0.6695  1.1704
   14SAPS  H12Y 1843   2.432   5.473   7.577 -0.9877  2.8755  1.2518
   14SAPS  C313 1844   2.541   5.645   7.645  0.2125  0.0555 -0.0717
   14SAPS  H13X 1845   2.478   5.730   7.609  0.1970 -0.6333 -1.7504
   14SAPS  H13Y 1846   2.640   5.695   7.636 -0.6071  1.5965 -1.1069
   14SAPS  C314 1847   2.493   5.621   7.796 -0.1714  0.1376 -0.2255
   14SAPS  H14X 1848   2.408   5.551   7.812  0.4893 -0.2140  2.2873
   14SAPS  H14Y 1849   2.459   5.714   7.847  2.3410  1.9359 -1.5692
   14SAPS  C315 1850   2.599   5.568   7.894 -0.3437 -0.0884  0.6441
   14SAPS  H15X 1851   2.691   5.629   7.883  1.1937 -2.7613 -3.9520
   14SAPS  H15Y 1852   2.646   5.470   7.875  0.9111 -0.1215  3.4224
   14SAPS  C316 1853   2.548   5.584   8.041  0.8244 -0.9200  0.0940
   14SAPS  H16X 1854   2.442   5.551   8.038  0.2570  0.8809 -1.1037
   14SAPS  H16Y 1855   2.546   5.694   8.057 -0.2333 -0.9340  0.1032
   14SAPS  C317 1856   2.628   5.519   8.148 -0.6592  0.1610  0.0993
   14SAPS  H17X 1857   2.728   5.566   8.150 -0.5420 -0.0939  0.3843
   14SAPS  H17Y 1858   2.634   5.413   8.115  3.1847  0.1652  0.3586
   14SAPS  C318 1859   2.571   5.523   8.288  0.2551  0.0989  0.4672
   14SAPS  H18X 1860   2.484   5.455   8.296 -0.1703  0.3174 -1.7408
   14SAPS  H18Y 1861   2.540   5.626   8.316 -1.6697 -0.5571  0.8559
   14SAPS  H18Z 1862   2.650   5.488   8.358 -1.0012 -0.8652  1.4396
   15SAPS     N 1863   2.448   5.044   5.708 -0.2790  0.3863 -0.6562
   15SAPS   HN1 1864   2.523   5.066   5.640 -0.1542  0.3786 -0.5226
   15SAPS   HN2 1865   2.363   5.094   5.675 -2.3901 -1.7180  1.1859
   15SAPS   HN3 1866   2.493   5.099   5.785 -0.5775  0.8944 -0.8410
   15SAPS   C12 1867   2.439   4.901   5.732  0.0738  0.3951  0.2000
   15SAPS  H12A 1868   2.430   4.854   5.635  1.9184  0.2384  0.0580
   15SAPS   C13 1869   2.554   4.834   5.810 -0.1964 -0.3255 -0.4618
   15SAPS  O13A 1870   2.637   4.911   5.857  0.5070 -0.1079 -0.0012
   15SAPS  O13B 1871   2.557   4.712   5.835  0.2751 -0.1238  0.2355
   15SAPS   C11 1872   2.314   4.873   5.810 -0.0100  0.0901 -0.4222
   15SAPS  H11A 1873   2.326   4.908   5.915 -1.3169 -1.2089  0.1934
   15SAPS  H11B 1874   2.306   4.763   5.826  0.4729  0.3099  1.5909
   15SAPS     P 1875   2.059   4.916   5.842 -0.2007  0.0164 -0.0857
   15SAPS   O13 1876   1.960   5.000   5.767 -0.6233  0.1450  1.0263
   15SAPS   O14 1877   2.026   4.772   5.859 -0.4409  0.0703  0.5930
   15SAPS   O12 1878   2.199   4.924   5.751 -0.0608 -0.2642 -1.0070
   15SAPS   O11 1879   2.089   4.979   5.987 -0.4915 -0.2294  0.7940
   15SAPS    C1 1880   2.128   5.117   5.994 -0.1976  0.4870 -0.3145
   15SAPS    HA 1881   2.235   5.129   5.967  0.0552  0.5763  0.7160
   15SAPS    HB 1882   2.060   5.180   5.933  0.3299  0.9077 -0.4789
   15SAPS    C2 1883   2.122   5.162   6.148  0.0500 -0.4272  0.5521
   15SAPS    HS 1884   2.182   5.255   6.160  1.0283 -0.9324 -0.1606
   15SAPS   O21 1885   2.157   5.061   6.237 -0.1485 -0.3742 -0.0395
   15SAPS   C21 1886   2.284   5.021   6.252 -0.6583 -0.4022 -0.0374
   15SAPS   O22 1887   2.378   5.076   6.196  0.4949 -0.3360 -0.4538
   15SAPS   C22 1888   2.304   4.906   6.350 -0.5628 -0.3561 -0.4836
   15SAPS   H2R 1889   2.214   4.895   6.415  0.4017 -0.2307  0.9221
   15SAPS   H2S 1890   2.319   4.819   6.282  0.9149  1.3233 -2.4293
   15SAPS    C3 1891   1.977   5.207   6.188 -0.2902 -0.8020 -0.4119
   15SAPS    HX 1892   1.918   5.118   6.160 -0.6020 -1.3263  1.7797
   15SAPS    HY 1893   1.944   5.289   6.121  0.5041 -1.7227 -1.9950
   15SAPS   O31 1894   1.969   5.231   6.329 -0.3324  0.0691  0.0324
   15SAPS   C31 1895   2.002   5.358   6.366  0.3369  0.0997 -0.1485
   15SAPS   O32 1896   2.024   5.452   6.296  0.3214 -0.6048 -0.1183
   15SAPS   C32 1897   2.022   5.373   6.522 -0.6488 -0.1372 -0.1053
   15SAPS   H2X 1898   1.944   5.322   6.582 -0.5973  0.9628  0.9458
   15SAPS   H2Y 1899   2.019   5.483   6.537 -1.2831 -0.3041  1.0499
   15SAPS   C23 1900   2.414   4.935   6.453 -0.8422 -0.5069 -0.0782
   15SAPS   H3R 1901   2.422   5.045   6.471 -1.2063 -0.2216 -1.5403
   15SAPS   H3S 1902   2.511   4.898   6.416  0.5433  2.2753  0.4956
   15SAPS   C24 1903   2.412   4.851   6.584  0.2209 -0.4707  1.1339
   15SAPS   H4R 1904   2.514   4.848   6.627 -0.0980  2.2298  2.3074
   15SAPS   H4S 1905   2.385   4.745   6.569 -0.4178 -0.2413  0.5918
   15SAPS   C25 1906   2.313   4.918   6.674 -0.3904 -0.6992 -0.4267
   15SAPS   H5R 1907   2.325   5.026   6.689 -0.9596 -0.4889 -1.3755
   15SAPS   C26 1908   2.237   4.860   6.764  0.2891 -1.0793  0.7454
   15SAPS   H6R 1909   2.171   4.926   6.821 -2.5080 -2.0492 -1.1676
   15SAPS   C27 1910   2.230   4.715   6.798  0.4807 -0.2481 -0.3192
   15SAPS   H7R 1911   2.294   4.691   6.885  1.6913 -1.6303 -1.5269
   15SAPS   H7S 1912   2.262   4.644   6.719 -0.3248 -0.5276 -0.4071
   15SAPS   C28 1913   2.085   4.679   6.833 -0.3385 -0.2129 -0.6037
   15SAPS   H8R 1914   2.018   4.690   6.747 -0.9564  0.5562 -0.0427
   15SAPS   C29 1915   2.038   4.639   6.950 -0.0863 -0.4994 -0.8824
   15SAPS   H9R 1916   1.932   4.612   6.960 -0.2345  0.8348  2.2854
   15SAPS  C210 1917   2.120   4.629   7.084  0.9119 -0.1665  0.2640
   15SAPS  H10R 1918   2.180   4.722   7.092 -0.6429  0.7552  1.9812
   15SAPS  H10S 1919   2.186   4.540   7.076 -0.8753 -1.6205  0.9400
   15SAPS  C211 1920   2.029   4.622   7.206  0.1656 -0.1487  0.5158
   15SAPS  H11R 1921   1.922   4.609   7.187  0.4167 -3.0378  0.6783
   15SAPS  C212 1922   2.064   4.665   7.328 -0.2102 -0.7131  0.7259
   15SAPS  H12R 1923   1.982   4.658   7.401  0.4389  1.6777  1.7741
   15SAPS  C213 1924   2.196   4.715   7.376  0.3259  0.1113  0.5880
   15SAPS  H13R 1925   2.182   4.824   7.390  0.8966  0.3750 -0.7228
   15SAPS  H13S 1926   2.279   4.717   7.302  0.5455  0.4047  0.8401
   15SAPS  C214 1927   2.254   4.655   7.502 -0.3776 -0.1622 -0.0615
   15SAPS  H14R 1928   2.263   4.546   7.512  1.5490 -0.0535 -0.2212
   15SAPS  C215 1929   2.284   4.724   7.612 -0.5259  0.4113 -0.2752
   15SAPS  H15R 1930   2.302   4.659   7.699 -0.0653  1.0936  0.1463
   15SAPS  C216 1931   2.278   4.870   7.621  0.7602 -0.6239  0.0466
   15SAPS  H16R 1932   2.180   4.914   7.594  0.8059 -0.5642 -0.0228
   15SAPS  H16S 1933   2.354   4.921   7.557 -0.2605  2.2484  0.9542
   15SAPS  C217 1934   2.295   4.915   7.762 -0.0793 -0.2129 -0.7123
   15SAPS  H17R 1935   2.384   4.866   7.807 -1.6015  0.4332  3.5067
   15SAPS  H17S 1936   2.209   4.895   7.829  1.7756 -0.1878  1.8314
   15SAPS  C218 1937   2.320   5.069   7.777  0.3946 -0.3736 -0.1839
   15SAPS  H18R 1938   2.240   5.125   7.725 -0.0010 -0.0357  0.7662
   15SAPS  H18S 1939   2.417   5.095   7.729  0.2784 -0.5328 -0.5071
   15SAPS  C219 1940   2.314   5.108   7.925  0.5082  0.0949  0.2607
   15SAPS  H19R 1941   2.380   5.030   7.968  0.3034  0.2143  0.8094
   15SAPS  H19S 1942   2.211   5.099   7.967  0.7774  1.8514  1.3996
   15SAPS  C220 1943   2.369   5.247   7.959 -0.1364  0.3937  0.0515
   15SAPS  H20R 1944   2.313   5.334   7.919 -0.7243  0.2154  0.4652
   15SAPS  H20S 1945   2.468   5.250   7.908 -0.5768  0.9678 -0.7786
   15SAPS  H20T 1946   2.371   5.261   8.069 -1.1618  0.9505  0.0053
   15SAPS   C33 1947   2.165   5.322   6.558 -0.1738 -0.4123  0.1127
   15SAPS   H3X 1948   2.242   5.351   6.484  2.9403 -1.0716  2.8610
   15SAPS   H3Y 1949   2.167   5.211   6.568  1.5060 -0.4141  0.0081
   15SAPS   C34 1950   2.216   5.361   6.695  0.1339 -0.4135 -0.1963
   15SAPS   H4X 1951   2.192   5.467   6.718 -0.0177 -0.6733  0.9416
   15SAPS   H4Y 1952   2.323   5.332   6.702  1.2148  2.7438 -1.8104
   15SAPS   C35 1953   2.139   5.285   6.804 -0.0613  0.4221  0.1517
   15SAPS   H5X 1954   2.157   5.175   6.814 -1.8436  0.1636  0.7244
   15SAPS   H5Y 1955   2.032   5.300   6.779  0.1998  2.3318  0.0594
   15SAPS   C36 1956   2.163   5.350   6.946  0.4575  0.2663  0.1387
   15SAPS   H6X 1957   2.108   5.447   6.942 -0.1363 -0.0838 -0.2737
   15SAPS   H6Y 1958   2.264   5.396   6.961  0.5223 -0.0732  0.7629
   15SAPS   C37 1959   2.113   5.269   7.066 -0.6376  0.2397 -0.1576
   15SAPS   H7X 1960   2.153   5.166   7.069 -2.7543 -0.6080  2.3150
   15SAPS   H7Y 1961   2.002   5.270   7.058 -0.7786 -0.8454  1.3984
   15SAPS   C38 1962   2.133   5.344   7.197  0.4958  0.2626 -0.2237
   15SAPS   H8X 1963   2.059   5.427   7.200  1.3306  1.0060  0.8984
   15SAPS   H8Y 1964   2.235   5.390   7.198  0.3638  0.6141 -1.2798
   15SAPS   C39 1965   2.113   5.265   7.327  0.4507 -0.6274 -0.1454
   15SAPS   H9X 1966   2.184   5.180   7.326  0.4206 -0.6523 -0.1907
   15SAPS   H9Y 1967   2.010   5.222   7.325 -0.1056  0.6856 -0.7105
   15SAPS  C310 1968   2.134   5.337   7.466 -0.2099  0.0212  0.8935
   15SAPS  H10X 1969   2.242   5.349   7.487 -0.0749  0.4693 -0.0543
   15SAPS  H10Y 1970   2.089   5.272   7.545  1.8077  0.4061  2.4228
   15SAPS  C311 1971   2.053   5.459   7.481  0.1693  0.3871 -0.3324
   15SAPS  H11X 1972   1.965   5.447   7.414 -0.1617  1.2163 -0.0567
   15SAPS  H11Y 1973   2.088   5.558   7.444  0.0976  1.1730  1.6002
   15SAPS  C312 1974   2.009   5.484   7.631  0.8582  0.5615 -0.1533
   15SAPS  H12X 1975   1.951   5.392   7.655 -1.2962  1.3142 -2.0850
   15SAPS  H12Y 1976   1.927   5.558   7.620  1.5389  1.3502 -0.0353
   15SAPS  C313 1977   2.120   5.532   7.717  0.4945 -0.1470  0.4605
   15SAPS  H13X 1978   2.162   5.627   7.678 -1.2322  0.8857  0.9867
   15SAPS  H13Y 1979   2.205   5.460   7.722 -0.1022 -0.8494  0.8114
   15SAPS  C314 1980   2.047   5.541   7.855  0.4344 -0.6066 -0.2981
   15SAPS  H14X 1981   2.026   5.439   7.891  1.6188 -0.5308  0.6583
   15SAPS  H14Y 1982   1.949   5.592   7.839  1.0167  1.1076  1.2773
   15SAPS  C315 1983   2.119   5.633   7.967 -0.1809  0.1268  0.2806
   15SAPS  H15X 1984   2.098   5.739   7.943  1.2383  0.4928  0.5524
   15SAPS  H15Y 1985   2.229   5.625   7.950 -0.1379 -0.5213  0.8031
   15SAPS  C316 1986   2.079   5.590   8.108 -0.4150  0.3172 -0.4885
   15SAPS  H16X 1987   2.141   5.500   8.129  0.5046  1.1730  0.5989
   15SAPS  H16Y 1988   1.968   5.580   8.116 -0.1873 -1.2904  2.0507
   15SAPS  C317 1989   2.106   5.703   8.215 -0.1396  0.2076 -0.0942
   15SAPS  H17X 1990   2.056   5.793   8.174  2.3331  1.0580 -1.4473
   15SAPS  H17Y 1991   2.216   5.714   8.223  0.5330 -1.2271 -4.5997
   15SAPS  C318 1992   2.061   5.675   8.360 -0.5683 -1.0975  0.6606
   15SAPS  H18X 1993   1.954   5.648   8.372 -0.4984 -1.3016  0.8152
   15SAPS  H18Y 1994   2.076   5.762   8.428 -1.4248  0.4936 -1.0602
   15SAPS  H18Z 1995   2.110   5.591   8.413 -0.3246 -0.2073  1.8934
   16SAPS     N 1996   5.416   6.482   6.327 -0.1464  0.2826 -0.4144
   16SAPS   HN1 1997   5.344   6.433   6.384 -0.9430  0.9309 -0.8454
   16SAPS   HN2 1998   5.475   6.528   6.400  0.1895 -1.4190  0.4461
   16SAPS   HN3 1999   5.372   6.554   6.267 -1.3645 -0.7677 -0.8214
   16SAPS   C12 2000   5.502   6.392   6.242 -0.0430  0.2931 -0.3122
   16SAPS  H12A 2001   5.523   6.301   6.296  2.6036 -0.4721 -2.3824
   16SAPS   C13 2002   5.431   6.358   6.100  0.2301  0.8341 -0.2111
   16SAPS  O13A 2003   5.313   6.385   6.090  0.5162 -0.0572 -0.1635
   16SAPS  O13B 2004   5.494   6.281   6.022 -0.0953 -0.6230 -0.6086
   16SAPS   C11 2005   5.632   6.467   6.212  0.1240  0.3447 -0.2565
   16SAPS  H11A 2006   5.615   6.555   6.146  1.0056  1.6947  1.2324
   16SAPS  H11B 2007   5.698   6.393   6.163 -0.8943 -0.3981 -0.5440
   16SAPS     P 2008   5.790   6.445   6.433 -0.4849  0.2537  0.3231
   16SAPS   O13 2009   5.782   6.300   6.407  0.3712  0.2654  0.0386
   16SAPS   O14 2010   5.926   6.493   6.427 -0.1335  0.2235 -0.3241
   16SAPS   O12 2011   5.703   6.518   6.328  0.3535  0.3402  0.7862
   16SAPS   O11 2012   5.724   6.491   6.573 -0.4985 -0.0867  0.4778
   16SAPS    C1 2013   5.705   6.405   6.681  0.5185  0.3818 -0.6192
   16SAPS    HA 2014   5.611   6.348   6.664 -1.5835  3.2651  0.5436
   16SAPS    HB 2015   5.787   6.330   6.685  0.7126  0.6318  0.2907
   16SAPS    C2 2016   5.700   6.477   6.823  0.5732  0.6861  0.9217
   16SAPS    HS 2017   5.693   6.396   6.899 -0.9269 -0.4604 -0.3791
   16SAPS   O21 2018   5.585   6.570   6.829 -0.3422 -0.0812 -0.0647
   16SAPS   C21 2019   5.547   6.601   6.947 -0.3201 -0.5922 -0.4792
   16SAPS   O22 2020   5.592   6.559   7.053  0.3650 -0.4493 -0.0562
   16SAPS   C22 2021   5.435   6.711   6.941  0.1382  0.8212 -0.6036
   16SAPS   H2R 2022   5.484   6.807   6.916  0.4838  0.9757  0.6076
   16SAPS   H2S 2023   5.372   6.683   6.854  1.6761 -0.7183 -1.2941
   16SAPS    C3 2024   5.831   6.561   6.853  0.2079  0.5258 -0.2699
   16SAPS    HX 2025   5.828   6.650   6.787  0.6234  0.4878 -0.3382
   16SAPS    HY 2026   5.918   6.501   6.819 -0.3426 -0.2524 -0.3238
   16SAPS   O31 2027   5.863   6.594   6.990  0.3512 -0.3945  0.0957
   16SAPS   C31 2028   5.875   6.488   7.066 -0.3319  0.2032 -0.0805
   16SAPS   O32 2029   5.880   6.374   7.028 -0.4880  0.4455 -0.2948
   16SAPS   C32 2030   5.875   6.532   7.212  0.4643  0.3857  0.1580
   16SAPS   H2X 2031   5.787   6.599   7.218 -1.3534 -1.5128 -2.6617
   16SAPS   H2Y 2032   5.973   6.572   7.244 -0.0464  2.8421 -1.0602
   16SAPS   C23 2033   5.352   6.729   7.068 -0.6682  0.3173 -0.3954
   16SAPS   H3R 2034   5.415   6.779   7.145 -0.3654  2.8505 -2.1466
   16SAPS   H3S 2035   5.327   6.628   7.108  1.6256 -0.8615 -1.7382
   16SAPS   C24 2036   5.221   6.809   7.050 -0.4850  0.2529 -0.1501
   16SAPS   H4R 2037   5.160   6.777   7.137 -0.2558 -0.0641 -0.1053
   16SAPS   H4S 2038   5.158   6.774   6.965 -1.5804  1.0399  0.3114
   16SAPS   C25 2039   5.230   6.959   7.039 -0.2187  0.1699 -0.3964
   16SAPS   H5R 2040   5.301   6.999   6.965  0.4693  0.0713  0.2013
   16SAPS   C26 2041   5.169   7.041   7.127  0.0472 -0.9159  0.3746
   16SAPS   H6R 2042   5.180   7.149   7.111  0.9738 -1.0101  0.2972
   16SAPS   C27 2043   5.080   7.006   7.237 -0.0323 -0.3865 -0.5615
   16SAPS   H7R 2044   5.029   6.912   7.206 -0.0332 -0.5089 -0.1967
   16SAPS   H7S 2045   4.995   7.078   7.241  0.7331  0.5226 -0.3836
   16SAPS   C28 2046   5.150   6.975   7.372 -0.3322 -0.5279  0.5783
   16SAPS   H8R 2047   5.184   6.871   7.381 -1.9831 -1.2173 -0.6683
   16SAPS   C29 2048   5.156   7.053   7.477  0.2427  0.5809 -0.0617
   16SAPS   H9R 2049   5.230   7.034   7.557  0.4193 -0.7197 -0.5137
   16SAPS  C210 2050   5.094   7.187   7.487  0.2762  0.1736 -0.2434
   16SAPS  H10R 2051   5.047   7.212   7.389 -0.1259 -2.3440 -0.7587
   16SAPS  H10S 2052   5.163   7.271   7.508 -1.3698  1.1836  1.3530
   16SAPS  C211 2053   4.985   7.190   7.591  0.1739  0.3424  0.4294
   16SAPS  H11R 2054   4.907   7.115   7.576  0.6379  0.2484 -1.7828
   16SAPS  C212 2055   4.966   7.277   7.693  0.3674 -0.4831  0.0502
   16SAPS  H12R 2056   4.871   7.266   7.747  0.1840 -0.0804 -0.1849
   16SAPS  C213 2057   5.062   7.392   7.733  0.2967  0.3050  0.2780
   16SAPS  H13R 2058   5.164   7.349   7.722  0.0473 -0.4389  0.7853
   16SAPS  H13S 2059   5.042   7.404   7.841  0.8321 -0.5662  0.4851
   16SAPS  C214 2060   5.057   7.524   7.659 -0.6226  0.5240 -0.1799
   16SAPS  H14R 2061   4.991   7.529   7.572 -1.5869  2.4667  0.6071
   16SAPS  C215 2062   5.113   7.639   7.705 -0.3822 -0.3730 -0.7972
   16SAPS  H15R 2063   5.100   7.732   7.648  0.3970  1.0944  1.3160
   16SAPS  C216 2064   5.199   7.671   7.828 -0.0315  0.0846  0.0305
   16SAPS  H16R 2065   5.302   7.698   7.796  0.7626 -1.0424  1.5430
   16SAPS  H16S 2066   5.213   7.584   7.895  0.0159  0.0485 -0.0264
   16SAPS  C217 2067   5.155   7.792   7.902 -0.1071  0.8936 -0.0026
   16SAPS  H17R 2068   5.046   7.806   7.919 -0.1881 -1.5133  1.9900
   16SAPS  H17S 2069   5.192   7.878   7.843  2.9362 -1.1168 -1.2821
   16SAPS  C218 2070   5.240   7.810   8.026 -0.4532 -0.1464 -0.3987
   16SAPS  H18R 2071   5.349   7.815   8.005 -0.5736  0.5348 -0.8737
   16SAPS  H18S 2072   5.222   7.735   8.106  1.2636  1.6518  1.8077
   16SAPS  C219 2073   5.215   7.938   8.107  0.8097 -0.3940 -0.1311
   16SAPS  H19R 2074   5.107   7.945   8.133  1.1561  1.3162  1.0301
   16SAPS  H19S 2075   5.229   8.034   8.054 -0.9644  0.2203  0.4387
   16SAPS  C220 2076   5.287   7.947   8.236 -0.6614  0.2906  0.0394
   16SAPS  H20R 2077   5.395   7.963   8.216 -0.4956  2.0145  1.9724
   16SAPS  H20S 2078   5.284   7.849   8.289 -0.0259  0.4159  0.3124
   16SAPS  H20T 2079   5.259   8.032   8.302 -1.0550  1.0878 -1.1312
   16SAPS   C33 2080   5.850   6.415   7.309 -0.2472  0.0939 -0.1206
   16SAPS   H3X 2081   5.923   6.340   7.271 -0.3076  0.5273 -1.1211
   16SAPS   H3Y 2082   5.751   6.364   7.302 -0.3433 -0.0419  1.6973
   16SAPS   C34 2083   5.877   6.465   7.452  0.0409  1.0736  0.0028
   16SAPS   H4X 2084   5.795   6.539   7.466  0.9036  1.9696  0.4158
   16SAPS   H4Y 2085   5.977   6.509   7.471  0.8110 -0.4891 -0.3322
   16SAPS   C35 2086   5.859   6.350   7.553  0.1305  0.4709  0.1229
   16SAPS   H5X 2087   5.950   6.287   7.555 -0.4187 -0.6373 -3.2493
   16SAPS   H5Y 2088   5.783   6.279   7.513 -0.6540  0.2266  1.9591
   16SAPS   C36 2089   5.817   6.375   7.700  0.3035  0.1314 -0.1669
   16SAPS   H6X 2090   5.715   6.416   7.686 -0.4250 -1.3740  0.6077
   16SAPS   H6Y 2091   5.877   6.447   7.761  0.2064  0.1427 -0.0850
   16SAPS   C37 2092   5.819   6.246   7.778  0.3830 -0.1613  0.9996
   16SAPS   H7X 2093   5.924   6.222   7.808  1.4633  2.5908 -0.2413
   16SAPS   H7Y 2094   5.779   6.160   7.720  0.4676  1.3485 -1.4619
   16SAPS   C38 2095   5.729   6.268   7.907  0.6887  0.3057  1.2869
   16SAPS   H8X 2096   5.702   6.167   7.946 -2.5694  0.3815 -0.3658
   16SAPS   H8Y 2097   5.630   6.309   7.878  1.7612  0.8468 -2.0363
   16SAPS   C39 2098   5.792   6.347   8.020  0.3752 -0.1454  0.2672
   16SAPS   H9X 2099   5.808   6.453   7.991 -1.8691  0.4916  1.1506
   16SAPS   H9Y 2100   5.890   6.301   8.047 -0.8726 -2.4909  1.0812
   16SAPS  C310 2101   5.699   6.360   8.142  0.0162 -0.1006 -0.9889
   16SAPS  H10X 2102   5.681   6.255   8.171 -2.0715  0.2602 -0.8472
   16SAPS  H10Y 2103   5.597   6.393   8.115 -0.7471 -0.1566  1.5596
   16SAPS  C311 2104   5.755   6.451   8.258  0.2360 -0.5979  0.0300
   16SAPS  H11X 2105   5.798   6.538   8.203 -1.9195  0.4897 -0.0409
   16SAPS  H11Y 2106   5.835   6.400   8.315 -0.6810  0.5514  2.4795
   16SAPS  C312 2107   5.641   6.510   8.341  0.7113  0.6899 -0.5053
   16SAPS  H12X 2108   5.582   6.422   8.373  1.9824  0.1460  0.4277
   16SAPS  H12Y 2109   5.574   6.565   8.272 -1.3837 -1.7430 -0.5657
   16SAPS  C313 2110   5.678   6.585   8.460 -0.0954  0.5838  0.0523
   16SAPS  H13X 2111   5.733   6.506   8.516 -1.0481  1.1190  1.8333
   16SAPS  H13Y 2112   5.592   6.631   8.514 -0.1369  0.0416  0.4619
   16SAPS  C314 2113   5.786   6.690   8.444 -0.1620  0.5634  0.0233
   16SAPS  H14X 2114   5.754   6.768   8.372  4.2296  1.4846 -1.2233
   16SAPS  H14Y 2115   5.876   6.644   8.399  0.5743  1.6250  0.3572
   16SAPS  C315 2116   5.821   6.777   8.569 -0.1788 -0.2552  0.9848
   16SAPS  H15X 2117   5.847   6.713   8.656  1.6615  0.6504  1.1709
   16SAPS  H15Y 2118   5.728   6.832   8.595  0.2172  0.1825  1.5113
   16SAPS  C316 2119   5.942   6.871   8.539 -0.3434  0.4324  0.0906
   16SAPS  H16X 2120   5.938   6.953   8.613  2.1833  0.2593  0.4835
   16SAPS  H16Y 2121   5.919   6.916   8.440 -0.0229 -3.1374 -1.7808
   16SAPS  C317 2122   6.076   6.803   8.537 -0.2944 -0.2913 -0.4028
   16SAPS  H17X 2123   6.078   6.718   8.466 -2.0944  1.1577 -2.3418
   16SAPS  H17Y 2124   6.113   6.774   8.637 -1.3272  2.7478  0.9699
   16SAPS  C318 2125   6.182   6.902   8.487 -0.6472  0.3513  0.2307
   16SAPS  H18X 2126   6.283   6.860   8.504 -0.1130  1.8229  0.7677
   16SAPS  H18Y 2127   6.167   6.987   8.556  0.6765  0.0462  0.9095
   16SAPS  H18Z 2128   6.167   6.917   8.378 -0.7624 -1.5886 -0.0590
   17SAPC     N 2129   3.158   3.570  10.327 -0.0803  0.0840  0.3965
   17SAPC   C12 2130   3.039   3.493  10.372  0.1054  0.2207 -0.1702
   17SAPC  H12A 2131   2.953   3.529  10.318  0.6636  0.4312 -0.9152
   17SAPC  H12B 2132   3.016   3.509  10.477  2.3974 -0.4865  0.4982
   17SAPC   C13 2133   3.138   3.715  10.336  0.0306 -0.2273  0.3074
   17SAPC  H13A 2134   3.052   3.747  10.280  1.2208  0.6471 -1.1020
   17SAPC  H13B 2135   3.129   3.752  10.437  1.6752  0.4792  0.2239
   17SAPC  H13C 2136   3.218   3.773  10.293  0.5954  0.4586  2.1858
   17SAPC   C14 2137   3.275   3.541  10.415  0.3281  0.0386 -0.5175
   17SAPC  H14A 2138   3.283   3.433  10.424 -1.0472 -0.0024  0.6575
   17SAPC  H14B 2139   3.363   3.580  10.367  0.5668 -0.3289 -0.3888
   17SAPC  H14C 2140   3.270   3.597  10.507  0.7678  0.0069 -0.4741
   17SAPC   C15 2141   3.188   3.530  10.191  0.0316  0.6509  0.6917
   17SAPC  H15A 2142   3.103   3.527  10.125  0.2367 -3.2010  0.3719
   17SAPC  H15B 2143   3.270   3.588  10.150  1.3605 -1.2014  0.5822
   17SAPC  H15C 2144   3.218   3.426  10.192 -0.8797  0.3802  0.7693
   17SAPC   C11 2145   3.037   3.334  10.356  0.4255 -0.0636  0.4645
   17SAPC  H11A 2146   3.030   3.316  10.247  3.0834 -0.1336  0.2537
   17SAPC  H11B 2147   2.941   3.312  10.409 -0.6968  0.0366 -1.4200
   17SAPC     P 2148   3.218   3.159  10.348 -0.4425 -0.0486 -0.1084
   17SAPC   O13 2149   3.243   3.197  10.205  0.1080 -0.4486 -0.3056
   17SAPC   O14 2150   3.335   3.117  10.426 -0.1854 -0.0640  0.2718
   17SAPC   O12 2151   3.150   3.282  10.419 -0.3465 -1.0499 -0.1479
   17SAPC   O11 2152   3.113   3.047  10.347  0.1695 -0.0037 -0.4855
   17SAPC    C1 2153   3.083   2.960  10.233 -0.0460 -0.1099  0.0155
   17SAPC    HA 2154   3.171   2.948  10.167 -0.4815  0.6071 -0.7071
   17SAPC    HB 2155   3.071   2.853  10.261  1.3669 -0.7395 -1.6359
   17SAPC    C2 2156   2.957   3.004  10.151  0.3724  0.3143  0.0993
   17SAPC    HS 2157   2.970   3.112  10.132 -0.8105  0.5078  0.2935
   17SAPC   O21 2158   2.838   2.979  10.230  0.4069  0.4530  0.4024
   17SAPC   C21 2159   2.740   3.079  10.219 -0.4354  0.3516  0.2559
   17SAPC   O22 2160   2.743   3.160  10.132  0.1826 -0.0676  0.2613
   17SAPC   C22 2161   2.629   3.056  10.315  0.5507 -0.0690 -0.2497
   17SAPC   H2R 2162   2.646   2.995  10.406 -0.4557 -0.0666 -0.0479
   17SAPC   H2S 2163   2.606   3.156  10.357 -0.4519 -0.1589 -0.5378
   17SAPC    C3 2164   2.954   2.923  10.021  0.3608  0.5692  0.4237
   17SAPC    HX 2165   2.934   2.816  10.046  1.6986  0.2776  0.3212
   17SAPC    HY 2166   3.055   2.921   9.975  0.2786  0.1718  0.2527
   17SAPC   O31 2167   2.865   2.957   9.918  0.3270  0.3786 -0.4180
   17SAPC   C31 2168   2.894   3.073   9.869 -0.0210 -0.6021 -0.2931
   17SAPC   O32 2169   3.000   3.137   9.884 -0.1178 -0.6255  0.1340
   17SAPC   C32 2170   2.776   3.123   9.779 -0.2160  0.4835 -0.5466
   17SAPC   H2X 2171   2.685   3.100   9.838 -1.8622  1.9715 -2.3848
   17SAPC   H2Y 2172   2.777   3.078   9.678 -0.2881  0.3271 -0.4781
   17SAPC   C23 2173   2.500   3.016  10.232 -0.1662 -1.0439 -0.0815
   17SAPC   H3R 2174   2.482   3.076  10.140  0.3501 -0.3689  0.2510
   17SAPC   H3S 2175   2.405   3.039  10.285 -1.4697 -0.6788 -2.3908
   17SAPC   C24 2176   2.500   2.865  10.198 -0.4602 -0.5010 -0.0257
   17SAPC   H4R 2177   2.395   2.833  10.184  0.0121 -1.4383 -1.7195
   17SAPC   H4S 2178   2.552   2.810  10.279  0.2141  0.8641  0.5042
   17SAPC   C25 2179   2.573   2.837  10.072 -0.0511  0.5161  0.4485
   17SAPC   H5R 2180   2.683   2.828  10.075 -0.0214  0.1519 -1.0128
   17SAPC   C26 2181   2.512   2.820   9.947  0.2096  0.0463 -0.5954
   17SAPC   H6R 2182   2.576   2.799   9.860  0.8760  2.5848 -0.8154
   17SAPC   C27 2183   2.368   2.842   9.903  0.6423  0.0294 -0.2680
   17SAPC   H7R 2184   2.297   2.786   9.967 -0.8650  1.3227 -0.7666
   17SAPC   H7S 2185   2.356   2.780   9.811  2.4495 -2.5074  1.0593
   17SAPC   C28 2186   2.319   2.976   9.893 -0.4735 -0.4139  0.6122
   17SAPC   H8R 2187   2.354   3.035   9.980 -1.0540  2.1608 -0.7932
   17SAPC   C29 2188   2.273   3.039   9.783 -0.0781 -0.5203 -0.2244
   17SAPC   H9R 2189   2.235   3.142   9.796  0.4237 -0.2885 -0.5591
   17SAPC  C210 2190   2.259   2.969   9.651 -0.4576 -0.2851  1.0108
   17SAPC  H10R 2191   2.174   2.898   9.654  0.8345 -1.9824 -0.1244
   17SAPC  H10S 2192   2.353   2.912   9.631 -0.3525  0.5908 -1.1916
   17SAPC  C211 2193   2.247   3.067   9.538  0.3337  0.2106 -0.3658
   17SAPC  H11R 2194   2.154   3.124   9.538  0.0412 -0.2246  0.7837
   17SAPC  C212 2195   2.330   3.081   9.436  0.1666 -0.3160 -0.3813
   17SAPC  H12R 2196   2.313   3.153   9.354 -2.0925  0.3612  0.6125
   17SAPC  C213 2197   2.456   3.000   9.415  0.3924 -0.2289  0.0140
   17SAPC  H13R 2198   2.432   2.891   9.413 -1.5395  0.1577  0.4402
   17SAPC  H13S 2199   2.515   3.006   9.510  3.2328  1.5268 -1.7079
   17SAPC  C214 2200   2.557   3.050   9.312 -0.1521  0.1970 -0.3640
   17SAPC  H14R 2201   2.515   3.138   9.259 -0.7984 -0.2949 -0.6855
   17SAPC  C215 2202   2.675   3.010   9.278 -0.4067  0.2591  0.1553
   17SAPC  H15R 2203   2.738   3.067   9.208 -1.9516  1.4024 -0.3322
   17SAPC  C216 2204   2.740   2.892   9.355  0.2177  0.9764  0.0632
   17SAPC  H16R 2205   2.759   2.817   9.276 -0.1346  2.0370 -1.0717
   17SAPC  H16S 2206   2.686   2.841   9.438 -0.3562  0.1485 -0.8015
   17SAPC  C217 2207   2.878   2.930   9.408 -0.0383 -0.1684 -0.4466
   17SAPC  H17R 2208   2.864   3.024   9.466  0.1790 -1.0171  1.0400
   17SAPC  H17S 2209   2.946   2.942   9.321 -2.4501 -0.7493 -2.5072
   17SAPC  C218 2210   2.938   2.829   9.509 -0.9802  0.0352 -0.1117
   17SAPC  H18R 2211   2.983   2.737   9.464 -1.7701 -0.8501  0.8507
   17SAPC  H18S 2212   2.865   2.798   9.587 -0.7064  0.0072  0.1359
   17SAPC  C219 2213   3.060   2.895   9.584  0.2804 -0.0954 -0.8206
   17SAPC  H19R 2214   3.038   2.993   9.633  2.3574 -0.1771  0.4395
   17SAPC  H19S 2215   3.136   2.929   9.510  0.1223 -0.0262 -0.9504
   17SAPC  C220 2216   3.125   2.806   9.691 -0.1198  0.6395  0.0779
   17SAPC  H20R 2217   3.181   2.725   9.639  0.2313  1.1384 -0.3345
   17SAPC  H20S 2218   3.050   2.771   9.764 -0.7145 -0.3878 -1.0041
   17SAPC  H20T 2219   3.203   2.863   9.746  0.3732 -0.8369  0.9677
   17SAPC   C33 2220   2.785   3.273   9.752 -0.1542  0.8519  0.1153
   17SAPC   H3X 2221   2.856   3.324   9.821  1.4930 -0.7370 -0.3359
   17SAPC   H3Y 2222   2.680   3.310   9.762 -1.0767 -1.3448 -0.7603
   17SAPC   C34 2223   2.818   3.310   9.608  0.1680  0.1770  0.3119
   17SAPC   H4X 2224   2.901   3.241   9.580  0.4975  0.6396  0.1496
   17SAPC   H4Y 2225   2.859   3.413   9.613  0.6917 -0.0573  1.1735
   17SAPC   C35 2226   2.715   3.310   9.498 -0.3856 -0.4462 -0.1604
   17SAPC   H5X 2227   2.643   3.390   9.526  0.4721 -0.2678  1.6293
   17SAPC   H5Y 2228   2.666   3.214   9.473  2.0333 -2.1641  1.3003
   17SAPC   C36 2229   2.782   3.364   9.367 -0.1026 -0.4022 -0.1885
   17SAPC   H6X 2230   2.863   3.299   9.328 -0.0795 -1.1516  1.0512
   17SAPC   H6Y 2231   2.835   3.461   9.374 -3.5198  1.6058 -0.0408
   17SAPC   C37 2232   2.686   3.385   9.251  0.1229  0.2867  0.1533
   17SAPC   H7X 2233   2.611   3.461   9.281  1.0070  1.0815  0.4163
   17SAPC   H7Y 2234   2.634   3.287   9.242 -0.7375  0.5425  1.8773
   17SAPC   C38 2235   2.749   3.428   9.123 -0.1829  0.9572 -0.2887
   17SAPC   H8X 2236   2.811   3.343   9.087  1.5563  1.8233  0.5245
   17SAPC   H8Y 2237   2.811   3.517   9.145  2.2516 -0.6602 -0.1221
   17SAPC   C39 2238   2.648   3.467   9.014  0.0061  0.3550  0.9102
   17SAPC   H9X 2239   2.578   3.539   9.060  1.0383  1.4116  0.8624
   17SAPC   H9Y 2240   2.597   3.374   8.980 -0.0543  0.2128  1.3800
   17SAPC  C310 2241   2.706   3.557   8.899  0.3810  0.1456 -0.2955
   17SAPC  H10X 2242   2.778   3.488   8.848 -0.8062 -0.2129 -1.5554
   17SAPC  H10Y 2243   2.752   3.651   8.935  1.6869  1.4250 -4.7356
   17SAPC  C311 2244   2.602   3.593   8.800 -0.0139  0.1902  0.1389
   17SAPC  H11X 2245   2.524   3.659   8.844  0.7722  1.3747 -0.1864
   17SAPC  H11Y 2246   2.547   3.514   8.743 -0.7295  2.7277 -3.0083
   17SAPC  C312 2247   2.663   3.683   8.686 -0.2834  0.3065  0.0848
   17SAPC  H12X 2248   2.687   3.782   8.732 -2.3292  0.2768  1.3362
   17SAPC  H12Y 2249   2.593   3.713   8.604  1.8815  1.9923 -1.2886
   17SAPC  C313 2250   2.793   3.628   8.613 -0.0759  0.0558  0.4488
   17SAPC  H13X 2251   2.762   3.525   8.584  0.7227 -0.3215  0.9209
   17SAPC  H13Y 2252   2.875   3.601   8.683 -0.1450 -0.5235  0.3145
   17SAPC  C314 2253   2.841   3.695   8.483  0.3126  0.3558  0.9293
   17SAPC  H14X 2254   2.745   3.721   8.435 -0.3785  0.1901  2.1640
   17SAPC  H14Y 2255   2.888   3.610   8.429  0.0496 -0.2921  1.6971
   17SAPC  C315 2256   2.946   3.809   8.485  0.5012 -0.4726 -0.4655
   17SAPC  H15X 2257   2.905   3.896   8.539 -2.0946  0.1724 -3.2245
   17SAPC  H15Y 2258   2.962   3.838   8.379 -0.1122 -0.6982 -0.6226
   17SAPC  C316 2259   3.083   3.767   8.546  0.2999 -0.5217 -0.9283
   17SAPC  H16X 2260   3.106   3.667   8.504  0.4028 -0.2548 -1.5218
   17SAPC  H16Y 2261   3.065   3.758   8.656 -2.0232  3.8376 -0.7495
   17SAPC  C317 2262   3.207   3.858   8.522  0.3858 -0.1362 -0.2574
   17SAPC  H17X 2263   3.220   3.885   8.415 -3.0833  2.5999 -0.1719
   17SAPC  H17Y 2264   3.291   3.792   8.552  1.1771  1.4307  1.1803
   17SAPC  C318 2265   3.195   3.990   8.610  0.1157  0.4782  0.4741
   17SAPC  H18X 2266   3.203   3.967   8.718 -1.4156 -2.2674  0.0788
   17SAPC  H18Y 2267   3.280   4.057   8.585 -0.4543  2.2111  2.8291
   17SAPC  H18Z 2268   3.101   4.046   8.590 -0.4527  0.0376  1.8081
   18SAPC     N 2269   3.254   2.956  10.804  0.4136 -0.4806 -0.1473
   18SAPC   C12 2270   3.220   2.955  10.654 -0.2472  0.1497 -0.3534
   18SAPC  H12A 2271   3.267   3.042  10.611  3.6548 -1.6996 -0.2696
   18SAPC  H12B 2272   3.116   2.979  10.638  0.2083 -0.1566 -5.1835
   18SAPC   C13 2273   3.399   2.941  10.821  0.2384 -0.6588 -0.1539
   18SAPC  H13A 2274   3.409   2.902  10.921 -1.8342 -0.5725  0.1297
   18SAPC  H13B 2275   3.439   2.864  10.756 -2.6945 -2.3392 -0.1487
   18SAPC  H13C 2276   3.449   3.036  10.813 -0.5649 -0.3487 -1.9540
   18SAPC   C14 2277   3.206   3.083  10.874 -0.2380  0.7176 -0.0844
   18SAPC  H14A 2278   3.193   3.069  10.981 -0.5417  2.3634  0.1177
   18SAPC  H14B 2279   3.285   3.156  10.867  2.5428 -1.9554  1.1367
   18SAPC  H14C 2280   3.116   3.118  10.827 -0.9618 -0.2411  0.5487
   18SAPC   C15 2281   3.182   2.837  10.862  0.3603 -0.4065  0.0975
   18SAPC  H15A 2282   3.079   2.835  10.832  0.2381  1.7343  0.2197
   18SAPC  H15B 2283   3.218   2.740  10.828 -1.4603 -1.3048  0.5906
   18SAPC  H15C 2284   3.194   2.826  10.969  1.7538 -0.3693 -0.0300
   18SAPC   C11 2285   3.261   2.832  10.569  0.5427 -0.0077 -0.0362
   18SAPC  H11A 2286   3.225   2.856  10.466 -0.5638 -0.9752  0.1082
   18SAPC  H11B 2287   3.197   2.746  10.599 -1.7519  1.6279  0.0462
   18SAPC     P 2288   3.461   2.677  10.499  0.1935  0.1876  0.3480
   18SAPC   O13 2289   3.600   2.716  10.457  0.0923 -0.1932 -0.1020
   18SAPC   O14 2290   3.443   2.563  10.583  0.4532 -0.1429 -0.1493
   18SAPC   O12 2291   3.395   2.801  10.571 -0.3755 -0.0042  0.4775
   18SAPC   O11 2292   3.377   2.660  10.370 -0.1551  0.8280 -0.2244
   18SAPC    C1 2293   3.388   2.751  10.262  0.3554  0.0526  0.7500
   18SAPC    HA 2294   3.283   2.784  10.247  0.7316 -0.2199 -3.4442
   18SAPC    HB 2295   3.450   2.839  10.289  1.7136 -0.3166 -1.0453
   18SAPC    C2 2296   3.419   2.679  10.127 -0.3432 -0.0993 -0.4976
   18SAPC    HS 2297   3.379   2.749  10.051 -1.1731 -1.1235 -1.0214
   18SAPC   O21 2298   3.343   2.552  10.134  0.5290  0.9366 -0.4785
   18SAPC   C21 2299   3.227   2.551  10.074 -0.3431 -0.4227 -0.0436
   18SAPC   O22 2300   3.173   2.651  10.021  0.3860  0.4361  0.7666
   18SAPC   C22 2301   3.166   2.410  10.073  0.1094  0.4552  0.7181
   18SAPC   H2R 2302   3.218   2.338  10.141  1.0070  1.4453  1.0997
   18SAPC   H2S 2303   3.062   2.429  10.109 -0.0156 -0.9295  1.1543
   18SAPC    C3 2304   3.569   2.646  10.125 -0.4398 -0.2877 -0.4986
   18SAPC    HX 2305   3.596   2.556  10.184  1.3341 -0.3404 -1.3423
   18SAPC    HY 2306   3.626   2.720  10.185  0.8941 -2.5606  1.1997
   18SAPC   O31 2307   3.612   2.641   9.982  0.6460  0.1158 -0.1781
   18SAPC   C31 2308   3.622   2.759   9.928  0.2520  0.3383 -0.2458
   18SAPC   O32 2309   3.588   2.865   9.987  0.5703 -0.2871 -0.0189
   18SAPC   C32 2310   3.687   2.754   9.790 -0.1988 -0.4023 -0.6766
   18SAPC   H2X 2311   3.619   2.681   9.742 -0.8953 -0.0331 -0.2554
   18SAPC   H2Y 2312   3.792   2.717   9.790 -0.4199 -1.0733 -1.7844
   18SAPC   C23 2313   3.160   2.342   9.928  0.8040 -0.1041  0.1625
   18SAPC   H3R 2314   3.093   2.407   9.869  0.0166  0.3763  1.5283
   18SAPC   H3S 2315   3.111   2.244   9.943  1.7066 -0.8520 -1.5256
   18SAPC   C24 2316   3.287   2.305   9.860 -0.4990 -0.0285  0.5879
   18SAPC   H4R 2317   3.348   2.237   9.923  0.2384  0.4250  0.3863
   18SAPC   H4S 2318   3.349   2.395   9.839  1.5682 -1.3414  0.8255
   18SAPC   C25 2319   3.263   2.236   9.727  0.2358  0.0983 -0.3565
   18SAPC   H5R 2320   3.275   2.127   9.738 -0.2552  0.0464 -0.3266
   18SAPC   C26 2321   3.237   2.294   9.607  0.3842 -0.1742 -0.0075
   18SAPC   H6R 2322   3.226   2.218   9.528  1.0082 -2.9551  2.3827
   18SAPC   C27 2323   3.222   2.443   9.567 -0.0845 -0.7603 -0.1121
   18SAPC   H7R 2324   3.268   2.518   9.635 -1.6319 -0.5007  0.6978
   18SAPC   H7S 2325   3.117   2.479   9.569  0.2829  0.3422 -0.0640
   18SAPC   C28 2326   3.288   2.485   9.441  0.3568 -0.6909  0.3042
   18SAPC   H8R 2327   3.396   2.504   9.431  0.2328 -0.9977 -2.0681
   18SAPC   C29 2328   3.236   2.470   9.320  0.3766  0.7517  0.0103
   18SAPC   H9R 2329   3.298   2.486   9.230  0.4696 -0.8212 -0.2434
   18SAPC  C210 2330   3.090   2.420   9.299 -0.3082  0.0286  0.0540
   18SAPC  H10R 2331   3.045   2.497   9.233  0.5396  0.6720  0.2175
   18SAPC  H10S 2332   3.032   2.414   9.394  0.5031 -0.0889  0.5475
   18SAPC  C211 2333   3.093   2.289   9.225 -0.3072 -0.0666  0.3886
   18SAPC  H11R 2334   3.075   2.198   9.284 -4.4224  0.3645  0.0497
   18SAPC  C212 2335   3.099   2.275   9.094  0.6125  0.2022  0.6132
   18SAPC  H12R 2336   3.125   2.182   9.042 -1.8027 -0.8908  1.2259
   18SAPC  C213 2337   3.098   2.402   9.011 -0.2085 -0.4954  0.5157
   18SAPC  H13R 2338   3.162   2.484   9.051 -0.5776  0.3275 -0.5322
   18SAPC  H13S 2339   2.996   2.445   9.011 -0.6138 -1.4447  0.9238
   18SAPC  C214 2340   3.148   2.373   8.866  0.4776 -0.6355  0.4544
   18SAPC  H14R 2341   3.229   2.299   8.854  0.0188 -0.8826 -1.4606
   18SAPC  C215 2342   3.110   2.422   8.746 -0.4160 -0.8771  0.1005
   18SAPC  H15R 2343   3.164   2.395   8.654  0.8525  0.0311  0.5449
   18SAPC  C216 2344   2.989   2.508   8.716  0.2234 -0.0541  0.3995
   18SAPC  H16R 2345   2.927   2.539   8.803 -0.8812  2.6481 -1.2174
   18SAPC  H16S 2346   2.914   2.456   8.652 -0.7207 -1.6680  2.6764
   18SAPC  C217 2347   3.028   2.633   8.640  0.2880 -0.0563 -0.2012
   18SAPC  H17R 2348   3.097   2.618   8.553 -0.6398 -3.9051 -0.4559
   18SAPC  H17S 2349   3.085   2.699   8.710 -2.0706  0.3623  1.4411
   18SAPC  C218 2350   2.906   2.710   8.591  0.0357 -0.2719  0.0884
   18SAPC  H18R 2351   2.927   2.819   8.598 -0.0744 -0.2582  0.2068
   18SAPC  H18S 2352   2.818   2.690   8.656 -1.3957 -0.4940 -1.8367
   18SAPC  C219 2353   2.855   2.671   8.451 -0.5040  0.0834 -0.5000
   18SAPC  H19R 2354   2.802   2.574   8.465 -0.9224  0.4098  0.2282
   18SAPC  H19S 2355   2.931   2.661   8.370 -1.0864  1.2679 -1.2198
   18SAPC  C220 2356   2.756   2.766   8.399  1.5058  0.1403  0.5808
   18SAPC  H20R 2357   2.714   2.734   8.301  2.8245  0.5671 -0.1456
   18SAPC  H20S 2358   2.788   2.868   8.370 -1.7978  1.5043  1.2975
   18SAPC  H20T 2359   2.682   2.781   8.480 -0.1717 -2.0412 -0.4157
   18SAPC   C33 2360   3.679   2.893   9.727  0.1734 -0.6779 -0.0810
   18SAPC   H3X 2361   3.728   2.965   9.795 -1.8618 -0.6258  1.4156
   18SAPC   H3Y 2362   3.574   2.928   9.727  0.5131  0.3817 -0.2736
   18SAPC   C34 2363   3.727   2.892   9.584  0.5055 -0.0155 -1.1216
   18SAPC   H4X 2364   3.831   2.855   9.588  0.7104  0.6438  0.1338
   18SAPC   H4Y 2365   3.724   2.993   9.536 -0.5611  0.5934  0.1590
   18SAPC   C35 2366   3.660   2.794   9.491 -0.0586  0.7621  0.3616
   18SAPC   H5X 2367   3.668   2.687   9.519 -1.5782  0.4721 -0.1681
   18SAPC   H5Y 2368   3.726   2.809   9.403  0.1200 -0.1497  0.3273
   18SAPC   C36 2369   3.521   2.839   9.440  0.0098 -0.5628 -0.5443
   18SAPC   H6X 2370   3.521   2.950   9.439  1.9693 -0.4411  2.0524
   18SAPC   H6Y 2371   3.446   2.807   9.515  0.4281 -1.0771 -0.3443
   18SAPC   C37 2372   3.486   2.798   9.294 -0.3016  0.6387 -0.3001
   18SAPC   H7X 2373   3.488   2.687   9.284  0.9891  0.7378 -1.2532
   18SAPC   H7Y 2374   3.575   2.839   9.242  0.6476 -0.2848  0.5561
   18SAPC   C38 2375   3.343   2.857   9.265 -0.5786  0.1319  1.0148
   18SAPC   H8X 2376   3.353   2.968   9.263  0.8573  0.0706 -2.1319
   18SAPC   H8Y 2377   3.276   2.825   9.347 -3.4170  0.3081 -1.0622
   18SAPC   C39 2378   3.270   2.813   9.137  0.3245  0.0402 -0.4923
   18SAPC   H9X 2379   3.276   2.703   9.122  0.6911  0.0445 -0.3875
   18SAPC   H9Y 2380   3.309   2.857   9.043  0.3786  0.7685 -0.1333
   18SAPC  C310 2381   3.115   2.841   9.127  0.1781 -0.3333  0.7978
   18SAPC  H10X 2382   3.101   2.951   9.138  2.3587  0.0799 -0.0816
   18SAPC  H10Y 2383   3.068   2.790   9.213 -0.6188 -3.0498 -1.1051
   18SAPC  C311 2384   3.038   2.786   9.012 -0.1265  0.3450  0.7274
   18SAPC  H11X 2385   3.031   2.675   9.023  1.8807  0.0862 -0.1529
   18SAPC  H11Y 2386   3.088   2.800   8.914 -0.7604  3.7046  0.7609
   18SAPC  C312 2387   2.895   2.841   8.997  0.4437  0.3824 -0.5363
   18SAPC  H12X 2388   2.835   2.806   9.083  0.0652 -1.2409 -1.4259
   18SAPC  H12Y 2389   2.867   2.792   8.902  0.7035  1.1136 -1.0014
   18SAPC  C313 2390   2.876   2.993   8.976 -0.8330  0.0471 -0.4160
   18SAPC  H13X 2391   2.956   3.039   8.914  1.2369  1.2534  2.9182
   18SAPC  H13Y 2392   2.890   3.033   9.078 -0.1997 -2.1217  0.4076
   18SAPC  C314 2393   2.747   3.031   8.915 -0.3212 -0.3050  0.1883
   18SAPC  H14X 2394   2.720   3.133   8.948 -1.4570 -0.1794 -1.0218
   18SAPC  H14Y 2395   2.667   2.969   8.961 -1.2714  0.4558 -0.4076
   18SAPC  C315 2396   2.750   3.019   8.759 -0.2783 -0.8738 -0.0224
   18SAPC  H15X 2397   2.769   2.915   8.725  1.0819 -2.0140  3.7001
   18SAPC  H15Y 2398   2.843   3.070   8.725 -0.1739 -0.9818  0.1015
   18SAPC  C316 2399   2.619   3.060   8.693  0.4345 -0.2313  0.4286
   18SAPC  H16X 2400   2.536   2.990   8.719 -0.2186  0.2662 -0.2632
   18SAPC  H16Y 2401   2.637   3.065   8.583 -1.5283 -0.0029  0.0907
   18SAPC  C317 2402   2.561   3.205   8.729  1.0675  0.6063 -0.7334
   18SAPC  H17X 2403   2.642   3.280   8.741  0.4204  1.2117 -0.0595
   18SAPC  H17Y 2404   2.511   3.183   8.826 -1.6784  0.5627 -2.0636
   18SAPC  C318 2405   2.452   3.253   8.635 -0.2501  0.0221 -0.6007
   18SAPC  H18X 2406   2.407   3.350   8.664  1.2123  0.4810  0.2268
   18SAPC  H18Y 2407   2.368   3.180   8.629 -0.3995  0.0959  0.3301
   18SAPC  H18Z 2408   2.482   3.248   8.529 -1.5856 -1.3591 -0.9557
   19SAPC     N 2409   3.052   5.829  10.797 -0.1054 -0.2223 -0.3898
   19SAPC   C12 2410   3.100   5.922  10.690 -0.0732 -0.0695  0.4959
   19SAPC  H12A 2411   3.021   5.986  10.654 -0.9534 -2.8761 -3.1867
   19SAPC  H12B 2412   3.120   5.859  10.604  0.4541 -0.4050  0.8560
   19SAPC   C13 2413   2.935   5.743  10.748  0.5804  0.6055 -0.2850
   19SAPC  H13A 2414   2.960   5.664  10.678 -2.8010  0.6116 -1.6724
   19SAPC  H13B 2415   2.887   5.691  10.830  1.7793 -1.0487 -0.5666
   19SAPC  H13C 2416   2.869   5.810  10.696 -2.0368  0.5022  2.6328
   19SAPC   C14 2417   3.162   5.733  10.846  0.3875 -0.3654 -0.4533
   19SAPC  H14A 2418   3.124   5.661  10.917  1.9008  0.3635  1.1685
   19SAPC  H14B 2419   3.217   5.694  10.762  3.0895  1.5235  0.3019
   19SAPC  H14C 2420   3.237   5.792  10.896 -0.0936 -0.9604  1.0152
   19SAPC   C15 2421   2.993   5.906  10.913  0.1658  0.3931 -0.1163
   19SAPC  H15A 2422   3.057   5.984  10.951 -1.2010  1.2774  0.4735
   19SAPC  H15B 2423   2.901   5.956  10.887  0.9779  1.7810 -0.4177
   19SAPC  H15C 2424   2.978   5.837  10.995  0.3105  1.6159  0.9673
   19SAPC   C11 2425   3.241   5.991  10.704  0.9488 -0.5778 -0.4075
   19SAPC  H11A 2426   3.228   6.041  10.802  1.5145 -1.0791 -0.0676
   19SAPC  H11B 2427   3.249   6.066  10.623  1.6401 -1.4035 -1.1210
   19SAPC     P 2428   3.404   5.854  10.554  0.0870  0.4975 -0.0070
   19SAPC   O13 2429   3.492   5.961  10.504 -0.5564  0.1605  0.3378
   19SAPC   O14 2430   3.454   5.716  10.561  0.3136 -0.0977  0.0244
   19SAPC   O12 2431   3.345   5.893  10.690 -0.3784  0.0747 -0.1886
   19SAPC   O11 2432   3.270   5.849  10.468  0.3589  0.0672 -0.6579
   19SAPC    C1 2433   3.286   5.854  10.324  0.0275 -0.3951 -0.4063
   19SAPC    HA 2434   3.384   5.816  10.288  0.3865  0.7266 -0.6531
   19SAPC    HB 2435   3.203   5.784  10.300 -1.3092  0.9546  0.0933
   19SAPC    C2 2436   3.261   5.996  10.268  0.4386 -0.2651 -0.0631
   19SAPC    HS 2437   3.331   6.074  10.307  0.7780  0.0335 -1.2186
   19SAPC   O21 2438   3.129   6.027  10.302 -0.3097  0.0290 -0.5923
   19SAPC   C21 2439   3.102   6.160  10.300  0.5053 -0.2036  0.3568
   19SAPC   O22 2440   3.178   6.250  10.269  0.0952  0.2921  0.2019
   19SAPC   C22 2441   2.962   6.173  10.349  0.0849  0.6487 -0.4990
   19SAPC   H2R 2442   2.917   6.082  10.395 -0.5402 -1.0237 -4.0311
   19SAPC   H2S 2443   2.956   6.266  10.409  0.9044  0.9087 -0.8071
   19SAPC    C3 2444   3.263   5.985  10.111  0.1274 -0.3661  0.3114
   19SAPC    HX 2445   3.229   6.078  10.061 -0.7970 -0.4701  0.7126
   19SAPC    HY 2446   3.174   5.919  10.099 -0.0524 -0.1326  0.3435
   19SAPC   O31 2447   3.385   5.934  10.064  0.0582 -0.1397  0.1977
   19SAPC   C31 2448   3.472   6.038  10.044 -1.0419  0.7037 -0.4406
   19SAPC   O32 2449   3.454   6.152  10.076  0.0383 -0.1692  0.1186
   19SAPC   C32 2450   3.599   5.987   9.986 -0.3900  0.1856  0.2625
   19SAPC   H2X 2451   3.601   5.877   9.997  0.5530  0.1614 -0.0077
   19SAPC   H2Y 2452   3.681   6.011  10.058  0.9403 -1.7772 -0.4962
   19SAPC   C23 2453   2.862   6.201  10.231 -0.2650  0.2411  0.2608
   19SAPC   H3R 2454   2.756   6.174  10.249 -0.7920  2.2978  0.4648
   19SAPC   H3S 2455   2.898   6.140  10.146 -1.3579  0.2639 -0.2314
   19SAPC   C24 2456   2.867   6.349  10.187  0.8016 -0.5822  0.2432
   19SAPC   H4R 2457   2.973   6.383  10.188  1.2374 -1.5554 -2.7580
   19SAPC   H4S 2458   2.804   6.411  10.255 -0.7920 -0.6788 -1.0617
   19SAPC   C25 2459   2.813   6.383  10.054  0.3815  0.2905 -0.4125
   19SAPC   H5R 2460   2.706   6.408  10.053  0.3955  0.4764  0.9616
   19SAPC   C26 2461   2.881   6.390   9.939  0.3109  0.0709 -0.2508
   19SAPC   H6R 2462   2.820   6.417   9.852 -1.5586 -0.2180  0.9108
   19SAPC   C27 2463   3.030   6.360   9.923  0.5687 -0.2398  0.1891
   19SAPC   H7R 2464   3.069   6.348  10.027 -1.9884 -1.0966  1.1306
   19SAPC   H7S 2465   3.089   6.445   9.881 -1.8982  1.3244 -0.3063
   19SAPC   C28 2466   3.062   6.234   9.853 -0.3697  0.4216  0.0040
   19SAPC   H8R 2467   3.006   6.143   9.877 -0.2080 -0.5326 -2.9204
   19SAPC   C29 2468   3.153   6.222   9.752 -0.0179 -0.1777  0.1545
   19SAPC   H9R 2469   3.169   6.119   9.717  1.3111  0.4059 -1.0232
   19SAPC  C210 2470   3.233   6.327   9.673  0.0290  0.1487 -1.4222
   19SAPC  H10R 2471   3.174   6.421   9.672 -0.0957  0.0720 -1.4103
   19SAPC  H10S 2472   3.245   6.287   9.570  1.8844 -0.1247 -1.1386
   19SAPC  C211 2473   3.367   6.357   9.744  0.2419 -0.5717  0.0022
   19SAPC  H11R 2474   3.362   6.402   9.844  0.7386 -0.0890 -0.1808
   19SAPC  C212 2475   3.488   6.333   9.692 -0.0120  0.5165  0.0701
   19SAPC  H12R 2476   3.566   6.343   9.769 -0.1084 -2.0865  0.6308
   19SAPC  C213 2477   3.527   6.269   9.564  0.3679  0.1286  0.5976
   19SAPC  H13R 2478   3.442   6.254   9.494  0.9181 -1.9740  0.3100
   19SAPC  H13S 2479   3.554   6.163   9.584 -0.5601 -0.3282 -0.4649
   19SAPC  C214 2480   3.645   6.338   9.507 -0.2771 -0.0746 -0.0703
   19SAPC  H14R 2481   3.734   6.316   9.569 -0.6726 -0.6703  0.2886
   19SAPC  C215 2482   3.650   6.423   9.397  0.4030  0.2604 -0.4163
   19SAPC  H15R 2483   3.752   6.457   9.372  1.4306 -1.2914  1.4086
   19SAPC  C216 2484   3.532   6.464   9.308  0.1735  0.3711  0.6797
   19SAPC  H16R 2485   3.526   6.575   9.316 -0.6085  0.2024  3.1324
   19SAPC  H16S 2486   3.436   6.415   9.335 -0.2009 -0.1625 -1.4417
   19SAPC  C217 2487   3.566   6.419   9.164  0.2900  0.1797  0.0832
   19SAPC  H17R 2488   3.575   6.309   9.152  0.1974  0.2968 -1.2118
   19SAPC  H17S 2489   3.665   6.462   9.136  0.8590 -1.5486 -0.7541
   19SAPC  C218 2490   3.468   6.466   9.055  0.1790  0.0470  0.0750
   19SAPC  H18R 2491   3.454   6.576   9.064 -1.9616 -0.1077 -0.7314
   19SAPC  H18S 2492   3.371   6.412   9.064 -0.0108  0.6602  2.1543
   19SAPC  C219 2493   3.510   6.425   8.918 -0.2276 -0.2191  0.1874
   19SAPC  H19R 2494   3.555   6.324   8.925 -1.7129 -1.1148 -1.9677
   19SAPC  H19S 2495   3.598   6.486   8.888  0.5448 -1.7764 -0.8618
   19SAPC  C220 2496   3.410   6.421   8.806  0.0268  0.7720  0.1699
   19SAPC  H20R 2497   3.318   6.361   8.823  0.6336 -0.9489 -2.1015
   19SAPC  H20S 2498   3.452   6.379   8.712 -3.2026 -2.1403 -0.1683
   19SAPC  H20T 2499   3.394   6.526   8.774  0.5645  0.9052  0.3253
   19SAPC   C33 2500   3.629   6.039   9.839 -0.6064 -0.2587 -0.3216
   19SAPC   H3X 2501   3.675   6.140   9.840 -0.2414 -0.3999 -1.1793
   19SAPC   H3Y 2502   3.533   6.056   9.785 -0.3135 -1.1789 -1.1703
   19SAPC   C34 2503   3.723   5.948   9.768  0.0376 -0.6684 -0.3133
   19SAPC   H4X 2504   3.671   5.850   9.756  2.0377 -2.1655  2.1751
   19SAPC   H4Y 2505   3.804   5.931   9.842  1.3978 -0.9336 -1.7979
   19SAPC   C35 2506   3.773   6.008   9.639 -0.3259  0.4391  0.1481
   19SAPC   H5X 2507   3.815   6.109   9.660 -1.1148  0.9889 -0.8586
   19SAPC   H5Y 2508   3.702   6.009   9.553 -1.4127  0.8522  1.0339
   19SAPC   C36 2509   3.898   5.931   9.594  0.7298  0.7025  0.9467
   19SAPC   H6X 2510   3.863   5.825   9.592  1.2066  0.5502 -0.2074
   19SAPC   H6Y 2511   3.975   5.942   9.673 -0.3133 -2.2972  2.5573
   19SAPC   C37 2512   3.959   5.960   9.459 -0.1750 -0.0281  0.2874
   19SAPC   H7X 2513   3.877   5.954   9.385  0.8912 -1.2734 -0.8278
   19SAPC   H7Y 2514   4.040   5.891   9.428  1.1321  1.6547 -0.2078
   19SAPC   C38 2515   4.015   6.100   9.452 -0.8027  0.1762 -0.2511
   19SAPC   H8X 2516   4.108   6.107   9.513 -0.3607 -0.8873 -0.7815
   19SAPC   H8Y 2517   3.946   6.179   9.486 -1.9725 -0.3011 -1.4312
   19SAPC   C39 2518   4.065   6.138   9.317  0.1574  0.0770  0.7707
   19SAPC   H9X 2519   4.156   6.079   9.293 -0.7901 -1.3399  0.5778
   19SAPC   H9Y 2520   4.094   6.245   9.303 -0.5284  0.3485  1.3715
   19SAPC  C310 2521   3.971   6.108   9.198 -0.3109  0.3760 -0.0549
   19SAPC  H10X 2522   3.867   6.139   9.221 -0.0683  1.2101 -0.0775
   19SAPC  H10Y 2523   3.952   6.001   9.175  3.4791 -0.5007  0.2450
   19SAPC  C311 2524   4.006   6.179   9.066  1.0543 -0.1659  0.7659
   19SAPC  H11X 2525   4.099   6.133   9.028  1.5747  0.9448  0.6371
   19SAPC  H11Y 2526   4.022   6.289   9.077  1.8685 -0.3216  1.2576
   19SAPC  C312 2527   3.899   6.172   8.956  0.2460  0.2031 -0.5645
   19SAPC  H12X 2528   3.824   6.237   9.006  0.2608 -0.2612  0.0897
   19SAPC  H12Y 2529   3.862   6.067   8.958  4.4717 -1.4911  0.8833
   19SAPC  C313 2530   3.924   6.217   8.810 -0.2706 -0.7728  0.1201
   19SAPC  H13X 2531   4.007   6.151   8.778  0.7939 -0.3857  1.9411
   19SAPC  H13Y 2532   3.953   6.324   8.805 -1.9903 -0.3005 -0.5092
   19SAPC  C314 2533   3.803   6.200   8.719  0.4726  0.6134  0.2187
   19SAPC  H14X 2534   3.719   6.258   8.762  1.2312  0.8598  1.4166
   19SAPC  H14Y 2535   3.776   6.093   8.729 -0.9780  1.0318  1.0237
   19SAPC  C315 2536   3.833   6.236   8.573 -0.2621  0.6822  0.8021
   19SAPC  H15X 2537   3.906   6.160   8.537 -0.4297 -0.1946  2.2238
   19SAPC  H15Y 2538   3.883   6.334   8.569 -0.3922  0.7173 -1.8721
   19SAPC  C316 2539   3.713   6.234   8.476  0.1328 -0.2063  0.5187
   19SAPC  H16X 2540   3.653   6.326   8.493  0.7415  0.4777 -0.9012
   19SAPC  H16Y 2541   3.631   6.163   8.499 -0.8482  0.6687 -0.1876
   19SAPC  C317 2542   3.754   6.233   8.324 -0.3865  0.0211  0.4875
   19SAPC  H17X 2543   3.816   6.142   8.315 -0.0481  0.4621 -2.2954
   19SAPC  H17Y 2544   3.819   6.323   8.316 -1.1478  0.4825 -0.8013
   19SAPC  C318 2545   3.642   6.241   8.225 -0.3178 -0.4280 -0.8524
   19SAPC  H18X 2546   3.589   6.339   8.234 -1.0907 -0.9603  0.9825
   19SAPC  H18Y 2547   3.572   6.156   8.239 -0.9649  0.1310 -0.5749
   19SAPC  H18Z 2548   3.696   6.249   8.129  1.6170  1.6020  0.2856
   20SAPC     N 2549   1.177   0.939  11.164  0.4360  0.7748  0.0772
   20SAPC   C12 2550   1.175   0.949  11.010 -0.3381  0.2671  0.2582
   20SAPC  H12A 2551   1.071   0.957  10.980 -0.4934  0.2067  0.7642
   20SAPC  H12B 2552   1.208   0.856  10.967 -1.9805 -1.3191  2.1576
   20SAPC   C13 2553   1.074   0.837  11.222  0.6164  0.0963 -0.1653
   20SAPC  H13A 2554   1.074   0.750  11.158 -1.1433 -0.9078  1.1032
   20SAPC  H13B 2555   1.090   0.797  11.321 -0.2504 -0.4137 -0.2173
   20SAPC  H13C 2556   0.975   0.880  11.228  0.1816 -0.9132  0.2151
   20SAPC   C14 2557   1.318   0.908  11.207  0.5985  0.2324  0.0821
   20SAPC  H14A 2558   1.361   1.006  11.221 -0.0159  0.4679  0.3862
   20SAPC  H14B 2559   1.320   0.859  11.303 -2.3284 -0.5199 -0.1263
   20SAPC  H14C 2560   1.355   0.849  11.124 -0.1553 -2.6892  1.7026
   20SAPC   C15 2561   1.135   1.065  11.226 -0.1198 -0.0468  0.2914
   20SAPC  H15A 2562   1.128   1.054  11.333  0.1481 -2.5592  0.1132
   20SAPC  H15B 2563   1.211   1.138  11.203 -0.9482  0.9666  0.6584
   20SAPC  H15C 2564   1.047   1.109  11.181 -0.4107  1.8430  2.4951
   20SAPC   C11 2565   1.243   1.075  10.947  0.1089  0.0130  0.6240
   20SAPC  H11A 2566   1.238   1.073  10.836  2.8703  1.2854  0.3858
   20SAPC  H11B 2567   1.351   1.074  10.974  0.5698 -0.3707 -1.1447
   20SAPC     P 2568   1.051   1.262  10.936 -0.3500 -0.1981  0.0664
   20SAPC   O13 2569   0.937   1.203  11.018 -0.0004  0.0312 -0.6888
   20SAPC   O14 2570   1.056   1.410  10.937  0.1577 -0.6123 -0.1545
   20SAPC   O12 2571   1.189   1.201  11.000  0.2789  0.6788  0.4995
   20SAPC   O11 2572   1.039   1.196  10.787  0.3731 -0.4011  0.1900
   20SAPC    C1 2573   1.096   1.269  10.679  0.2238  0.0013  0.4066
   20SAPC    HA 2574   1.059   1.373  10.667 -0.2390 -0.2635 -0.6215
   20SAPC    HB 2575   1.201   1.293  10.706  0.5907 -0.7912 -0.2513
   20SAPC    C2 2576   1.093   1.195  10.542  0.1323  0.1446  0.5555
   20SAPC    HS 2577   1.149   1.250  10.464  0.3052  0.4869  0.9142
   20SAPC   O21 2578   0.956   1.176  10.497 -0.4211  0.1921  0.3798
   20SAPC   C21 2579   0.906   1.285  10.443 -0.8235  0.7657 -0.0688
   20SAPC   O22 2580   0.959   1.390  10.431  0.1910 -0.4011  0.9532
   20SAPC   C22 2581   0.763   1.255  10.433 -0.4739  0.3567  0.3832
   20SAPC   H2R 2582   0.755   1.151  10.395  1.1422  0.9524 -1.7700
   20SAPC   H2S 2583   0.725   1.261  10.537  0.5555  0.6864  0.7546
   20SAPC    C3 2584   1.151   1.056  10.560 -0.1202  0.6658  0.3305
   20SAPC    HX 2585   1.101   1.010  10.648 -0.3961 -0.7780 -0.5291
   20SAPC    HY 2586   1.259   1.060  10.583  0.4368  2.6232 -2.1726
   20SAPC   O31 2587   1.122   0.963  10.450 -0.7861 -0.1009  0.8329
   20SAPC   C31 2588   1.199   0.972  10.341  0.8933 -0.1411  0.2631
   20SAPC   O32 2589   1.288   1.053  10.323 -0.3075 -0.1781  0.2489
   20SAPC   C32 2590   1.154   0.867  10.239 -0.4873 -0.0592  0.4994
   20SAPC   H2X 2591   1.044   0.885  10.238 -0.1266  2.6731  1.2473
   20SAPC   H2Y 2592   1.163   0.765  10.282 -2.7597  0.5546  2.6811
   20SAPC   C23 2593   0.693   1.354  10.335 -0.0145  0.3912  0.0017
   20SAPC   H3R 2594   0.738   1.456  10.340 -0.0023  0.5022 -1.7458
   20SAPC   H3S 2595   0.589   1.377  10.368 -0.3984  0.7133 -1.3746
   20SAPC   C24 2596   0.681   1.315  10.186 -0.6836  0.3065 -0.0415
   20SAPC   H4R 2597   0.614   1.379  10.125  0.1571  1.3816  0.1229
   20SAPC   H4S 2598   0.641   1.212  10.195  1.2645 -0.3922  1.4460
   20SAPC   C25 2599   0.815   1.304  10.120 -0.0246  0.0799 -0.1562
   20SAPC   H5R 2600   0.882   1.390  10.136  0.6543 -0.0583 -1.9897
   20SAPC   C26 2601   0.860   1.205  10.040 -0.3287 -0.5227  0.0217
   20SAPC   H6R 2602   0.955   1.219   9.985  0.7234  2.1312  2.2759
   20SAPC   C27 2603   0.784   1.083   9.989 -0.0452  0.7494 -0.5595
   20SAPC   H7R 2604   0.711   1.043  10.062  0.3485 -3.3336 -2.1238
   20SAPC   H7S 2605   0.851   1.000   9.961 -1.8871 -1.2632  0.6872
   20SAPC   C28 2606   0.686   1.129   9.879  0.1944  0.2031  0.7673
   20SAPC   H8R 2607   0.593   1.173   9.917  0.6215 -0.6644  2.9924
   20SAPC   C29 2608   0.702   1.110   9.749 -0.0141  0.8188  0.4439
   20SAPC   H9R 2609   0.615   1.137   9.687  0.1932  0.5220  0.0152
   20SAPC  C210 2610   0.812   1.029   9.679  0.2994  0.6192 -0.1629
   20SAPC  H10R 2611   0.910   1.045   9.728 -0.4033  3.1154  0.5958
   20SAPC  H10S 2612   0.831   1.057   9.573  1.6775  1.3058  0.2457
   20SAPC  C211 2613   0.763   0.891   9.675 -0.1340  0.2625  0.4565
   20SAPC  H11R 2614   0.709   0.868   9.768  0.0665  2.6872  1.2461
   20SAPC  C212 2615   0.775   0.801   9.569 -0.4094  0.2525  0.1832
   20SAPC  H12R 2616   0.732   0.700   9.574 -2.4736  1.1036  0.7378
   20SAPC  C213 2617   0.849   0.832   9.440 -0.0186 -0.0452  0.2006
   20SAPC  H13R 2618   0.912   0.741   9.428  1.7391  0.7047  2.8459
   20SAPC  H13S 2619   0.925   0.912   9.452  0.0467 -0.1763  0.6870
   20SAPC  C214 2620   0.765   0.859   9.323  0.0636  0.3278 -0.3739
   20SAPC  H14R 2621   0.656   0.875   9.331  0.1238  0.3570  0.5383
   20SAPC  C215 2622   0.810   0.852   9.195 -0.3968 -0.3000 -0.2233
   20SAPC  H15R 2623   0.745   0.886   9.113 -0.6699 -2.2837 -0.8933
   20SAPC  C216 2624   0.957   0.822   9.160 -0.1433 -0.4652 -0.1065
   20SAPC  H16R 2625   0.986   0.748   9.238  1.9810  1.2547  0.8429
   20SAPC  H16S 2626   1.018   0.914   9.176 -0.3637 -0.2145 -0.6944
   20SAPC  C217 2627   0.990   0.754   9.029 -0.7786 -0.5449  0.5262
   20SAPC  H17R 2628   1.101   0.753   9.019 -0.8417  1.1281 -0.7385
   20SAPC  H17S 2629   0.947   0.821   8.951 -0.0979  0.2542  0.8166
   20SAPC  C218 2630   0.937   0.610   9.020 -0.6731  0.3061  0.3754
   20SAPC  H18R 2631   0.826   0.616   9.028 -0.5902  1.5252  0.8537
   20SAPC  H18S 2632   0.975   0.548   9.104 -0.7988 -0.6458 -0.2607
   20SAPC  C219 2633   0.970   0.552   8.880  0.2229 -0.3320  0.3389
   20SAPC  H19R 2634   0.914   0.456   8.869 -1.7773  0.6785  1.1272
   20SAPC  H19S 2635   1.078   0.526   8.880 -0.1239 -1.8992  0.3748
   20SAPC  C220 2636   0.929   0.640   8.753  0.1471 -0.1517 -0.3322
   20SAPC  H20R 2637   0.822   0.667   8.750 -0.6801 -2.9083  0.7515
   20SAPC  H20S 2638   0.954   0.581   8.662  0.0169  1.8245 -1.6920
   20SAPC  H20T 2639   0.989   0.732   8.740  0.1134 -0.1774 -0.6697
   20SAPC   C33 2640   1.223   0.886  10.095 -0.2625  0.7933 -0.4257
   20SAPC   H3X 2641   1.333   0.877  10.110 -0.2821  1.2305  0.0233
   20SAPC   H3Y 2642   1.205   0.989  10.057  0.0007  0.5082 -1.3394
   20SAPC   C34 2643   1.171   0.805   9.976 -0.3143  0.6214 -0.4339
   20SAPC   H4X 2644   1.062   0.822   9.967 -0.6927 -0.7420  1.0185
   20SAPC   H4Y 2645   1.187   0.696   9.991 -2.3123  0.1204 -1.6157
   20SAPC   C35 2646   1.242   0.827   9.846 -0.3233 -0.2940  0.1493
   20SAPC   H5X 2647   1.351   0.808   9.850 -0.1809  0.5183  0.3518
   20SAPC   H5Y 2648   1.231   0.936   9.825 -0.8360 -0.0589  1.5377
   20SAPC   C36 2649   1.190   0.735   9.730 -0.2211  0.4500  0.0548
   20SAPC   H6X 2650   1.090   0.777   9.704 -1.6247 -1.7056  1.5790
   20SAPC   H6Y 2651   1.158   0.634   9.764  0.3073 -0.1322 -1.1323
   20SAPC   C37 2652   1.278   0.720   9.606  0.0387 -0.1338  0.0989
   20SAPC   H7X 2653   1.380   0.695   9.643  0.4783  1.3696 -0.0329
   20SAPC   H7Y 2654   1.302   0.821   9.568  0.3029 -0.8579 -1.7397
   20SAPC   C38 2655   1.226   0.627   9.504 -0.2035 -0.3938  0.0708
   20SAPC   H8X 2656   1.118   0.651   9.495 -0.1800 -0.3174 -0.0033
   20SAPC   H8Y 2657   1.227   0.524   9.548  0.4690 -0.2951  0.3062
   20SAPC   C39 2658   1.303   0.642   9.369 -0.7390 -0.0511 -0.6438
   20SAPC   H9X 2659   1.411   0.635   9.395 -1.1435  1.0331  1.6229
   20SAPC   H9Y 2660   1.270   0.743   9.337 -1.6426 -1.0458 -3.0724
   20SAPC  C310 2661   1.266   0.535   9.271  0.2914  0.1738  0.2832
   20SAPC  H10X 2662   1.156   0.526   9.255  0.6891 -1.7895 -1.9976
   20SAPC  H10Y 2663   1.282   0.433   9.312 -3.3275 -0.5012  0.3775
   20SAPC  C311 2664   1.336   0.552   9.132  0.3670 -0.9248 -0.9393
   20SAPC  H11X 2665   1.443   0.579   9.151  0.0303 -0.3548  0.2261
   20SAPC  H11Y 2666   1.286   0.640   9.087 -0.4460 -0.5620  0.5877
   20SAPC  C312 2667   1.314   0.427   9.046 -0.4081  0.0885 -0.3862
   20SAPC  H12X 2668   1.206   0.413   9.028 -0.5848 -1.1093  1.2859
   20SAPC  H12Y 2669   1.346   0.329   9.089  1.0020  0.7489  0.1554
   20SAPC  C313 2670   1.385   0.423   8.914 -0.0524 -1.4955 -0.5884
   20SAPC  H13X 2671   1.479   0.482   8.914 -1.2017  0.4032 -0.8801
   20SAPC  H13Y 2672   1.314   0.461   8.837  0.0492 -3.7714 -1.8848
   20SAPC  C314 2673   1.428   0.288   8.878 -0.6837  0.7244 -0.4562
   20SAPC  H14X 2674   1.340   0.220   8.877 -1.2774  1.3447  2.3030
   20SAPC  H14Y 2675   1.506   0.250   8.948 -0.8188  1.2097 -0.0351
   20SAPC  C315 2676   1.488   0.282   8.736  0.0891  0.2189 -0.3587
   20SAPC  H15X 2677   1.569   0.358   8.723  0.2099  0.4147  1.3191
   20SAPC  H15Y 2678   1.405   0.281   8.663 -1.3748  1.2811  1.2178
   20SAPC  C316 2679   1.569   0.157   8.697 -0.1105  0.6548  0.0876
   20SAPC  H16X 2680   1.504   0.073   8.729  1.7703 -0.3445  1.4981
   20SAPC  H16Y 2681   1.662   0.159   8.758  0.9913  0.0412 -1.5082
   20SAPC  C317 2682   1.594   0.152   8.547  0.3292 -0.5896  0.7655
   20SAPC  H17X 2683   1.643   0.248   8.521  2.4089 -1.2056  2.1629
   20SAPC  H17Y 2684   1.495   0.140   8.497  0.5865 -1.0681  0.3595
   20SAPC  C318 2685   1.686   0.047   8.498 -0.3820 -0.2098  0.0715
   20SAPC  H18X 2686   1.774   0.039   8.565  0.7405 -1.9379 -1.5062
   20SAPC  H18Y 2687   1.720   0.072   8.395 -0.1106 -0.2302  0.1560
   20SAPC  H18Z 2688   1.645  -0.056   8.499 -1.1468  0.0825  2.0959
   21SAPC     N 2689   1.281   2.422  10.926 -0.2658 -0.4510 -0.4937
   21SAPC   C12 2690   1.261   2.290  10.849  0.5179 -0.5700 -0.4002
   21SAPC  H12A 2691   1.161   2.255  10.868  0.1036  0.3176 -0.8987
   21SAPC  H12B 2692   1.327   2.219  10.897  1.6295  0.8208  0.1841
   21SAPC   C13 2693   1.202   2.531  10.862 -0.3017  0.4965 -0.2168
   21SAPC  H13A 2694   1.219   2.532  10.755  0.2665 -0.2441 -0.1364
   21SAPC  H13B 2695   1.098   2.511  10.884 -0.3635  0.4654 -0.5310
   21SAPC  H13C 2696   1.215   2.630  10.904  0.8410 -0.1353  0.9546
   21SAPC   C14 2697   1.225   2.403  11.070 -0.8045 -0.3820  0.6334
   21SAPC  H14A 2698   1.291   2.340  11.128 -1.5565 -1.0792  0.7562
   21SAPC  H14B 2699   1.211   2.500  11.116 -1.4430  0.4545 -1.2099
   21SAPC  H14C 2700   1.129   2.354  11.071 -2.0964  2.0069  1.3216
   21SAPC   C15 2701   1.426   2.472  10.934  0.0026 -0.5731  0.3696
   21SAPC  H15A 2702   1.454   2.521  10.842  0.9757 -1.3540  0.2228
   21SAPC  H15B 2703   1.439   2.548  11.009 -0.7222  0.8658 -0.9169
   21SAPC  H15C 2704   1.495   2.391  10.954 -0.2787 -1.3227 -1.4672
   21SAPC   C11 2705   1.281   2.288  10.699 -0.0125  0.0768 -0.0093
   21SAPC  H11A 2706   1.213   2.360  10.649  0.6574  0.9712  0.3370
   21SAPC  H11B 2707   1.275   2.187  10.653  1.5190 -0.5667  1.1262
   21SAPC     P 2708   1.535   2.244  10.686  0.3942  0.2573  0.0700
   21SAPC   O13 2709   1.661   2.322  10.681 -0.0625 -0.3871 -0.3138
   21SAPC   O14 2710   1.525   2.148  10.798  0.4462 -0.0427  0.4375
   21SAPC   O12 2711   1.407   2.346  10.672 -0.5213  0.3088  0.1482
   21SAPC   O11 2712   1.518   2.153  10.559  0.2379  0.1043 -0.2285
   21SAPC    C1 2713   1.506   2.211  10.432  0.2493 -0.2292 -0.6756
   21SAPC    HA 2714   1.401   2.242  10.416  0.2596  0.9922  1.2549
   21SAPC    HB 2715   1.575   2.297  10.420  0.7675 -0.4128  0.7625
   21SAPC    C2 2716   1.547   2.115  10.316  0.0985  0.2285 -0.1499
   21SAPC    HS 2717   1.625   2.167  10.256  0.4813  0.9201  0.9136
   21SAPC   O21 2718   1.436   2.078  10.236 -0.1610  0.3833 -0.0866
   21SAPC   C21 2719   1.405   2.158  10.140  1.0805  0.3606  0.3206
   21SAPC   O22 2720   1.465   2.260  10.118 -0.6377  0.1128  0.8553
   21SAPC   C22 2721   1.294   2.104  10.043  0.1731 -0.1973 -0.4603
   21SAPC   H2R 2722   1.248   2.023  10.103 -1.2935  1.5534  0.8743
   21SAPC   H2S 2723   1.221   2.186  10.028  1.0576  0.3971 -1.7393
   21SAPC    C3 2724   1.607   1.984  10.368 -0.5516  0.4182 -0.0982
   21SAPC    HX 2725   1.532   1.937  10.434 -0.1004 -0.0298  0.0976
   21SAPC    HY 2726   1.690   2.002  10.439 -0.4951 -2.3971  0.6468
   21SAPC   O31 2727   1.646   1.893  10.258 -0.3309  0.4745  0.2736
   21SAPC   C31 2728   1.578   1.779  10.233 -0.4196  0.0183 -1.2989
   21SAPC   O32 2729   1.475   1.757  10.291 -0.1118  0.2817  0.2299
   21SAPC   C32 2730   1.641   1.698  10.121 -0.4890 -0.5434 -0.0908
   21SAPC   H2X 2731   1.608   1.592  10.129 -0.5153 -0.4117  2.0197
   21SAPC   H2Y 2732   1.749   1.698  10.148  0.3427 -1.0595 -3.0157
   21SAPC   C23 2733   1.350   2.063   9.901  0.2455 -0.1023 -0.7052
   21SAPC   H3R 2734   1.456   2.033   9.912  0.0079 -1.0517 -0.9232
   21SAPC   H3S 2735   1.351   2.150   9.831 -0.2024  0.7601  0.3278
   21SAPC   C24 2736   1.273   1.944   9.848  0.2368  0.0031  0.0380
   21SAPC   H4R 2737   1.270   1.869   9.930  0.8762 -1.1651 -0.9814
   21SAPC   H4S 2738   1.327   1.899   9.762  2.5328  0.8302  0.9741
   21SAPC   C25 2739   1.126   1.973   9.810  0.2805  0.2714  0.3447
   21SAPC   H5R 2740   1.071   2.021   9.893 -1.0468  0.4572 -0.6292
   21SAPC   C26 2741   1.060   1.946   9.694  0.0476  0.0767 -0.3983
   21SAPC   H6R 2742   0.952   1.959   9.705  0.2120  1.2916 -0.0839
   21SAPC   C27 2743   1.115   1.878   9.567  0.4866  0.1553  0.0662
   21SAPC   H7R 2744   1.221   1.910   9.552  0.2692  0.4518 -0.8882
   21SAPC   H7S 2745   1.053   1.914   9.482  3.1452  0.2634 -1.9644
   21SAPC   C28 2746   1.129   1.738   9.556 -0.0691  0.1212 -0.1868
   21SAPC   H8R 2747   1.095   1.686   9.647  0.4620 -3.8558 -2.0353
   21SAPC   C29 2748   1.174   1.667   9.452 -0.0916  0.5568  0.0950
   21SAPC   H9R 2749   1.203   1.562   9.470 -2.1813  0.3263  2.7798
   21SAPC  C210 2750   1.228   1.713   9.324 -0.3863  0.9253  0.5869
   21SAPC  H10R 2751   1.337   1.693   9.311 -0.9026 -0.8944 -1.5477
   21SAPC  H10S 2752   1.222   1.824   9.316  0.5405  0.8825 -1.4299
   21SAPC  C211 2753   1.148   1.647   9.209  0.3377 -0.2373 -0.4891
   21SAPC  H11R 2754   1.055   1.698   9.180 -0.2475 -1.4300 -0.7444
   21SAPC  C212 2755   1.185   1.548   9.125 -0.1292 -0.2747  0.0324
   21SAPC  H12R 2756   1.111   1.516   9.051 -0.7296  2.6158 -0.7234
   21SAPC  C213 2757   1.313   1.468   9.130 -0.5474 -0.9935 -0.3107
   21SAPC  H13R 2758   1.347   1.453   9.234  1.6411 -0.4275 -0.8912
   21SAPC  H13S 2759   1.402   1.521   9.090 -0.0881 -0.5838  1.2174
   21SAPC  C214 2760   1.309   1.335   9.062  0.3100  0.2990  0.1473
   21SAPC  H14R 2761   1.275   1.257   9.131  0.2033  0.8282  0.6961
   21SAPC  C215 2762   1.354   1.302   8.943 -0.2425  0.1815  0.1109
   21SAPC  H15R 2763   1.344   1.201   8.901  2.8957 -0.0697 -0.2927
   21SAPC  C216 2764   1.402   1.407   8.851  0.4949 -0.3661  0.1252
   21SAPC  H16R 2765   1.499   1.455   8.876 -0.0810  1.1072 -0.3624
   21SAPC  H16S 2766   1.329   1.489   8.834 -0.1880 -0.9335  0.2668
   21SAPC  C217 2767   1.436   1.337   8.714 -0.4806 -0.4130 -0.1668
   21SAPC  H17R 2768   1.342   1.291   8.676 -0.7067  0.7460 -1.0721
   21SAPC  H17S 2769   1.516   1.261   8.724  0.3152  0.3695 -0.4530
   21SAPC  C218 2770   1.492   1.431   8.610  0.0897  0.1637 -0.1949
   21SAPC  H18R 2771   1.563   1.509   8.644 -0.7983  1.8461 -1.9921
   21SAPC  H18S 2772   1.405   1.497   8.587  0.1076  0.7200  1.2353
   21SAPC  C219 2773   1.543   1.356   8.491  0.2737 -0.0163 -0.4006
   21SAPC  H19R 2774   1.460   1.299   8.443 -2.5631  1.3050  2.5223
   21SAPC  H19S 2775   1.617   1.284   8.532 -0.9375 -1.0329  0.0713
   21SAPC  C220 2776   1.613   1.452   8.392  0.3149 -0.0957 -0.1371
   21SAPC  H20R 2777   1.537   1.516   8.342  2.6295  1.5019 -1.7943
   21SAPC  H20S 2778   1.678   1.405   8.316  0.4071 -1.2299  0.6130
   21SAPC  H20T 2779   1.684   1.515   8.449  3.7426 -1.0031 -3.1130
   21SAPC   C33 2780   1.620   1.754   9.979  0.4769  0.4583  0.4965
   21SAPC   H3X 2781   1.675   1.851   9.985 -1.9556  1.8929  0.6678
   21SAPC   H3Y 2782   1.513   1.772   9.956 -0.0468  0.3755  2.6024
   21SAPC   C34 2783   1.671   1.672   9.862 -0.0555  0.7632 -1.0596
   21SAPC   H4X 2784   1.620   1.574   9.854  0.1014  0.3095  2.1993
   21SAPC   H4Y 2785   1.780   1.654   9.874  0.1316  2.1013 -0.5656
   21SAPC   C35 2786   1.662   1.746   9.731 -0.3730 -0.1809  0.1189
   21SAPC   H5X 2787   1.701   1.850   9.743 -0.8200  0.0902 -0.7178
   21SAPC   H5Y 2788   1.554   1.738   9.706 -0.6849  0.9683  0.9963
   21SAPC   C36 2789   1.741   1.682   9.620  0.3470  0.4541  0.6693
   21SAPC   H6X 2790   1.711   1.575   9.612 -2.0821  1.0684  0.7042
   21SAPC   H6Y 2791   1.850   1.682   9.640  0.6950 -0.9203 -1.0471
   21SAPC   C37 2792   1.714   1.744   9.490 -0.8107  0.1458 -0.6449
   21SAPC   H7X 2793   1.741   1.852   9.497  1.1371 -0.4005  1.5554
   21SAPC   H7Y 2794   1.604   1.751   9.482 -1.0297  0.4721  1.8530
   21SAPC   C38 2795   1.777   1.685   9.363 -0.7149 -0.5173 -0.0991
   21SAPC   H8X 2796   1.783   1.574   9.374  0.2288 -0.5908 -1.1776
   21SAPC   H8Y 2797   1.882   1.720   9.353 -0.3586 -1.6908 -0.7084
   21SAPC   C39 2798   1.699   1.717   9.232  0.0636  0.3122 -0.1737
   21SAPC   H9X 2799   1.602   1.675   9.265  1.3225 -2.3316  0.4903
   21SAPC   H9Y 2800   1.734   1.658   9.145  0.1189 -0.1022  0.1279
   21SAPC  C310 2801   1.664   1.859   9.194  0.0544 -0.2390 -0.3830
   21SAPC  H10X 2802   1.742   1.921   9.145  0.0671 -0.3396 -0.4923
   21SAPC  H10Y 2803   1.634   1.908   9.289 -0.2506 -0.0620 -0.5686
   21SAPC  C311 2804   1.536   1.855   9.106 -0.2155  0.8471 -0.0121
   21SAPC  H11X 2805   1.495   1.957   9.094 -2.6254 -0.0119  0.4494
   21SAPC  H11Y 2806   1.454   1.797   9.153 -0.2610  0.3008 -0.7374
   21SAPC  C312 2807   1.565   1.798   8.963  0.7172 -0.0875 -0.8282
   21SAPC  H12X 2808   1.463   1.786   8.920  0.5104  2.4313 -1.2273
   21SAPC  H12Y 2809   1.616   1.700   8.957  0.2919 -0.3105 -0.8276
   21SAPC  C313 2810   1.637   1.904   8.886 -0.1845  0.3021 -0.3501
   21SAPC  H13X 2811   1.747   1.901   8.906 -0.3055  0.2777  0.3330
   21SAPC  H13Y 2812   1.600   2.005   8.914  1.7181  0.4636  1.9457
   21SAPC  C314 2813   1.611   1.877   8.738  1.4525  0.1964 -0.6233
   21SAPC  H14X 2814   1.505   1.849   8.727  1.0478  1.0875  0.7530
   21SAPC  H14Y 2815   1.677   1.790   8.717  0.1916 -1.2311  1.0835
   21SAPC  C315 2816   1.632   2.001   8.645 -0.7402 -0.4499  0.2937
   21SAPC  H15X 2817   1.727   2.054   8.667 -0.6597 -0.8316  0.8752
   21SAPC  H15Y 2818   1.553   2.072   8.677 -0.3573 -0.3424  1.0091
   21SAPC  C316 2819   1.636   1.972   8.487  0.3940  0.3225  0.4374
   21SAPC  H16X 2820   1.732   1.924   8.457 -0.0030 -0.0934 -0.1952
   21SAPC  H16Y 2821   1.639   2.071   8.435 -0.5965  0.2479  0.2107
   21SAPC  C317 2822   1.522   1.885   8.439  0.2008 -0.2521 -0.1650
   21SAPC  H17X 2823   1.422   1.922   8.471  0.9018  1.9429 -0.3564
   21SAPC  H17Y 2824   1.537   1.786   8.487 -0.1149 -0.8090 -1.1680
   21SAPC  C318 2825   1.516   1.880   8.291  0.4171  0.1694 -0.6088
   21SAPC  H18X 2826   1.478   1.972   8.241 -1.9214  1.2381  2.7782
   21SAPC  H18Y 2827   1.450   1.794   8.267  2.6949 -2.0206  0.6017
   21SAPC  H18Z 2828   1.619   1.863   8.254 -0.2989 -2.0114 -1.7897
   22SAPC     N 2829   0.685   3.372  10.963  0.2000 -0.3653 -0.0568
   22SAPC   C12 2830   0.657   3.452  10.839  0.6733  0.9450  0.5548
   22SAPC  H12A 2831   0.674   3.557  10.853 -0.7989  1.2735  0.0080
   22SAPC  H12B 2832   0.550   3.448  10.826  1.0106  0.1171 -3.2304
   22SAPC   C13 2833   0.619   3.237  10.950 -0.4849  0.3141 -0.6604
   22SAPC  H13A 2834   0.672   3.191  10.867 -0.4022  2.1235 -1.6681
   22SAPC  H13B 2835   0.628   3.192  11.047 -1.6894  1.9649  0.2573
   22SAPC  H13C 2836   0.516   3.245  10.920 -1.9934  0.0984  3.8378
   22SAPC   C14 2837   0.831   3.352  10.984 -0.5970 -0.0282 -0.1638
   22SAPC  H14A 2838   0.886   3.308  10.903  1.5758  1.2456  0.5163
   22SAPC  H14B 2839   0.881   3.446  11.001 -2.0467  1.4240 -3.2179
   22SAPC  H14C 2840   0.856   3.282  11.063  1.5921 -0.3773 -1.1089
   22SAPC   C15 2841   0.630   3.440  11.079 -0.1621 -0.4883  0.2008
   22SAPC  H15A 2842   0.677   3.534  11.103 -1.1973  0.4770 -1.3403
   22SAPC  H15B 2843   0.527   3.471  11.072  0.5653  2.2661  0.6498
   22SAPC  H15C 2844   0.630   3.387  11.173  0.0505  1.6246  1.4356
   22SAPC   C11 2845   0.730   3.407  10.716  0.0556 -0.1411 -0.0588
   22SAPC  H11A 2846   0.691   3.445  10.620  1.0744  1.5450  0.1695
   22SAPC  H11B 2847   0.727   3.297  10.701  1.0078  0.1858 -3.6448
   22SAPC     P 2848   0.933   3.576  10.690 -0.0748  0.1653  0.1701
   22SAPC   O13 2849   0.887   3.677  10.798  0.2122  0.1952  0.4929
   22SAPC   O14 2850   1.078   3.565  10.667  0.1595  0.4384 -0.4260
   22SAPC   O12 2851   0.871   3.432  10.719  0.5675 -0.1925 -0.1047
   22SAPC   O11 2852   0.874   3.617  10.549  0.4013 -0.5689 -0.2377
   22SAPC    C1 2853   0.878   3.544  10.425  0.1196  0.3285 -0.3391
   22SAPC    HA 2854   0.973   3.567  10.371  1.5443  3.0269  2.9660
   22SAPC    HB 2855   0.868   3.434  10.437  0.1203  0.0713 -2.3168
   22SAPC    C2 2856   0.764   3.590  10.327  0.5719  0.8492 -0.2841
   22SAPC    HS 2857   0.670   3.566  10.380  0.1177  1.7037 -0.6876
   22SAPC   O21 2858   0.765   3.519  10.201 -0.1380 -0.1515  0.3813
   22SAPC   C21 2859   0.656   3.504  10.127 -0.1560  0.8018 -0.4112
   22SAPC   O22 2860   0.544   3.544  10.162 -0.2241  0.1876 -0.1111
   22SAPC   C22 2861   0.690   3.427  10.003 -0.1555  0.1873 -0.2781
   22SAPC   H2R 2862   0.694   3.503   9.922  0.7049  0.3380 -0.1006
   22SAPC   H2S 2863   0.794   3.388  10.005 -1.0408 -2.3809 -0.5711
   22SAPC    C3 2864   0.756   3.743  10.307 -0.4415 -0.3900  0.1850
   22SAPC    HX 2865   0.766   3.791  10.407 -2.1899 -0.5317  0.4647
   22SAPC    HY 2866   0.660   3.770  10.258  0.8567  1.1727 -1.6314
   22SAPC   O31 2867   0.875   3.776  10.228 -0.2012 -0.7546  0.8117
   22SAPC   C31 2868   0.905   3.904  10.216 -0.3067 -0.5241  0.2701
   22SAPC   O32 2869   0.841   3.997  10.251  1.0613 -0.8432  0.5558
   22SAPC   C32 2870   1.038   3.933  10.141  0.5431 -0.1612 -0.2945
   22SAPC   H2X 2871   1.117   3.905  10.213  1.8087 -0.4618 -1.7570
   22SAPC   H2Y 2872   1.031   4.044  10.131 -0.7444 -0.1969 -0.0661
   22SAPC   C23 2873   0.590   3.312   9.962 -0.5739 -0.2081  0.4416
   22SAPC   H3R 2874   0.489   3.358   9.958 -0.4441 -0.0335 -1.3534
   22SAPC   H3S 2875   0.594   3.241  10.048 -2.8791 -1.2143 -0.2055
   22SAPC   C24 2876   0.615   3.245   9.825 -0.0178 -0.2397  0.5638
   22SAPC   H4R 2877   0.718   3.205   9.815  0.0757 -0.0430  0.7372
   22SAPC   H4S 2878   0.590   3.318   9.745  2.1452  1.8856  1.7030
   22SAPC   C25 2879   0.513   3.138   9.820 -0.1671  0.0892 -0.1050
   22SAPC   H5R 2880   0.499   3.081   9.912  0.5252 -0.2196 -0.1840
   22SAPC   C26 2881   0.426   3.107   9.721  0.2117 -0.4678  0.2751
   22SAPC   H6R 2882   0.358   3.023   9.742  0.2330 -0.4997  0.2160
   22SAPC   C27 2883   0.423   3.164   9.585  0.9260 -0.1837  0.4655
   22SAPC   H7R 2884   0.465   3.267   9.589 -1.5979  0.9109  0.0761
   22SAPC   H7S 2885   0.322   3.182   9.545  1.6329  0.0221 -1.2980
   22SAPC   C28 2886   0.509   3.088   9.486 -0.0064  0.1099 -0.1516
   22SAPC   H8R 2887   0.615   3.081   9.516 -0.1631 -1.2049  0.1700
   22SAPC   C29 2888   0.464   3.018   9.382 -0.2697 -0.2604  0.1988
   22SAPC   H9R 2889   0.543   2.972   9.320 -0.9108  0.7445 -1.4280
   22SAPC  C210 2890   0.319   3.014   9.331  0.0710  0.1668  0.4383
   22SAPC  H10R 2891   0.255   3.012   9.422  1.2117  0.2102  1.2701
   22SAPC  H10S 2892   0.290   2.917   9.284 -0.7656 -0.2543  1.7497
   22SAPC  C211 2893   0.300   3.139   9.246  0.8651  0.0627  0.2389
   22SAPC  H11R 2894   0.328   3.231   9.301 -0.2461  0.9460 -0.6191
   22SAPC  C212 2895   0.257   3.141   9.117  0.8098  0.0284  0.2348
   22SAPC  H12R 2896   0.246   3.235   9.061  2.2628  1.1961  1.7904
   22SAPC  C213 2897   0.219   3.017   9.028 -0.3526  0.5362  0.2963
   22SAPC  H13R 2898   0.167   2.943   9.093  0.4561 -0.7602 -0.4756
   22SAPC  H13S 2899   0.310   2.956   9.008 -0.6743  0.8462 -2.5337
   22SAPC  C214 2900   0.137   3.045   8.905 -0.0897  0.0034 -0.6904
   22SAPC  H14R 2901   0.038   3.088   8.929  0.3115  0.0963  0.8742
   22SAPC  C215 2902   0.165   3.016   8.777 -0.3754  1.0461  0.1423
   22SAPC  H15R 2903   0.095   3.043   8.697  1.3476 -0.6702 -2.1042
   22SAPC  C216 2904   0.290   2.954   8.713 -0.2123 -0.3100  0.5633
   22SAPC  H16R 2905   0.279   2.843   8.716  2.1578 -0.6082  0.2847
   22SAPC  H16S 2906   0.384   2.971   8.769  0.5019  1.4632 -1.0540
   22SAPC  C217 2907   0.314   3.001   8.573  0.1935 -0.8865  0.1692
   22SAPC  H17R 2908   0.356   3.104   8.574  0.0017 -0.7996 -0.5311
   22SAPC  H17S 2909   0.217   2.997   8.519  0.1839  2.1329 -0.2328
   22SAPC  C218 2910   0.411   2.898   8.506  0.3704 -0.6859 -0.0457
   22SAPC  H18R 2911   0.395   2.897   8.396  0.7707  1.8628 -0.1761
   22SAPC  H18S 2912   0.393   2.790   8.527  1.5428 -0.7343  0.8075
   22SAPC  C219 2913   0.563   2.919   8.530 -0.0983  0.0600  0.4720
   22SAPC  H19R 2914   0.619   2.838   8.480 -1.2313  0.7247 -1.9854
   22SAPC  H19S 2915   0.584   2.894   8.637  0.9675 -1.1376  0.0073
   22SAPC  C220 2916   0.623   3.060   8.497 -0.2408  0.3715 -0.1119
   22SAPC  H20R 2917   0.580   3.146   8.552 -0.4335 -0.4086  0.9832
   22SAPC  H20S 2918   0.615   3.071   8.387  2.3250  1.3824 -0.2443
   22SAPC  H20T 2919   0.731   3.067   8.518 -0.5169  1.9266  0.9531
   22SAPC   C33 2920   1.039   3.855  10.008  0.0928 -0.1913  0.0110
   22SAPC   H3X 2921   1.011   3.749  10.028  0.3693  0.0189  1.7318
   22SAPC   H3Y 2922   1.142   3.857   9.966 -0.5303  1.2331 -1.5530
   22SAPC   C34 2923   0.949   3.915   9.896 -0.2027 -0.3277  0.7383
   22SAPC   H4X 2924   0.977   4.021   9.887 -0.1424 -0.3422  0.7553
   22SAPC   H4Y 2925   0.839   3.914   9.917  0.0118  2.5550  2.5557
   22SAPC   C35 2926   0.965   3.859   9.757  0.7602 -0.5516  0.8188
   22SAPC   H5X 2927   0.948   3.750   9.763 -0.1395 -0.4534  0.2844
   22SAPC   H5Y 2928   1.073   3.874   9.734  0.5503 -0.2848 -0.0514
   22SAPC   C36 2929   0.884   3.938   9.653 -0.1830  0.0756 -0.2278
   22SAPC   H6X 2930   0.939   4.033   9.636  0.2111 -0.2196 -0.6248
   22SAPC   H6Y 2931   0.784   3.957   9.699  0.0788  0.9437  0.0158
   22SAPC   C37 2932   0.878   3.875   9.514 -0.5900 -0.4766  0.6961
   22SAPC   H7X 2933   0.818   3.782   9.518 -0.0659 -0.8175  0.7667
   22SAPC   H7Y 2934   0.975   3.830   9.485 -0.6446  0.0348 -0.3088
   22SAPC   C38 2935   0.853   3.977   9.393 -0.0884  0.5290 -0.0509
   22SAPC   H8X 2936   0.931   4.054   9.414  1.3290 -1.6420  3.5042
   22SAPC   H8Y 2937   0.758   4.030   9.415  0.3446  0.6535  1.6384
   22SAPC   C39 2938   0.841   3.912   9.259 -0.1476  0.1720 -0.9860
   22SAPC   H9X 2939   0.762   3.835   9.265 -1.6843  1.7586  0.2284
   22SAPC   H9Y 2940   0.931   3.851   9.238  0.0870  0.3394 -0.4798
   22SAPC  C310 2941   0.816   3.997   9.145  0.2489  0.4379 -0.0956
   22SAPC  H10X 2942   0.913   4.017   9.094 -0.0548 -0.7028 -1.1801
   22SAPC  H10Y 2943   0.771   4.096   9.169  0.3904  0.8576 -1.4668
   22SAPC  C311 2944   0.726   3.908   9.046 -0.3014  0.4072  0.8241
   22SAPC  H11X 2945   0.633   3.885   9.102 -0.2600 -0.0986  0.6863
   22SAPC  H11Y 2946   0.772   3.808   9.030 -2.7232 -0.6656  0.1172
   22SAPC  C312 2947   0.706   3.961   8.908  0.1884 -0.3218  0.4101
   22SAPC  H12X 2948   0.799   4.007   8.869 -0.5858  0.7536 -0.2546
   22SAPC  H12Y 2949   0.631   4.043   8.908 -1.0676 -1.3561 -1.8861
   22SAPC  C313 2950   0.641   3.861   8.807  0.4339  0.0785  0.2644
   22SAPC  H13X 2951   0.541   3.829   8.843  0.0238 -2.3123 -2.6240
   22SAPC  H13Y 2952   0.701   3.768   8.812  0.6082  0.2264  1.0579
   22SAPC  C314 2953   0.622   3.925   8.672  0.7805 -0.0282  0.3531
   22SAPC  H14X 2954   0.586   4.027   8.698 -1.5454 -0.4236 -1.0147
   22SAPC  H14Y 2955   0.544   3.868   8.618  1.3159 -2.9268  2.3776
   22SAPC  C315 2956   0.737   3.907   8.584 -0.1112  0.0238  0.1160
   22SAPC  H15X 2957   0.751   3.800   8.557 -0.3820 -0.1882  0.8019
   22SAPC  H15Y 2958   0.830   3.937   8.637 -0.0200  1.3167 -0.7379
   22SAPC  C316 2959   0.749   3.981   8.453  0.1933 -0.0909  0.6813
   22SAPC  H16X 2960   0.851   3.967   8.410  0.5135  0.9282  1.0682
   22SAPC  H16Y 2961   0.739   4.090   8.475 -3.8414  0.2429 -1.7805
   22SAPC  C317 2962   0.642   3.952   8.341  0.5274  0.0485  0.4257
   22SAPC  H17X 2963   0.537   3.949   8.377  0.5205 -0.7476  0.3691
   22SAPC  H17Y 2964   0.669   3.860   8.285 -3.6573  0.0328 -1.9367
   22SAPC  C318 2965   0.641   4.061   8.234  0.0829 -0.3336  0.4570
   22SAPC  H18X 2966   0.743   4.080   8.193 -0.9077 -0.3683 -2.2204
   22SAPC  H18Y 2967   0.599   4.159   8.264  1.5451  1.8117 -3.7777
   22SAPC  H18Z 2968   0.573   4.028   8.153 -0.8852  0.7957  0.7867
   23SAPC     N 2969   1.602   0.322  10.815 -0.3647  0.0584  0.0351
   23SAPC   C12 2970   1.581   0.324  10.664  0.4958  0.2052 -0.7652
   23SAPC  H12A 2971   1.484   0.366  10.640  0.3570 -0.8072 -2.1269
   23SAPC  H12B 2972   1.577   0.219  10.639 -0.9379  0.3624 -1.3435
   23SAPC   C13 2973   1.624   0.464  10.857  0.1700  0.2114 -0.1693
   23SAPC  H13A 2974   1.660   0.466  10.959  1.2570 -1.0544 -0.5053
   23SAPC  H13B 2975   1.686   0.513  10.784  3.3134  0.5041  2.4577
   23SAPC  H13C 2976   1.531   0.519  10.856  1.0660  1.8023 -2.5849
   23SAPC   C14 2977   1.480   0.271  10.883 -0.3598  0.5999 -0.3670
   23SAPC  H14A 2978   1.490   0.269  10.990 -0.8116 -1.9118 -0.3007
   23SAPC  H14B 2979   1.392   0.327  10.855  0.5560  4.3864  3.3186
   23SAPC  H14C 2980   1.463   0.170  10.848 -0.4107  0.0818  1.1097
   23SAPC   C15 2981   1.720   0.239  10.858 -0.9582 -0.3482  0.3317
   23SAPC  H15A 2982   1.721   0.137  10.824 -2.6158 -0.3524  0.1807
   23SAPC  H15B 2983   1.803   0.283  10.805 -0.2233 -0.1756  1.6073
   23SAPC  H15C 2984   1.731   0.250  10.965 -1.1042 -0.4080  0.3541
   23SAPC   C11 2985   1.688   0.383  10.570  0.3330 -0.3546 -0.4113
   23SAPC  H11A 2986   1.650   0.400  10.467 -0.5842 -0.6039 -0.1225
   23SAPC  H11B 2987   1.773   0.311  10.567  0.5891 -0.1918  1.5922
   23SAPC     P 2988   1.872   0.578  10.588  0.1694 -0.3331  0.1688
   23SAPC   O13 2989   1.891   0.667  10.705 -0.5532 -0.4437  0.1442
   23SAPC   O14 2990   1.981   0.478  10.563 -0.1908 -0.1011  0.2318
   23SAPC   O12 2991   1.729   0.513  10.605 -0.5866  0.7492  0.2527
   23SAPC   O11 2992   1.845   0.676  10.469 -0.4482  0.5561  0.4833
   23SAPC    C1 2993   1.711   0.697  10.414 -0.4742 -0.1777 -0.0209
   23SAPC    HA 2994   1.630   0.656  10.477  0.5653  0.1983  1.6146
   23SAPC    HB 2995   1.710   0.807  10.399  2.0861 -0.4008 -2.6801
   23SAPC    C2 2996   1.685   0.652  10.266 -0.1214 -0.1225 -0.4922
   23SAPC    HS 2997   1.705   0.543  10.254  0.5469 -0.0032 -0.5149
   23SAPC   O21 2998   1.773   0.730  10.174  0.6300 -0.4348  0.2558
   23SAPC   C21 2999   1.886   0.666  10.137 -0.8054 -0.2154  0.3332
   23SAPC   O22 3000   1.914   0.556  10.175 -0.5731  0.5497 -0.1384
   23SAPC   C22 3001   1.961   0.750  10.037  0.7998  0.0276  0.4915
   23SAPC   H2R 3002   1.900   0.764   9.945 -0.1980  1.3498  1.3345
   23SAPC   H2S 3003   1.963   0.846  10.093 -1.0953 -0.6901  1.8433
   23SAPC    C3 3004   1.536   0.659  10.231 -0.3735 -0.1536  0.1814
   23SAPC    HX 3005   1.511   0.765  10.254 -0.8622  0.4011 -2.5970
   23SAPC    HY 3006   1.480   0.598  10.305  1.2315 -0.2316  1.3985
   23SAPC   O31 3007   1.508   0.635  10.090  0.5574 -0.3340  0.1495
   23SAPC   C31 3008   1.532   0.510  10.046  0.1847 -0.9319  0.0270
   23SAPC   O32 3009   1.565   0.417  10.115 -0.4904  0.2399  0.6787
   23SAPC   C32 3010   1.501   0.507   9.895  0.6426  0.2506 -0.1171
   23SAPC   H2X 3011   1.459   0.603   9.857  0.5819  1.5027  2.8335
   23SAPC   H2Y 3012   1.414   0.439   9.880 -0.1154  1.2368 -0.2914
   23SAPC   C23 3013   2.110   0.726  10.006 -0.5433  0.2464 -0.1472
   23SAPC   H3R 3014   2.165   0.689  10.096 -2.3306  0.5198  1.1159
   23SAPC   H3S 3015   2.158   0.822   9.979 -0.6154  0.7468  1.3685
   23SAPC   C24 3016   2.135   0.620   9.897 -0.2587  0.7359  0.1870
   23SAPC   H4R 3017   2.071   0.648   9.811 -1.9410  1.1644  1.5326
   23SAPC   H4S 3018   2.083   0.529   9.934 -2.4275  1.2960 -1.3399
   23SAPC   C25 3019   2.282   0.605   9.860  0.2100 -0.9726  0.4964
   23SAPC   H5R 3020   2.349   0.565   9.938 -1.7150 -1.0825  2.1620
   23SAPC   C26 3021   2.331   0.651   9.744 -0.3077  0.3303  0.0297
   23SAPC   H6R 3022   2.439   0.645   9.724 -0.0610 -1.0178  1.5283
   23SAPC   C27 3023   2.240   0.706   9.633 -0.1710  0.3458 -0.2717
   23SAPC   H7R 3024   2.288   0.767   9.554 -0.9319  1.7898  0.3576
   23SAPC   H7S 3025   2.167   0.780   9.672 -0.8843  0.7644 -2.3185
   23SAPC   C28 3026   2.159   0.597   9.561 -0.6439 -0.2072 -0.3010
   23SAPC   H8R 3027   2.089   0.562   9.638 -1.4093  2.7089  0.4660
   23SAPC   C29 3028   2.163   0.546   9.434  0.2812  1.2080 -0.7510
   23SAPC   H9R 3029   2.083   0.474   9.412  1.9221 -0.7029 -0.8111
   23SAPC  C210 3030   2.260   0.578   9.318 -0.3885 -0.2828 -0.4479
   23SAPC  H10R 3031   2.334   0.650   9.361  0.4752 -1.5156  0.1894
   23SAPC  H10S 3032   2.208   0.644   9.246 -1.8567 -0.2600  0.5935
   23SAPC  C211 3033   2.308   0.459   9.244 -0.2890 -0.1448 -0.0944
   23SAPC  H11R 3034   2.356   0.382   9.306 -0.9289 -0.8885 -0.5017
   23SAPC  C212 3035   2.280   0.437   9.116 -0.0692  0.2078  0.3342
   23SAPC  H12R 3036   2.314   0.340   9.077 -0.2287  0.5427 -0.6836
   23SAPC  C213 3037   2.215   0.526   9.004  0.5567  0.4569 -0.5648
   23SAPC  H13R 3038   2.115   0.550   9.047  0.4962 -0.5941 -0.0886
   23SAPC  H13S 3039   2.197   0.460   8.917  1.7932  0.1133 -0.5817
   23SAPC  C214 3040   2.293   0.647   8.964 -0.9498  0.8344  0.4059
   23SAPC  H14R 3041   2.326   0.711   9.047  1.2116 -1.8205  1.7413
   23SAPC  C215 3042   2.306   0.698   8.841 -0.1823  0.7216  0.0612
   23SAPC  H15R 3043   2.363   0.792   8.831  0.1491  0.6198  0.9369
   23SAPC  C216 3044   2.254   0.646   8.706 -0.4589  0.2452 -0.1633
   23SAPC  H16R 3045   2.185   0.726   8.671 -1.5118 -0.9767 -0.9431
   23SAPC  H16S 3046   2.203   0.548   8.713 -1.9341  1.0114  0.2038
   23SAPC  C217 3047   2.369   0.642   8.596 -0.0566  0.6785 -0.4386
   23SAPC  H17R 3048   2.440   0.563   8.628 -0.8793  0.7512  1.7425
   23SAPC  H17S 3049   2.433   0.732   8.606  2.1483 -0.8736  0.1652
   23SAPC  C218 3050   2.325   0.629   8.439  0.5394 -0.0860 -0.7347
   23SAPC  H18R 3051   2.274   0.540   8.395  0.6121  0.0621 -1.1296
   23SAPC  H18S 3052   2.426   0.602   8.401  1.1466  0.4838  0.4238
   23SAPC  C219 3053   2.279   0.760   8.379 -0.3247 -0.0278  0.4342
   23SAPC  H19R 3054   2.305   0.755   8.271  2.3595 -0.2754  1.0207
   23SAPC  H19S 3055   2.351   0.834   8.422  2.3090 -0.9103 -2.1041
   23SAPC  C220 3056   2.139   0.808   8.401 -0.0587  0.2184 -0.3009
   23SAPC  H20R 3057   2.115   0.815   8.509 -2.2921  1.3024 -0.8003
   23SAPC  H20S 3058   2.071   0.738   8.348  0.0161 -0.8004  0.9087
   23SAPC  H20T 3059   2.134   0.914   8.367 -1.1244 -0.1322 -1.3142
   23SAPC   C33 3060   1.621   0.462   9.809  0.7235 -0.9213  0.4107
   23SAPC   H3X 3061   1.645   0.361   9.848  0.5214 -1.7299 -1.4375
   23SAPC   H3Y 3062   1.707   0.529   9.833 -0.4671  0.3118  1.3677
   23SAPC   C34 3063   1.577   0.464   9.664  0.2619  0.0993 -1.0593
   23SAPC   H4X 3064   1.581   0.574   9.645 -0.1116  0.6967  1.7904
   23SAPC   H4Y 3065   1.475   0.423   9.651 -0.5136  1.5010  0.1579
   23SAPC   C35 3066   1.664   0.381   9.564  0.4855  0.4212 -0.2452
   23SAPC   H5X 3067   1.653   0.271   9.574  0.8341  0.5096  1.4610
   23SAPC   H5Y 3068   1.771   0.395   9.592  0.2754  1.8711 -0.0641
   23SAPC   C36 3069   1.633   0.422   9.420 -0.2678  0.1382 -0.3997
   23SAPC   H6X 3070   1.608   0.530   9.416 -1.6763 -0.1618 -0.1547
   23SAPC   H6Y 3071   1.539   0.367   9.398  0.4537 -1.8982  1.2260
   23SAPC   C37 3072   1.751   0.398   9.324  0.1392  0.1781  0.2669
   23SAPC   H7X 3073   1.808   0.305   9.344  0.8458  0.3949 -0.6710
   23SAPC   H7Y 3074   1.817   0.486   9.346 -1.8479  2.0844 -0.9703
   23SAPC   C38 3075   1.712   0.397   9.173 -0.1885 -0.3341  0.0718
   23SAPC   H8X 3076   1.683   0.500   9.141  0.2415 -0.8589 -2.1912
   23SAPC   H8Y 3077   1.622   0.332   9.168 -1.1092  0.7201  1.8161
   23SAPC   C39 3078   1.831   0.349   9.080  0.1598 -0.5343  0.4928
   23SAPC   H9X 3079   1.823   0.238   9.078 -1.0953 -0.4630  0.2581
   23SAPC   H9Y 3080   1.927   0.394   9.114 -0.3609  1.7825 -0.8757
   23SAPC  C310 3081   1.817   0.394   8.931  0.3744 -0.4865  0.4506
   23SAPC  H10X 3082   1.820   0.504   8.918 -3.6506 -0.5544 -4.2373
   23SAPC  H10Y 3083   1.712   0.381   8.897  0.3605 -1.0997  0.7110
   23SAPC  C311 3084   1.919   0.326   8.835 -0.3193  0.6563  0.3729
   23SAPC  H11X 3085   1.901   0.217   8.824  1.8300  0.4205 -1.5883
   23SAPC  H11Y 3086   2.021   0.344   8.876 -0.2926 -0.6297  0.9135
   23SAPC  C312 3087   1.907   0.382   8.693 -0.1314 -0.3326  0.0359
   23SAPC  H12X 3088   1.934   0.489   8.691 -2.1362  0.1998 -2.0584
   23SAPC  H12Y 3089   1.800   0.388   8.667  0.1948 -0.8975 -1.5689
   23SAPC  C313 3090   1.988   0.303   8.595 -0.5338  0.7516  0.0365
   23SAPC  H13X 3091   1.971   0.193   8.598  1.6827  0.3532  2.5467
   23SAPC  H13Y 3092   2.099   0.310   8.604 -0.3026  0.2062 -1.8816
   23SAPC  C314 3093   1.965   0.339   8.448 -0.1077 -0.4976  0.7775
   23SAPC  H14X 3094   1.995   0.442   8.422  0.3345 -1.0843 -1.1967
   23SAPC  H14Y 3095   1.855   0.329   8.439  0.0001 -0.6847 -0.4370
   23SAPC  C315 3096   2.037   0.246   8.352 -0.1478 -0.2597  0.2421
   23SAPC  H15X 3097   2.035   0.141   8.390  0.3689 -0.3208  0.1080
   23SAPC  H15Y 3098   2.147   0.260   8.349 -0.4700  2.4833 -1.1420
   23SAPC  C316 3099   1.975   0.254   8.210 -1.1777  0.0006 -0.4213
   23SAPC  H16X 3100   1.867   0.255   8.235 -1.5244 -0.0487 -1.8497
   23SAPC  H16Y 3101   1.998   0.160   8.156  1.9093 -0.3817  1.3175
   23SAPC  C317 3102   2.011   0.372   8.121  0.2769  0.7176  0.2826
   23SAPC  H17X 3103   2.000   0.466   8.179  1.3593  1.0543 -0.0478
   23SAPC  H17Y 3104   1.954   0.382   8.027 -0.1466  0.5520  0.5166
   23SAPC  C318 3105   2.154   0.370   8.082 -0.6609 -0.9599 -0.1262
   23SAPC  H18X 3106   2.199   0.466   8.050 -0.9793  0.8380  4.1385
   23SAPC  H18Y 3107   2.188   0.281   8.025  0.6347 -1.8403  1.8876
   23SAPC  H18Z 3108   2.220   0.361   8.172  0.5088  2.5663 -0.4856
   24SAPC     N 3109   5.335   0.810  11.101  0.4897  0.7591 -0.1588
   24SAPC   C12 3110   5.423   0.696  11.048  0.3200 -0.5565  0.2432
   24SAPC  H12A 3111   5.433   0.620  11.124 -1.4058 -0.5685  0.5129
   24SAPC  H12B 3112   5.519   0.742  11.031  0.2309  0.4746  2.2413
   24SAPC   C13 3113   5.213   0.750  11.156  0.0839 -0.4929 -0.2712
   24SAPC  H13A 3114   5.139   0.827  11.172  1.2160  0.5040  0.3131
   24SAPC  H13B 3115   5.163   0.684  11.086 -0.7074  1.3428 -1.5053
   24SAPC  H13C 3116   5.210   0.700  11.252 -1.1615 -1.8238 -0.9565
   24SAPC   C14 3117   5.411   0.873  11.217 -0.6110 -0.0245  0.0357
   24SAPC  H14A 3118   5.452   0.794  11.279  0.6590  0.3021 -0.3671
   24SAPC  H14B 3119   5.493   0.929  11.175  0.5496 -1.9137 -0.3531
   24SAPC  H14C 3120   5.345   0.934  11.276 -0.6148 -0.4501  0.4771
   24SAPC   C15 3121   5.309   0.916  11.003 -0.4422  0.3092  0.3895
   24SAPC  H15A 3122   5.275   1.006  11.052 -2.3752 -0.6967  1.0044
   24SAPC  H15B 3123   5.401   0.946  10.956  0.1734 -0.6142  0.9512
   24SAPC  H15C 3124   5.235   0.873  10.937  0.4039 -0.7803  0.1329
   24SAPC   C11 3125   5.378   0.627  10.918  0.6455  0.4175 -0.1740
   24SAPC  H11A 3126   5.461   0.567  10.876  0.7260  0.7766 -0.5241
   24SAPC  H11B 3127   5.353   0.701  10.840  1.8965  1.3478  0.2761
   24SAPC     P 3128   5.263   0.403  10.972 -0.2236  0.5187  0.1493
   24SAPC   O13 3129   5.398   0.372  11.026 -0.5110 -0.1531 -0.2547
   24SAPC   O14 3130   5.154   0.367  11.065  0.2222  0.0830 -0.2496
   24SAPC   O12 3131   5.255   0.556  10.938 -0.2295  0.4115 -0.0265
   24SAPC   O11 3132   5.241   0.329  10.834 -0.0960  0.6688  0.0899
   24SAPC    C1 3133   5.352   0.334  10.738 -0.7801 -0.2854  0.6553
   24SAPC    HA 3134   5.380   0.440  10.716 -0.8823 -0.0551  1.6109
   24SAPC    HB 3135   5.450   0.299  10.778  0.1172 -0.5278 -1.5579
   24SAPC    C2 3136   5.333   0.256  10.610 -0.5362 -0.2836  0.5157
   24SAPC    HS 3137   5.415   0.280  10.539 -0.9710  0.1943  0.1707
   24SAPC   O21 3138   5.208   0.294  10.555  0.3538 -0.2523  0.4124
   24SAPC   C21 3139   5.168   0.418  10.536 -0.2636  0.3228  0.8346
   24SAPC   O22 3140   5.229   0.522  10.564  0.2920 -0.7880  0.3268
   24SAPC   C22 3141   5.029   0.410  10.475  0.7035  0.3609 -0.8757
   24SAPC   H2R 3142   4.948   0.410  10.552  1.1153 -1.4965 -0.4028
   24SAPC   H2S 3143   5.005   0.505  10.423 -1.9198  0.8399  1.0151
   24SAPC    C3 3144   5.353   0.100  10.640  0.6502 -0.4079  0.6910
   24SAPC    HX 3145   5.270   0.067  10.706 -0.7824 -2.2204 -1.8053
   24SAPC    HY 3146   5.455   0.079  10.679  1.6544 -1.8903 -2.3921
   24SAPC   O31 3147   5.340   0.022  10.518  0.1755 -0.4595  0.8014
   24SAPC   C31 3148   5.444   0.013  10.438  0.6251 -0.5003  0.0087
   24SAPC   O32 3149   5.551   0.071  10.451 -0.3292  0.4030 -0.1232
   24SAPC   C32 3150   5.418  -0.085  10.325  0.1489 -0.4007 -0.3019
   24SAPC   H2X 3151   5.375  -0.173  10.377 -0.4406  1.5027  2.6422
   24SAPC   H2Y 3152   5.511  -0.097  10.265  0.5269  2.3135 -0.3725
   24SAPC   C23 3153   4.996   0.295  10.382 -0.0146 -0.2517  0.2068
   24SAPC   H3R 3154   4.886   0.281  10.381 -0.2044  0.8287  2.3135
   24SAPC   H3S 3155   5.042   0.201  10.420 -1.1568 -2.4054 -3.2666
   24SAPC   C24 3156   5.072   0.312  10.247  0.5562 -0.1080 -0.6144
   24SAPC   H4R 3157   5.075   0.208  10.209 -0.8374 -0.7612  0.9174
   24SAPC   H4S 3158   5.177   0.344  10.261 -0.1137  1.5042  1.2363
   24SAPC   C25 3159   4.994   0.413  10.163 -0.5091  0.3376 -0.0171
   24SAPC   H5R 3160   4.948   0.498  10.214 -5.0837 -2.5028  1.1682
   24SAPC   C26 3161   4.962   0.398  10.030  0.6175  0.7969 -0.0092
   24SAPC   H6R 3162   4.895   0.477   9.993 -0.5606  1.5418  3.3384
   24SAPC   C27 3163   4.984   0.279   9.941  0.3698 -0.4848  0.4264
   24SAPC   H7R 3164   4.889   0.241   9.897 -0.5786  2.9426 -0.7848
   24SAPC   H7S 3165   5.028   0.198  10.003  1.3364 -1.4869 -1.4963
   24SAPC   C28 3166   5.077   0.311   9.830  1.0071  0.8137 -0.0339
   24SAPC   H8R 3167   5.180   0.315   9.867  0.7181 -0.8901  1.0496
   24SAPC   C29 3168   5.049   0.308   9.696 -0.6634 -0.3494 -0.6365
   24SAPC   H9R 3169   5.133   0.328   9.628 -0.3927  1.3188  0.1248
   24SAPC  C210 3170   4.920   0.300   9.625 -0.1271  0.1714  0.0717
   24SAPC  H10R 3171   4.839   0.264   9.692 -0.2735 -2.0463 -1.2065
   24SAPC  H10S 3172   4.931   0.226   9.543 -0.0970 -0.4159  0.6041
   24SAPC  C211 3173   4.870   0.428   9.563 -0.0233  0.2873  0.3093
   24SAPC  H11R 3174   4.886   0.519   9.624  2.8057 -1.0146  1.7062
   24SAPC  C212 3175   4.803   0.439   9.452 -0.2920 -0.1376 -0.3212
   24SAPC  H12R 3176   4.759   0.538   9.432  0.5424  0.3955  0.3838
   24SAPC  C213 3177   4.765   0.324   9.365  0.1439  0.5536 -0.2137
   24SAPC  H13R 3178   4.655   0.321   9.351  0.2307  1.4818 -1.2233
   24SAPC  H13S 3179   4.801   0.225   9.400 -1.3987  0.0280 -0.0223
   24SAPC  C214 3180   4.830   0.369   9.233 -0.4284  0.1148  0.1669
   24SAPC  H14R 3181   4.940   0.357   9.228 -0.6717 -1.9832 -1.9425
   24SAPC  C215 3182   4.772   0.415   9.121  0.3967 -0.0599  0.6139
   24SAPC  H15R 3183   4.837   0.450   9.040 -0.1601 -2.3351 -0.9120
   24SAPC  C216 3184   4.628   0.432   9.097 -0.6899 -0.2338 -0.4511
   24SAPC  H16R 3185   4.586   0.528   9.133 -3.6708 -1.8068  0.5989
   24SAPC  H16S 3186   4.573   0.355   9.156 -1.8491 -1.0979 -2.5367
   24SAPC  C217 3187   4.584   0.405   8.954  0.2394 -0.3067 -0.4377
   24SAPC  H17R 3188   4.473   0.405   8.963 -0.2075  2.5823 -3.5353
   24SAPC  H17S 3189   4.622   0.306   8.921  2.1387  0.6530 -1.3212
   24SAPC  C218 3190   4.602   0.522   8.860 -0.1370  0.3691 -0.3866
   24SAPC  H18R 3191   4.703   0.565   8.872 -0.5720  1.1737  0.6160
   24SAPC  H18S 3192   4.532   0.604   8.889 -1.7144 -0.7818 -0.7715
   24SAPC  C219 3193   4.574   0.493   8.711 -0.2372 -0.0554  0.0767
   24SAPC  H19R 3194   4.473   0.454   8.688 -0.0161 -0.4315 -0.2700
   24SAPC  H19S 3195   4.656   0.423   8.684  1.8202  2.2577 -0.0001
   24SAPC  C220 3196   4.596   0.625   8.641 -0.1347 -0.1400 -0.1645
   24SAPC  H20R 3197   4.691   0.676   8.665 -0.5398 -0.1124  1.5265
   24SAPC  H20S 3198   4.505   0.688   8.652 -2.0024 -2.9283  1.5561
   24SAPC  H20T 3199   4.599   0.608   8.531  0.0795 -0.2223 -0.1467
   24SAPC   C33 3200   5.320  -0.028  10.219 -0.2451 -0.0083 -0.2391
   24SAPC   H3X 3201   5.371   0.056  10.167 -0.2518 -0.1773 -0.5184
   24SAPC   H3Y 3202   5.237   0.004  10.286 -0.0765 -2.8791  1.4502
   24SAPC   C34 3203   5.271  -0.137  10.128  0.8162  0.1767  0.0326
   24SAPC   H4X 3204   5.204  -0.209  10.179  1.0677  0.1477  0.3248
   24SAPC   H4Y 3205   5.354  -0.200  10.089  0.5098  0.9249 -1.9582
   24SAPC   C35 3206   5.207  -0.079   9.996 -0.4313  0.2792 -0.3964
   24SAPC   H5X 3207   5.282  -0.018   9.941  1.1869 -0.6469  0.6909
   24SAPC   H5Y 3208   5.119  -0.022  10.033  0.0130  1.2032 -0.7437
   24SAPC   C36 3209   5.153  -0.174   9.895  0.2294  0.1274  0.9091
   24SAPC   H6X 3210   5.082  -0.241   9.948  0.9671 -1.6233 -0.2191
   24SAPC   H6Y 3211   5.242  -0.225   9.851 -0.2870  0.4415 -0.5624
   24SAPC   C37 3212   5.085  -0.102   9.777 -0.5417 -0.2959 -0.3785
   24SAPC   H7X 3213   5.162  -0.031   9.741 -0.8597  0.4671  0.4168
   24SAPC   H7Y 3214   4.998  -0.042   9.810 -0.5891 -0.7404  0.3432
   24SAPC   C38 3215   5.043  -0.197   9.664 -0.3367 -0.1851  0.4637
   24SAPC   H8X 3216   5.131  -0.261   9.639  1.2064  2.1185 -0.3366
   24SAPC   H8Y 3217   5.025  -0.131   9.576  0.6863  0.7931  0.9676
   24SAPC   C39 3218   4.930  -0.283   9.690 -0.0720  0.7794 -0.6895
   24SAPC   H9X 3219   4.873  -0.238   9.775 -0.7009  0.3500 -0.8794
   24SAPC   H9Y 3220   4.968  -0.382   9.724  1.0390  0.4326 -2.7765
   24SAPC  C310 3221   4.842  -0.326   9.570  0.4464 -0.3559  0.1426
   24SAPC  H10X 3222   4.796  -0.233   9.529 -3.2839 -1.7504  0.7676
   24SAPC  H10Y 3223   4.758  -0.392   9.602 -1.1674  1.3914 -0.2839
   24SAPC  C311 3224   4.910  -0.390   9.450 -0.9883 -0.4892  0.3004
   24SAPC  H11X 3225   4.951  -0.490   9.476  3.0499  0.5782 -1.2676
   24SAPC  H11Y 3226   5.002  -0.338   9.417 -1.2592  0.3538  0.8587
   24SAPC  C312 3227   4.822  -0.388   9.316  1.1174  0.3096 -0.0751
   24SAPC  H12X 3228   4.774  -0.292   9.290 -2.8111 -1.9052 -1.9353
   24SAPC  H12Y 3229   4.732  -0.448   9.341 -0.1507  1.2305 -2.2154
   24SAPC  C313 3230   4.891  -0.441   9.190 -0.5479 -0.2470 -0.3601
   24SAPC  H13X 3231   4.930  -0.542   9.215  2.2885  0.0381 -3.0094
   24SAPC  H13Y 3232   4.976  -0.375   9.160 -0.8483  0.3547  0.0914
   24SAPC  C314 3233   4.808  -0.442   9.056  1.1742  0.0412  0.7641
   24SAPC  H14X 3234   4.770  -0.339   9.037 -0.7313 -0.9111 -1.0678
   24SAPC  H14Y 3235   4.727  -0.517   9.057  2.0675 -0.9403  0.5305
   24SAPC  C315 3236   4.901  -0.485   8.933 -1.2340  0.0198  0.4778
   24SAPC  H15X 3237   4.838  -0.495   8.842 -0.6463  1.9747 -0.1971
   24SAPC  H15Y 3238   4.945  -0.585   8.953 -1.3642  0.1866  1.6508
   24SAPC  C316 3239   5.030  -0.403   8.909  0.0712 -0.1111 -0.1394
   24SAPC  H16X 3240   5.120  -0.438   8.962 -0.2756  0.5905  0.9499
   24SAPC  H16Y 3241   5.016  -0.302   8.954 -0.0059 -1.2325  2.5216
   24SAPC  C317 3242   5.057  -0.377   8.762  0.2856  0.2049 -0.1603
   24SAPC  H17X 3243   5.124  -0.288   8.766  0.8538 -0.2527  0.8641
   24SAPC  H17Y 3244   4.966  -0.331   8.719  1.4073  1.1503 -1.6202
   24SAPC  C318 3245   5.126  -0.499   8.694  0.4993  0.1315  0.4386
   24SAPC  H18X 3246   5.196  -0.477   8.611  0.1141  0.9063  0.3075
   24SAPC  H18Y 3247   5.050  -0.562   8.644 -0.7083 -0.2133  2.5866
   24SAPC  H18Z 3248   5.194  -0.562   8.755  3.4410  1.3340 -1.3611
   25SAPC     N 3249   1.538   4.112   6.113 -0.6277  0.1693 -0.0404
   25SAPC   C12 3250   1.633   3.996   6.120 -0.1338  0.8376 -0.1495
   25SAPC  H12A 3251   1.689   3.982   6.029 -0.9665  1.3153 -0.7430
   25SAPC  H12B 3252   1.567   3.913   6.142 -0.0865  0.7169 -0.4712
   25SAPC   C13 3253   1.462   4.128   6.238  0.0705 -0.3185 -0.2807
   25SAPC  H13A 3254   1.524   4.098   6.321  1.2110 -1.0868 -1.3713
   25SAPC  H13B 3255   1.450   4.233   6.259  3.9238  0.1612  0.1424
   25SAPC  H13C 3256   1.365   4.081   6.249  0.6328 -1.1809  1.2552
   25SAPC   C14 3257   1.627   4.231   6.093  0.3558  0.0190 -0.3111
   25SAPC  H14A 3258   1.674   4.212   5.998  0.8247 -1.0150  0.1256
   25SAPC  H14B 3259   1.575   4.326   6.082  2.4205  1.2979  0.4543
   25SAPC  H14C 3260   1.704   4.235   6.168  0.2699  0.0452 -0.2237
   25SAPC   C15 3261   1.450   4.100   5.995  0.0948 -0.5526  0.2115
   25SAPC  H15A 3262   1.500   4.104   5.899  0.8040  1.9718  0.6175
   25SAPC  H15B 3263   1.386   4.015   6.011 -0.4615 -0.5022 -1.5109
   25SAPC  H15C 3264   1.384   4.186   5.993 -0.6829 -1.0051  3.1038
   25SAPC   C11 3265   1.737   4.005   6.235  0.4378 -0.2962  0.2295
   25SAPC  H11A 3266   1.759   3.901   6.268  2.2879 -0.0877 -0.2186
   25SAPC  H11B 3267   1.696   4.058   6.323 -2.3881 -0.1520 -1.0319
   25SAPC     P 3268   1.960   3.981   6.115 -0.0721 -0.0199  0.0523
   25SAPC   O13 3269   1.935   3.838   6.138  0.1051  0.3397 -0.2522
   25SAPC   O14 3270   1.967   4.028   5.979 -0.0522 -0.1088 -0.1904
   25SAPC   O12 3271   1.852   4.071   6.189  0.3342  0.3954  0.1527
   25SAPC   O11 3272   2.103   4.006   6.190  0.5391  0.1642  0.0324
   25SAPC    C1 3273   2.115   4.023   6.332  0.1307 -0.2566 -1.0370
   25SAPC    HA 3274   2.222   4.039   6.360  0.0728 -0.2052 -0.8455
   25SAPC    HB 3275   2.061   4.105   6.383  0.3545 -1.0715  0.6091
   25SAPC    C2 3276   2.085   3.898   6.415  0.0782 -0.3024 -0.0981
   25SAPC    HS 3277   1.975   3.887   6.404  0.3518 -1.5348 -2.2842
   25SAPC   O21 3278   2.122   3.920   6.550  0.2720  0.8437  0.3127
   25SAPC   C21 3279   2.070   3.830   6.629  0.9123  0.1816 -0.0803
   25SAPC   O22 3280   2.010   3.728   6.595 -0.2330  0.6163 -0.0062
   25SAPC   C22 3281   2.092   3.869   6.770 -0.2708 -0.8676 -0.7006
   25SAPC   H2R 3282   2.201   3.854   6.790  0.1505  0.4710 -1.8295
   25SAPC   H2S 3283   2.065   3.976   6.777 -1.3476 -1.0624 -1.6478
   25SAPC    C3 3284   2.161   3.773   6.353  0.7830 -0.1187  0.4826
   25SAPC    HX 3285   2.116   3.740   6.257 -1.3104  0.7484  1.1129
   25SAPC    HY 3286   2.139   3.686   6.419 -2.6089  1.9872  2.3928
   25SAPC   O31 3287   2.303   3.800   6.335 -0.3559 -0.6502 -0.3547
   25SAPC   C31 3288   2.376   3.742   6.429  0.2360  0.3497  0.0920
   25SAPC   O32 3289   2.346   3.649   6.501 -0.1604 -0.2302 -0.1181
   25SAPC   C32 3290   2.516   3.819   6.431  0.6166  0.3269 -0.6735
   25SAPC   H2X 3291   2.553   3.835   6.327  1.1293  1.6843 -0.2969
   25SAPC   H2Y 3292   2.586   3.756   6.489  1.1449  2.6175  1.3349
   25SAPC   C23 3293   2.012   3.786   6.867  0.3509  0.4483 -0.2668
   25SAPC   H3R 3294   2.026   3.676   6.861 -0.5637  0.3989 -2.3085
   25SAPC   H3S 3295   1.907   3.790   6.832  0.1263 -0.7809  0.2230
   25SAPC   C24 3296   2.038   3.824   7.015 -0.4181  0.3463 -0.2329
   25SAPC   H4R 3297   1.968   3.768   7.080  0.3875 -0.6709 -0.2189
   25SAPC   H4S 3298   2.002   3.929   7.015 -3.2848 -0.5315 -1.3986
   25SAPC   C25 3299   2.183   3.797   7.057  0.2669  0.6857 -0.3056
   25SAPC   H5R 3300   2.247   3.766   6.973  1.1093 -1.8725  1.1544
   25SAPC   C26 3301   2.230   3.775   7.180 -0.5877 -0.5191  0.6635
   25SAPC   H6R 3302   2.338   3.757   7.182 -0.1751  1.2610 -1.4364
   25SAPC   C27 3303   2.150   3.799   7.309 -1.5090 -0.3902  0.1317
   25SAPC   H7R 3304   2.043   3.821   7.290 -1.4129  0.2182  0.2651
   25SAPC   H7S 3305   2.184   3.892   7.359  2.5133 -0.8264 -1.3589
   25SAPC   C28 3306   2.173   3.678   7.397  0.1299 -0.4678 -0.3139
   25SAPC   H8R 3307   2.199   3.589   7.338 -0.3218 -0.8032 -0.0127
   25SAPC   C29 3308   2.175   3.671   7.532 -0.6039  0.0322  0.1154
   25SAPC   H9R 3309   2.199   3.575   7.580 -1.3880 -0.4530 -0.4490
   25SAPC  C210 3310   2.158   3.772   7.639 -0.0193 -0.6795  0.8230
   25SAPC  H10R 3311   2.102   3.860   7.600  1.0938 -0.9410 -1.5312
   25SAPC  H10S 3312   2.258   3.816   7.658 -1.1798  3.2017 -1.0029
   25SAPC  C211 3313   2.091   3.725   7.767  0.1407  0.0492  0.5049
   25SAPC  H11R 3314   2.068   3.618   7.776  0.2197  0.1782  2.8957
   25SAPC  C212 3315   2.059   3.806   7.874 -0.0060  0.8916  0.1593
   25SAPC  H12R 3316   2.010   3.763   7.963 -3.0188 -0.0687 -1.8344
   25SAPC  C213 3317   2.085   3.954   7.880 -0.4253 -0.4668  0.0312
   25SAPC  H13R 3318   1.984   3.999   7.892 -1.0042 -1.4984 -0.8047
   25SAPC  H13S 3319   2.118   3.998   7.783 -0.6284  2.5554  1.2163
   25SAPC  C214 3320   2.190   3.993   7.981  0.4162  0.5547  0.1940
   25SAPC  H14R 3321   2.283   4.034   7.940  0.6200  1.7022  1.7343
   25SAPC  C215 3322   2.176   3.994   8.116  0.0601  0.1202  0.0648
   25SAPC  H15R 3323   2.264   4.019   8.177  0.2985 -0.7030  0.0647
   25SAPC  C216 3324   2.054   3.956   8.197  0.3248  0.0084 -0.0561
   25SAPC  H16R 3325   1.980   3.951   8.114  2.1731  0.6029 -1.8189
   25SAPC  H16S 3326   2.024   4.039   8.264 -1.4004  0.5566 -1.4141
   25SAPC  C217 3327   2.058   3.816   8.256 -0.2728 -0.1774  0.1130
   25SAPC  H17R 3328   2.098   3.738   8.188 -0.2477 -1.5554  1.6364
   25SAPC  H17S 3329   1.957   3.789   8.296  0.3570 -0.2485  1.7521
   25SAPC  C218 3330   2.150   3.824   8.380  0.0062 -0.7735  0.3697
   25SAPC  H18R 3331   2.109   3.898   8.453  1.8557  0.3361  0.3489
   25SAPC  H18S 3332   2.245   3.863   8.339  0.4436 -1.4897  0.6789
   25SAPC  C219 3333   2.182   3.686   8.442 -0.8802 -0.1063  0.5646
   25SAPC  H19R 3334   2.230   3.630   8.359 -0.9239  1.0431 -0.2583
   25SAPC  H19S 3335   2.083   3.650   8.477 -2.0283  1.3021 -1.0794
   25SAPC  C220 3336   2.276   3.685   8.560  0.5319  0.9590  0.1654
   25SAPC  H20R 3337   2.369   3.739   8.535  0.4272  0.5987 -1.0578
   25SAPC  H20S 3338   2.308   3.584   8.594  0.3745  1.6271  2.4710
   25SAPC  H20T 3339   2.237   3.732   8.653  1.5017  0.4903  0.8349
   25SAPC   C33 3340   2.489   3.965   6.483  0.1165  0.4745  0.2800
   25SAPC   H3X 3341   2.413   4.009   6.415 -2.8092 -3.6047  0.5838
   25SAPC   H3Y 3342   2.588   4.014   6.469  0.3795  0.5157  2.0573
   25SAPC   C34 3343   2.439   3.985   6.626  0.1165 -0.0258  0.5811
   25SAPC   H4X 3344   2.334   3.951   6.641  1.1899 -3.3762  1.3869
   25SAPC   H4Y 3345   2.449   4.093   6.646  3.1152 -0.0017 -0.5047
   25SAPC   C35 3346   2.512   3.913   6.732  1.1321 -0.5938  0.0731
   25SAPC   H5X 3347   2.621   3.899   6.716  1.4613 -0.9515  2.3283
   25SAPC   H5Y 3348   2.474   3.809   6.744 -0.4464 -0.0231  0.1601
   25SAPC   C36 3349   2.486   3.988   6.865  0.3458  0.0894  0.5210
   25SAPC   H6X 3350   2.377   3.999   6.885  0.3104 -1.6590  1.5242
   25SAPC   H6Y 3351   2.528   4.090   6.863 -2.1365  1.1612 -0.6803
   25SAPC   C37 3352   2.554   3.914   6.981 -0.1986 -0.9540 -1.0228
   25SAPC   H7X 3353   2.663   3.924   6.964 -0.0279  2.9389  1.2366
   25SAPC   H7Y 3354   2.529   3.806   6.973  0.6521 -1.6892  3.4453
   25SAPC   C38 3355   2.533   3.976   7.117  0.5906 -0.4286 -0.5018
   25SAPC   H8X 3356   2.422   3.977   7.122  0.6191 -1.1518  0.8742
   25SAPC   H8Y 3357   2.568   4.082   7.126  0.3564 -0.2245 -1.9066
   25SAPC   C39 3358   2.585   3.895   7.232  0.0535  0.4970 -0.3053
   25SAPC   H9X 3359   2.696   3.899   7.222  0.0721  0.7065 -0.0288
   25SAPC   H9Y 3360   2.562   3.786   7.230  2.9413 -0.2511  0.8270
   25SAPC  C310 3361   2.559   3.956   7.371 -0.1749 -0.6879 -0.5305
   25SAPC  H10X 3362   2.458   3.929   7.407  0.9367 -1.2648  2.4728
   25SAPC  H10Y 3363   2.566   4.066   7.375 -1.6559 -0.6118  0.3435
   25SAPC  C311 3364   2.667   3.901   7.472 -0.0782  0.2361 -0.1252
   25SAPC  H11X 3365   2.768   3.904   7.426  0.4753 -0.4655  1.0016
   25SAPC  H11Y 3366   2.644   3.797   7.502  0.8740  0.1724  0.4086
   25SAPC  C312 3367   2.671   3.977   7.600  0.5340  0.5405 -0.1845
   25SAPC  H12X 3368   2.569   3.975   7.646  0.8418  0.6951  0.5212
   25SAPC  H12Y 3369   2.692   4.084   7.580 -1.2584  0.8236 -0.7974
   25SAPC  C313 3370   2.764   3.930   7.710 -0.0755  0.1732 -0.0429
   25SAPC  H13X 3371   2.866   3.927   7.666 -0.4073  1.0278 -0.9131
   25SAPC  H13Y 3372   2.740   3.830   7.753  1.8986 -0.4530 -0.2920
   25SAPC  C314 3373   2.765   4.034   7.828  0.7132  0.0521 -0.9465
   25SAPC  H14X 3374   2.663   4.037   7.874  0.9332  0.2237 -0.4584
   25SAPC  H14Y 3375   2.788   4.139   7.803  1.3312  1.0133  2.9471
   25SAPC  C315 3376   2.870   3.992   7.925  0.5747  0.3621 -0.1135
   25SAPC  H15X 3377   2.962   3.963   7.869 -0.1555 -0.5629 -0.8827
   25SAPC  H15Y 3378   2.839   3.905   7.987 -0.1194  0.6916  0.0020
   25SAPC  C316 3379   2.912   4.099   8.025  0.4727  0.0338  0.1128
   25SAPC  H16X 3380   2.818   4.122   8.079 -0.7319 -0.1407 -1.8056
   25SAPC  H16Y 3381   2.929   4.199   7.979  1.3833  0.2175  0.8230
   25SAPC  C317 3382   3.031   4.052   8.101 -0.6419  0.2968 -0.7349
   25SAPC  H17X 3383   3.125   4.037   8.044 -0.8491 -0.0137 -1.0020
   25SAPC  H17Y 3384   3.001   3.953   8.140 -1.1346  1.3037  1.5823
   25SAPC  C318 3385   3.064   4.138   8.220 -0.7209 -0.6105 -0.4361
   25SAPC  H18X 3386   3.151   4.091   8.272 -1.3839 -2.2643 -0.7459
   25SAPC  H18Y 3387   2.980   4.153   8.290  1.5272  1.4145  2.0402
   25SAPC  H18Z 3388   3.112   4.232   8.185 -1.1450 -0.3554 -0.3275
   26SAPC     N 3389   0.496   6.390   5.989 -0.0988 -0.0908  0.1755
   26SAPC   C12 3390   0.514   6.400   6.139 -0.4641 -0.3137  0.0519
   26SAPC  H12A 3391   0.614   6.422   6.175 -1.7890  1.3885  3.0690
   26SAPC  H12B 3392   0.492   6.303   6.181 -0.5384 -0.6740 -0.8055
   26SAPC   C13 3393   0.584   6.283   5.938  0.1784 -0.5995 -0.1554
   26SAPC  H13A 3394   0.688   6.314   5.942 -0.2631  1.1055 -1.2426
   26SAPC  H13B 3395   0.570   6.189   5.990  0.3370 -0.2639  0.5016
   26SAPC  H13C 3396   0.563   6.266   5.834  0.0245 -2.4938  0.1429
   26SAPC   C14 3397   0.361   6.352   5.944  0.1294  0.4170  0.0254
   26SAPC  H14A 3398   0.291   6.425   5.982  1.3839  2.0334 -0.6539
   26SAPC  H14B 3399   0.353   6.348   5.837 -0.7552 -0.8234  0.1255
   26SAPC  H14C 3400   0.338   6.256   5.987 -2.3179  0.1774 -1.6067
   26SAPC   C15 3401   0.536   6.523   5.936  0.2692 -0.2821  0.1340
   26SAPC  H15A 3402   0.626   6.570   5.973  0.0202 -0.5200  1.0948
   26SAPC  H15B 3403   0.550   6.523   5.829  0.9896  2.4889  0.1506
   26SAPC  H15C 3404   0.467   6.604   5.955  0.9301 -0.0721  1.8461
   26SAPC   C11 3405   0.442   6.516   6.210 -0.0080 -0.4013  0.2439
   26SAPC  H11A 3406   0.472   6.494   6.315  0.4573  0.5991  0.3322
   26SAPC  H11B 3407   0.333   6.520   6.188  0.3064  1.5047 -1.1746
   26SAPC     P 3408   0.611   6.709   6.262 -0.0682 -0.2275 -0.0370
   26SAPC   O13 3409   0.671   6.827   6.191  0.0550  0.5843 -0.5943
   26SAPC   O14 3410   0.550   6.740   6.390  0.1072 -0.7838 -0.1242
   26SAPC   O12 3411   0.501   6.640   6.178  0.2447  0.2496  0.8605
   26SAPC   O11 3412   0.715   6.594   6.283  0.4853  0.6509  0.1748
   26SAPC    C1 3413   0.777   6.569   6.408 -0.2920 -0.5347  0.0556
   26SAPC    HA 3414   0.698   6.564   6.486 -0.8148 -0.3292 -0.4563
   26SAPC    HB 3415   0.831   6.473   6.407 -0.3006 -0.5355 -0.9289
   26SAPC    C2 3416   0.886   6.685   6.424  0.4880  0.0207  0.2906
   26SAPC    HS 3417   0.844   6.786   6.443 -0.0026 -0.3296  1.1188
   26SAPC   O21 3418   0.955   6.683   6.298  0.0688 -0.2217 -0.2013
   26SAPC   C21 3419   1.012   6.788   6.264  0.5746 -0.7670 -0.7105
   26SAPC   O22 3420   1.002   6.900   6.320  0.3254  0.1157  0.1471
   26SAPC   C22 3421   1.112   6.766   6.157 -0.6157 -0.1018  0.9245
   26SAPC   H2R 3422   1.057   6.747   6.063 -0.8263  1.2845  0.7536
   26SAPC   H2S 3423   1.156   6.866   6.137 -0.8710 -0.6422 -3.0688
   26SAPC    C3 3424   0.978   6.646   6.546  0.0910  0.4178 -0.2969
   26SAPC    HX 3425   1.061   6.721   6.542  1.0011 -0.4715  1.0075
   26SAPC    HY 3426   1.021   6.544   6.538 -0.3234  0.2527 -0.4033
   26SAPC   O31 3427   0.902   6.656   6.672 -0.0266 -0.1729  0.5396
   26SAPC   C31 3428   0.896   6.783   6.729  0.1206 -0.6230  1.0703
   26SAPC   O32 3429   0.937   6.880   6.664  1.1001  0.3099  0.4719
   26SAPC   C32 3430   0.827   6.787   6.861 -0.4581  0.0934  0.4855
   26SAPC   H2X 3431   0.891   6.734   6.933  2.3382 -1.0489 -2.5795
   26SAPC   H2Y 3432   0.727   6.745   6.836 -0.8562  1.1363  0.2381
   26SAPC   C23 3433   1.221   6.654   6.186 -0.3567  0.5092 -0.1317
   26SAPC   H3R 3434   1.253   6.630   6.082 -1.7463 -1.9702 -0.0509
   26SAPC   H3S 3435   1.175   6.559   6.222  1.0861  0.0399  0.5874
   26SAPC   C24 3436   1.348   6.703   6.274 -0.2957  0.1837 -0.7431
   26SAPC   H4R 3437   1.414   6.763   6.208  0.7217  0.4407  0.4735
   26SAPC   H4S 3438   1.404   6.608   6.291 -1.0740 -0.1134  0.3264
   26SAPC   C25 3439   1.338   6.787   6.402 -0.3562  1.0295 -0.0628
   26SAPC   H5R 3440   1.294   6.887   6.392 -1.9602  0.3339 -0.2882
   26SAPC   C26 3441   1.364   6.740   6.528 -0.3131  0.1755 -0.0217
   26SAPC   H6R 3442   1.344   6.809   6.612  0.0887 -1.5773  1.5738
   26SAPC   C27 3443   1.416   6.606   6.565 -0.4025 -0.6856  0.1036
   26SAPC   H7R 3444   1.502   6.586   6.498 -0.6151 -0.5180 -0.2197
   26SAPC   H7S 3445   1.333   6.535   6.546  0.0865 -0.6246 -2.6524
   26SAPC   C28 3446   1.466   6.606   6.713  0.1354  0.3171  0.7242
   26SAPC   H8R 3447   1.569   6.640   6.733  1.0380 -2.4079  1.1873
   26SAPC   C29 3448   1.387   6.599   6.823  0.0946 -0.6163  0.3994
   26SAPC   H9R 3449   1.440   6.611   6.918  2.2897 -0.2169 -0.8122
   26SAPC  C210 3450   1.234   6.579   6.837 -0.6409  0.2863 -0.3017
   26SAPC  H10R 3451   1.175   6.630   6.758  1.7862  2.4216 -0.8603
   26SAPC  H10S 3452   1.207   6.625   6.934  1.3398 -0.9790  0.9285
   26SAPC  C211 3453   1.207   6.427   6.837 -0.1775 -0.1689 -0.0789
   26SAPC  H11R 3454   1.189   6.386   6.737 -0.2309 -0.7504  0.1614
   26SAPC  C212 3455   1.198   6.342   6.943 -0.7843  0.5220  0.4836
   26SAPC  H12R 3456   1.152   6.243   6.937 -1.7115  0.9513  0.3326
   26SAPC  C213 3457   1.228   6.379   7.086  0.0035 -0.1898  0.8067
   26SAPC  H13R 3458   1.308   6.457   7.087  2.3409 -2.4403  1.8880
   26SAPC  H13S 3459   1.278   6.292   7.134  1.8317  0.7136  0.6427
   26SAPC  C214 3460   1.110   6.408   7.179 -0.2101 -0.4058 -0.4823
   26SAPC  H14R 3461   1.009   6.370   7.156  0.6759 -2.8052 -0.6551
   26SAPC  C215 3462   1.115   6.490   7.285  0.3877 -0.6181  0.2458
   26SAPC  H15R 3463   1.026   6.511   7.347  0.2421  0.2693 -0.2398
   26SAPC  C216 3464   1.236   6.562   7.345  0.1994  0.1307 -0.4416
   26SAPC  H16R 3465   1.234   6.668   7.311  0.7873 -0.6286 -3.0974
   26SAPC  H16S 3466   1.334   6.527   7.305  1.4062  1.0135  1.6082
   26SAPC  C217 3467   1.261   6.558   7.497 -0.2710 -0.7494  0.7358
   26SAPC  H17R 3468   1.352   6.620   7.515 -0.7805  0.0386  0.6540
   26SAPC  H17S 3469   1.276   6.455   7.535  0.9189 -0.3722  1.3395
   26SAPC  C218 3470   1.151   6.635   7.575 -0.4782 -0.2883  0.7026
   26SAPC  H18R 3471   1.059   6.577   7.558 -0.3722 -0.6675  1.3662
   26SAPC  H18S 3472   1.134   6.741   7.547 -0.3834 -0.2065  0.9479
   26SAPC  C219 3473   1.190   6.640   7.724 -0.4082  0.5351  0.0672
   26SAPC  H19R 3474   1.280   6.703   7.744 -0.5911  0.0809  2.6938
   26SAPC  H19S 3475   1.225   6.536   7.741  0.0498  0.2139 -2.4402
   26SAPC  C220 3476   1.079   6.669   7.822  0.3317  0.0728 -0.1535
   26SAPC  H20R 3477   1.090   6.629   7.925 -0.3506 -0.1614 -0.1680
   26SAPC  H20S 3478   0.980   6.630   7.788  0.0089  1.7274 -1.2530
   26SAPC  H20T 3479   1.075   6.780   7.819  1.2760  0.2093  2.0114
   26SAPC   C33 3480   0.820   6.934   6.909 -0.1656 -0.3346  0.1804
   26SAPC   H3X 3481   0.754   7.005   6.854 -0.8481 -1.7102 -0.8202
   26SAPC   H3Y 3482   0.926   6.963   6.893  0.6599 -3.4108 -0.5305
   26SAPC   C34 3483   0.787   6.944   7.056 -0.0454  0.7867  0.5944
   26SAPC   H4X 3484   0.748   7.046   7.079 -2.0209 -0.5245  3.6454
   26SAPC   H4Y 3485   0.878   6.937   7.118  1.2005  0.9450 -1.1523
   26SAPC   C35 3486   0.676   6.840   7.094  0.1650  0.0215 -1.1628
   26SAPC   H5X 3487   0.707   6.734   7.082  0.8337  0.0251  0.3173
   26SAPC   H5Y 3488   0.597   6.858   7.018 -1.1219  0.2549  0.1788
   26SAPC   C36 3489   0.636   6.854   7.241 -0.0202 -0.1016 -0.0396
   26SAPC   H6X 3490   0.544   6.796   7.262 -1.7583  2.4216 -0.3159
   26SAPC   H6Y 3491   0.612   6.961   7.260 -0.9432 -0.2590 -0.2743
   26SAPC   C37 3492   0.754   6.825   7.337  0.3117 -0.0047 -0.1999
   26SAPC   H7X 3493   0.833   6.900   7.316 -0.1044  0.3110 -0.6519
   26SAPC   H7Y 3494   0.787   6.723   7.306 -1.3350 -0.9400  0.9472
   26SAPC   C38 3495   0.708   6.839   7.479 -0.4229 -0.2753  0.0983
   26SAPC   H8X 3496   0.772   6.775   7.543 -0.2200  1.8341  2.1534
   26SAPC   H8Y 3497   0.608   6.806   7.515 -0.1533  0.3585  1.4928
   26SAPC   C39 3498   0.721   6.984   7.527 -0.7760 -0.7699 -0.1808
   26SAPC   H9X 3499   0.649   7.039   7.463  0.5449  1.6980  0.3249
   26SAPC   H9Y 3500   0.815   7.036   7.497 -0.8433 -0.9852 -0.7803
   26SAPC  C310 3501   0.689   7.014   7.677  0.5813  0.1605 -0.1524
   26SAPC  H10X 3502   0.778   6.970   7.729  1.2479  0.2726 -1.1560
   26SAPC  H10Y 3503   0.595   6.968   7.712 -0.3302  1.8935 -0.2579
   26SAPC  C311 3504   0.683   7.167   7.710  0.9889  0.5613  0.1235
   26SAPC  H11X 3505   0.586   7.215   7.682  0.7468  1.5049  2.4165
   26SAPC  H11Y 3506   0.762   7.217   7.650  0.8087  3.1504  1.8472
   26SAPC  C312 3507   0.714   7.200   7.859 -0.6681  0.2244  0.6627
   26SAPC  H12X 3508   0.643   7.137   7.917 -0.2678  1.1561  2.2135
   26SAPC  H12Y 3509   0.702   7.307   7.886  2.3639  0.7326  0.3647
   26SAPC  C313 3510   0.856   7.177   7.915  0.0908 -0.4405  0.5559
   26SAPC  H13X 3511   0.931   7.234   7.856 -0.1743 -0.4740  0.1888
   26SAPC  H13Y 3512   0.880   7.069   7.904 -0.3555 -0.3874 -1.2985
   26SAPC  C314 3513   0.860   7.214   8.061  0.1078 -0.0840 -0.3902
   26SAPC  H14X 3514   0.767   7.170   8.103 -1.3565  3.9282  1.0862
   26SAPC  H14Y 3515   0.856   7.321   8.090 -2.1211 -0.5690  1.3098
   26SAPC  C315 3516   0.978   7.148   8.139  0.5818 -0.1505  0.2383
   26SAPC  H15X 3517   0.956   7.181   8.243 -0.3434 -0.8568  0.2824
   26SAPC  H15Y 3518   1.072   7.200   8.110  0.8063 -0.8957 -0.4184
   26SAPC  C316 3519   0.986   6.996   8.141 -0.1684 -0.1329  0.7948
   26SAPC  H16X 3520   1.056   6.973   8.224 -0.4845 -3.3927  0.3224
   26SAPC  H16Y 3521   1.028   6.977   8.040  0.1640  0.3913  0.8351
   26SAPC  C317 3522   0.854   6.907   8.162 -0.7836 -0.4232 -0.3968
   26SAPC  H17X 3523   0.769   6.956   8.111 -1.0533 -0.9508 -0.4644
   26SAPC  H17Y 3524   0.833   6.913   8.271  1.8910  0.0411  0.1617
   26SAPC  C318 3525   0.858   6.763   8.108 -0.3606  0.3703 -0.5366
   26SAPC  H18X 3526   0.891   6.759   8.002 -0.2710  2.7753 -0.6589
   26SAPC  H18Y 3527   0.768   6.706   8.137 -0.8754  0.9918 -0.8906
   26SAPC  H18Z 3528   0.937   6.711   8.167 -1.1782  1.0592  1.2545
   27SAPC     N 3529   6.394   0.080   6.467  0.2349 -0.1478 -0.1946
   27SAPC   C12 3530   6.423   0.048   6.608  0.7339 -0.3178 -0.5606
   27SAPC  H12A 3531   6.351   0.112   6.658  1.8458  0.7177 -0.2272
   27SAPC  H12B 3532   6.515   0.095   6.639 -0.1273  1.0216  0.0882
   27SAPC   C13 3533   6.252   0.049   6.433 -0.4804 -0.7295 -0.0136
   27SAPC  H13A 3534   6.230  -0.056   6.450  0.4077 -1.2276 -1.7238
   27SAPC  H13B 3535   6.189   0.116   6.489 -2.0350  0.0864 -2.5786
   27SAPC  H13C 3536   6.241   0.072   6.328 -0.4507  0.8001  0.3024
   27SAPC   C14 3537   6.430   0.224   6.439  0.6952 -0.2536  0.5350
   27SAPC  H14A 3538   6.385   0.305   6.496 -0.1558 -0.8575  0.7375
   27SAPC  H14B 3539   6.532   0.245   6.466  1.4162  0.7681 -2.5604
   27SAPC  H14C 3540   6.419   0.257   6.337  0.9992 -1.7093  0.0125
   27SAPC   C15 3541   6.477  -0.006   6.383  0.0902 -0.3529 -0.3645
   27SAPC  H15A 3542   6.581   0.011   6.410  1.0347 -0.3542 -3.5577
   27SAPC  H15B 3543   6.466  -0.110   6.408  0.4830 -0.8029 -1.9482
   27SAPC  H15C 3544   6.469   0.007   6.276 -1.8061 -1.2194 -0.3567
   27SAPC   C11 3545   6.407  -0.096   6.664 -0.0246 -0.3912  1.0942
   27SAPC  H11A 3546   6.298  -0.115   6.656 -0.4423  2.3365 -1.5031
   27SAPC  H11B 3547   6.417  -0.100   6.774 -2.0706 -2.5164  1.2890
   27SAPC     P 3548   6.447  -0.320   6.539  0.1742  0.1320 -0.4081
   27SAPC   O13 3549   6.340  -0.285   6.448  0.0295 -0.8298  0.6631
   27SAPC   O14 3550   6.564  -0.395   6.489 -0.3573 -0.2864 -0.6342
   27SAPC   O12 3551   6.504  -0.189   6.614 -0.0652 -0.4016  0.7868
   27SAPC   O11 3552   6.384  -0.404   6.657 -0.1649  0.2027  0.6151
   27SAPC    C1 3553   6.469  -0.428   6.777 -0.0375 -0.0774 -0.1546
   27SAPC    HA 3554   6.574  -0.440   6.743 -0.4464  0.4841 -1.7186
   27SAPC    HB 3555   6.460  -0.337   6.841  1.2433 -1.3242  1.9066
   27SAPC    C2 3556   6.421  -0.554   6.848  0.1329  0.7576  0.0256
   27SAPC    HS 3557   6.396  -0.628   6.769  0.4536 -0.4451  1.0112
   27SAPC   O21 3558   6.307  -0.524   6.931 -0.2285  0.5201  0.0334
   27SAPC   C21 3559   6.272  -0.639   6.989  0.0358 -0.4465 -0.3974
   27SAPC   O22 3560   6.306  -0.753   6.954 -0.3907 -0.4714 -0.2347
   27SAPC   C22 3561   6.185  -0.602   7.112  0.0902 -0.4198 -0.2022
   27SAPC   H2R 3562   6.189  -0.494   7.135  3.0449 -0.5352  0.2413
   27SAPC   H2S 3563   6.078  -0.617   7.089  0.1424 -1.0482 -0.0670
   27SAPC    C3 3564   6.546  -0.611   6.933  0.5057 -0.0372 -0.8063
   27SAPC    HX 3565   6.638  -0.588   6.875 -0.7621 -0.0889 -2.9353
   27SAPC    HY 3566   6.522  -0.719   6.943 -1.8105  0.6097  1.6207
   27SAPC   O31 3567   6.541  -0.546   7.063 -0.0490  0.3302  0.2431
   27SAPC   C31 3568   6.610  -0.442   7.087 -0.2339 -0.1467 -0.4741
   27SAPC   O32 3569   6.699  -0.388   7.022  0.0181  0.6664  0.0924
   27SAPC   C32 3570   6.564  -0.383   7.221  0.0353 -0.1309 -0.3097
   27SAPC   H2X 3571   6.453  -0.387   7.229 -0.1740  1.3059 -1.8704
   27SAPC   H2Y 3572   6.577  -0.274   7.210 -2.2419  0.1300 -0.9244
   27SAPC   C23 3573   6.215  -0.687   7.241 -0.1053 -0.0911  1.3089
   27SAPC   H3R 3574   6.268  -0.779   7.209 -2.3972 -0.9065 -0.4557
   27SAPC   H3S 3575   6.113  -0.721   7.272 -1.5996 -0.2404 -3.0948
   27SAPC   C24 3576   6.294  -0.615   7.355 -0.3499  0.0385 -0.1652
   27SAPC   H4R 3577   6.389  -0.572   7.316 -1.0277  0.5223 -1.3244
   27SAPC   H4S 3578   6.306  -0.690   7.435 -1.0545 -1.6939 -1.6093
   27SAPC   C25 3579   6.219  -0.504   7.419 -0.5235 -0.0796 -0.0723
   27SAPC   H5R 3580   6.140  -0.460   7.356 -1.4577 -0.0132  1.1140
   27SAPC   C26 3581   6.233  -0.452   7.542 -0.4099 -0.1031  0.3337
   27SAPC   H6R 3582   6.173  -0.365   7.571  0.6754  0.3121  1.4075
   27SAPC   C27 3583   6.330  -0.500   7.643 -0.7855 -0.6338 -0.4011
   27SAPC   H7R 3584   6.390  -0.419   7.691  0.0650 -1.3586 -0.2004
   27SAPC   H7S 3585   6.392  -0.581   7.599 -0.5683 -1.2519  0.9863
   27SAPC   C28 3586   6.262  -0.564   7.755  0.1624 -0.6441  0.0785
   27SAPC   H8R 3587   6.253  -0.674   7.748  1.6183 -0.7754  0.0848
   27SAPC   C29 3588   6.213  -0.499   7.862  0.2163 -0.7825  0.0233
   27SAPC   H9R 3589   6.166  -0.561   7.940  1.2282 -2.8351 -0.9128
   27SAPC  C210 3590   6.218  -0.350   7.896  0.0372  0.3367 -0.0109
   27SAPC  H10R 3591   6.220  -0.296   7.799 -0.5859  0.8479  0.2586
   27SAPC  H10S 3592   6.317  -0.323   7.940 -1.0486  0.5832  2.4683
   27SAPC  C211 3593   6.101  -0.297   7.980 -0.5539 -0.1316 -0.3482
   27SAPC  H11R 3594   6.009  -0.294   7.921  0.3475  0.4883 -1.7723
   27SAPC  C212 3595   6.102  -0.253   8.105 -0.8098  0.0684 -0.0187
   27SAPC  H12R 3596   6.007  -0.234   8.155  0.1173  0.6920  1.5857
   27SAPC  C213 3597   6.217  -0.240   8.206 -0.3961 -0.0248  0.0962
   27SAPC  H13R 3598   6.208  -0.161   8.284  0.0441 -1.0031  1.1703
   27SAPC  H13S 3599   6.318  -0.226   8.162 -0.4018 -1.3888 -0.4111
   27SAPC  C214 3600   6.213  -0.364   8.295  0.0549  0.4263 -0.4281
   27SAPC  H14R 3601   6.131  -0.436   8.283  1.1989 -1.1577  0.8375
   27SAPC  C215 3602   6.294  -0.382   8.399 -0.2873 -0.4653 -1.0320
   27SAPC  H15R 3603   6.282  -0.469   8.466 -0.1828  0.3800  0.1137
   27SAPC  C216 3604   6.404  -0.288   8.448  0.3946 -0.1769  0.6773
   27SAPC  H16R 3605   6.397  -0.290   8.559 -2.9620  0.6565  0.6015
   27SAPC  H16S 3606   6.398  -0.182   8.417  0.2636 -0.1797  0.6914
   27SAPC  C217 3607   6.549  -0.318   8.405 -0.5742  0.6128  0.0620
   27SAPC  H17R 3608   6.558  -0.344   8.298 -1.0283  0.2177  0.1172
   27SAPC  H17S 3609   6.597  -0.396   8.468  0.6919  3.6185  3.1316
   27SAPC  C218 3610   6.646  -0.199   8.429  0.3874  0.0809  0.0832
   27SAPC  H18R 3611   6.637  -0.177   8.537 -0.9509  0.4307 -0.0773
   27SAPC  H18S 3612   6.626  -0.100   8.382  1.3954  0.5151  0.5551
   27SAPC  C219 3613   6.791  -0.232   8.393 -0.5606  0.1061 -0.4741
   27SAPC  H19R 3614   6.850  -0.139   8.409  0.4935 -0.3296 -1.7019
   27SAPC  H19S 3615   6.799  -0.243   8.283 -0.7071 -2.5625 -0.2743
   27SAPC  C220 3616   6.858  -0.348   8.464 -0.2721 -0.0512 -0.0540
   27SAPC  H20R 3617   6.800  -0.439   8.436 -1.4040  0.7570 -0.3862
   27SAPC  H20S 3618   6.855  -0.347   8.575  0.2016 -0.9687 -0.0253
   27SAPC  H20T 3619   6.966  -0.360   8.442 -0.6549 -2.7093 -0.8416
   27SAPC   C33 3620   6.645  -0.431   7.345 -0.3400 -0.1557  0.3299
   27SAPC   H3X 3621   6.752  -0.445   7.321 -0.6880 -3.3614  0.0974
   27SAPC   H3Y 3622   6.604  -0.533   7.366 -2.2619  0.4199 -0.4488
   27SAPC   C34 3623   6.621  -0.335   7.457 -0.4285 -0.4589 -0.3875
   27SAPC   H4X 3624   6.513  -0.341   7.480 -0.1217  2.1201  2.3390
   27SAPC   H4Y 3625   6.641  -0.230   7.429  1.0589 -0.5062  0.3565
   27SAPC   C35 3626   6.707  -0.373   7.577 -0.2605  0.4906  0.8571
   27SAPC   H5X 3627   6.811  -0.339   7.558 -0.6285  1.3447  0.2856
   27SAPC   H5Y 3628   6.693  -0.483   7.574 -1.4971  0.6424  0.4058
   27SAPC   C36 3629   6.657  -0.304   7.707  0.4177  0.0577 -0.0819
   27SAPC   H6X 3630   6.548  -0.324   7.716  0.5076 -0.0493  0.9126
   27SAPC   H6Y 3631   6.676  -0.197   7.687  1.1126 -0.3597 -1.9164
   27SAPC   C37 3632   6.728  -0.351   7.831 -0.3096 -0.4919  0.2433
   27SAPC   H7X 3633   6.686  -0.294   7.916  0.6766 -0.8864  1.0112
   27SAPC   H7Y 3634   6.838  -0.333   7.826  0.3932 -4.1819 -0.8826
   27SAPC   C38 3635   6.705  -0.500   7.855 -0.1329 -0.0826 -0.0105
   27SAPC   H8X 3636   6.755  -0.553   7.771  0.1033 -0.9981  0.6943
   27SAPC   H8Y 3637   6.596  -0.523   7.858  0.1720 -1.5646  0.1135
   27SAPC   C39 3638   6.771  -0.533   7.993  0.0722 -0.3403  0.0383
   27SAPC   H9X 3639   6.726  -0.467   8.070  1.0455 -0.3172  0.5979
   27SAPC   H9Y 3640   6.877  -0.501   7.987 -0.3300  1.5873  2.0433
   27SAPC  C310 3641   6.767  -0.675   8.043  0.5169  1.0140  0.4734
   27SAPC  H10X 3642   6.822  -0.685   8.139 -1.7295  1.0468  1.8433
   27SAPC  H10Y 3643   6.815  -0.741   7.969  0.7279  0.2924  1.2462
   27SAPC  C311 3644   6.627  -0.731   8.061  0.3044 -0.0017  0.8326
   27SAPC  H11X 3645   6.635  -0.841   8.064 -0.9975 -0.0926  1.4769
   27SAPC  H11Y 3646   6.564  -0.705   7.974  0.1562 -1.0130  0.6359
   27SAPC  C312 3647   6.540  -0.696   8.180 -0.2459  0.4693 -0.2371
   27SAPC  H12X 3648   6.439  -0.741   8.169 -0.5974  0.9138  0.9623
   27SAPC  H12Y 3649   6.518  -0.587   8.178 -0.3974  0.4296 -0.9757
   27SAPC  C313 3650   6.601  -0.745   8.311 -0.4849 -0.2931 -0.5613
   27SAPC  H13X 3651   6.684  -0.671   8.318 -0.2056 -0.6681  0.1520
   27SAPC  H13Y 3652   6.651  -0.843   8.299 -0.8238 -0.6783  0.9825
   27SAPC  C314 3653   6.502  -0.753   8.428  0.4240  0.0689  0.3970
   27SAPC  H14X 3654   6.442  -0.845   8.414  0.9643 -0.4870  1.6081
   27SAPC  H14Y 3655   6.425  -0.672   8.431  1.0699  0.7353 -0.5378
   27SAPC  C315 3656   6.568  -0.756   8.565 -0.5148 -0.0839 -0.6118
   27SAPC  H15X 3657   6.642  -0.676   8.585 -0.5178 -0.5544  1.5500
   27SAPC  H15Y 3658   6.627  -0.850   8.568 -0.4611 -0.0264  1.4756
   27SAPC  C316 3659   6.462  -0.765   8.677 -0.2882  0.7638 -0.0485
   27SAPC  H16X 3660   6.509  -0.819   8.763  1.7871 -0.7777 -2.0322
   27SAPC  H16Y 3661   6.377  -0.828   8.644 -0.6170  0.3159  1.5613
   27SAPC  C317 3662   6.401  -0.633   8.716 -0.0392  0.5825  0.1080
   27SAPC  H17X 3663   6.309  -0.641   8.779 -0.0303 -3.2439 -0.1664
   27SAPC  H17Y 3664   6.376  -0.575   8.624 -1.4128 -1.5030 -0.8999
   27SAPC  C318 3665   6.494  -0.535   8.790 -0.2529  0.5713  0.3239
   27SAPC  H18X 3666   6.574  -0.497   8.723 -0.7876 -0.5427 -1.0006
   27SAPC  H18Y 3667   6.521  -0.582   8.887  0.4297 -3.0521 -1.4269
   27SAPC  H18Z 3668   6.431  -0.446   8.810  1.1033  1.6189  0.0990
   28SAPC     N 3669   5.210   2.734   6.082  0.4782 -0.1024 -0.1857
   28SAPC   C12 3670   5.146   2.727   6.220 -0.5296  0.0833  1.1398
   28SAPC  H12A 3671   5.046   2.767   6.214  0.2575  1.9842 -1.9774
   28SAPC  H12B 3672   5.192   2.794   6.291  0.5980 -0.8546  1.3207
   28SAPC   C13 3673   5.140   2.645   5.990 -0.2691  0.1527  0.2122
   28SAPC  H13A 3674   5.033   2.660   5.994 -0.5946 -1.8976  0.6085
   28SAPC  H13B 3675   5.167   2.671   5.888  0.5558  0.3107  0.4657
   28SAPC  H13C 3676   5.166   2.541   6.003  0.1833  0.2806  0.3340
   28SAPC   C14 3677   5.202   2.873   6.029  0.0697  0.0010 -0.6681
   28SAPC  H14A 3678   5.205   2.886   5.922  0.4750 -0.0056 -0.6584
   28SAPC  H14B 3679   5.111   2.920   6.063 -0.3489 -2.6772  2.4398
   28SAPC  H14C 3680   5.290   2.930   6.053  0.3230  0.0724 -1.7030
   28SAPC   C15 3681   5.355   2.689   6.082  0.4906  0.3066  0.2913
   28SAPC  H15A 3682   5.385   2.697   5.979  0.6709 -0.1687  0.3049
   28SAPC  H15B 3683   5.430   2.739   6.142  0.3330 -1.0140  1.6690
   28SAPC  H15C 3684   5.350   2.588   6.119 -0.2295  0.1445 -0.2280
   28SAPC   C11 3685   5.136   2.590   6.294 -0.3282  0.0797  0.1624
   28SAPC  H11A 3686   5.056   2.530   6.244 -0.3332  1.1128 -1.1237
   28SAPC  H11B 3687   5.091   2.618   6.391  0.9446 -0.8427  1.0602
   28SAPC     P 3688   5.288   2.370   6.316  0.6178  0.0778 -0.3196
   28SAPC   O13 3689   5.318   2.318   6.182 -0.1333 -0.6842  0.1313
   28SAPC   O14 3690   5.392   2.350   6.420  0.3994 -0.3915  0.6017
   28SAPC   O12 3691   5.267   2.522   6.314 -0.5569 -0.0544 -0.3046
   28SAPC   O11 3692   5.141   2.322   6.377 -0.1063 -0.7915  0.6315
   28SAPC    C1 3693   5.136   2.283   6.515 -0.5159 -0.1104  0.0212
   28SAPC    HA 3694   5.140   2.171   6.515 -0.9714 -0.1285 -0.3641
   28SAPC    HB 3695   5.224   2.317   6.574 -1.1022 -0.0442  0.8644
   28SAPC    C2 3696   4.999   2.319   6.575  0.2626 -0.1941 -0.7379
   28SAPC    HS 3697   4.918   2.275   6.515  0.4279 -0.1012 -1.0305
   28SAPC   O21 3698   5.001   2.463   6.591  0.3034  0.8648 -0.1281
   28SAPC   C21 3699   4.874   2.506   6.597  0.2916  0.6800  0.4719
   28SAPC   O22 3700   4.777   2.451   6.553  0.3223  0.2311 -0.0492
   28SAPC   C22 3701   4.871   2.645   6.663  0.1987  0.1928  0.3005
   28SAPC   H2R 3702   4.979   2.662   6.687  0.3739  1.8169 -1.3972
   28SAPC   H2S 3703   4.843   2.726   6.592  0.1291  1.7199  1.9898
   28SAPC    C3 3704   4.988   2.243   6.715 -0.6054 -0.1004  0.2273
   28SAPC    HX 3705   5.067   2.288   6.779  1.7281 -1.5106 -1.5259
   28SAPC    HY 3706   5.016   2.137   6.696 -1.0406  0.0828 -1.6322
   28SAPC   O31 3707   4.854   2.251   6.770  0.1204 -0.0746 -0.2296
   28SAPC   C31 3708   4.768   2.163   6.727  0.2678  0.1227  0.1142
   28SAPC   O32 3709   4.786   2.078   6.644  0.4505 -0.0360 -0.1364
   28SAPC   C32 3710   4.640   2.166   6.809  0.2509 -0.0028 -0.7907
   28SAPC   H2X 3711   4.591   2.070   6.780 -1.3449 -0.4137  2.7761
   28SAPC   H2Y 3712   4.567   2.248   6.790 -2.6107 -1.6493  2.0018
   28SAPC   C23 3713   4.770   2.645   6.778 -0.2450  0.4124 -0.1546
   28SAPC   H3R 3714   4.807   2.565   6.846  0.3524 -1.5094 -2.5701
   28SAPC   H3S 3715   4.670   2.626   6.732 -0.5811  1.2075  0.2404
   28SAPC   C24 3716   4.758   2.781   6.840 -0.8875  0.0274  0.7101
   28SAPC   H4R 3717   4.717   2.847   6.760 -1.1264 -1.5499 -0.5274
   28SAPC   H4S 3718   4.670   2.766   6.906 -0.8720  0.1320  0.7541
   28SAPC   C25 3719   4.880   2.845   6.906 -0.0683 -0.2566  1.1321
   28SAPC   H5R 3720   4.963   2.862   6.836 -0.7924 -3.0945 -0.5861
   28SAPC   C26 3721   4.919   2.867   7.029 -0.3436 -0.6572 -0.4286
   28SAPC   H6R 3722   5.015   2.919   7.046 -0.7203  0.1552 -0.7133
   28SAPC   C27 3723   4.830   2.832   7.149 -0.2034  0.3352  0.4716
   28SAPC   H7R 3724   4.723   2.839   7.121  0.0443 -2.0603 -1.4347
   28SAPC   H7S 3725   4.848   2.913   7.222 -0.2121  0.5856  0.1967
   28SAPC   C28 3726   4.859   2.689   7.199 -0.3813 -0.5597 -0.4019
   28SAPC   H8R 3727   4.905   2.628   7.120 -0.0146 -1.0876  0.2059
   28SAPC   C29 3728   4.829   2.634   7.320  0.1939  1.6807 -0.1181
   28SAPC   H9R 3729   4.857   2.529   7.338  2.0021  2.0418 -0.6247
   28SAPC  C210 3730   4.764   2.701   7.440 -0.2053  0.8550 -0.0067
   28SAPC  H10R 3731   4.718   2.793   7.398  1.4945  0.3431 -3.2893
   28SAPC  H10S 3732   4.849   2.733   7.504  0.1495 -0.3108  0.1268
   28SAPC  C211 3733   4.669   2.613   7.520  0.6108 -0.3707  0.1017
   28SAPC  H11R 3734   4.569   2.605   7.477  0.9369 -1.6535 -0.4503
   28SAPC  C212 3735   4.692   2.555   7.637  0.0854  0.1137  0.0060
   28SAPC  H12R 3736   4.618   2.484   7.678  0.0567  0.6871  0.9716
   28SAPC  C213 3737   4.816   2.566   7.720 -0.5603  0.3500  1.1885
   28SAPC  H13R 3738   4.903   2.604   7.663  0.5428 -0.0044  2.5860
   28SAPC  H13S 3739   4.851   2.461   7.729  0.1689  0.4888  0.1048
   28SAPC  C214 3740   4.796   2.650   7.840  0.0268 -0.2459 -0.1966
   28SAPC  H14R 3741   4.722   2.732   7.840 -0.5311 -0.7076  1.5520
   28SAPC  C215 3742   4.845   2.608   7.963  0.1684 -0.3464 -0.1130
   28SAPC  H15R 3743   4.799   2.658   8.049 -4.6991 -1.7837 -1.5823
   28SAPC  C216 3744   4.918   2.486   7.985 -0.7468  0.1597  0.1614
   28SAPC  H16R 3745   5.021   2.500   7.948 -0.6987 -1.9061 -0.6386
   28SAPC  H16S 3746   4.886   2.394   7.931  4.9822 -1.0727 -1.7848
   28SAPC  C217 3747   4.917   2.438   8.134 -0.0282  0.0521 -0.7915
   28SAPC  H17R 3748   4.814   2.421   8.172  0.3507  2.2907  1.5099
   28SAPC  H17S 3749   4.948   2.521   8.202 -1.0733  0.4089 -0.7289
   28SAPC  C218 3750   5.008   2.321   8.168 -0.4758 -0.5474  0.0689
   28SAPC  H18R 3751   5.108   2.341   8.125 -0.9229 -1.0923 -1.2693
   28SAPC  H18S 3752   4.980   2.226   8.117  0.1393 -1.6659  1.7041
   28SAPC  C219 3753   5.038   2.299   8.314  0.2419 -0.5846 -0.1598
   28SAPC  H19R 3754   5.089   2.387   8.357  0.7379  0.1089 -2.0779
   28SAPC  H19S 3755   5.113   2.218   8.331  2.2586  1.1681 -0.3163
   28SAPC  C220 3756   4.906   2.278   8.386 -1.2572  0.1787  0.8853
   28SAPC  H20R 3757   4.836   2.212   8.330 -2.0710  1.6742  0.0724
   28SAPC  H20S 3758   4.860   2.378   8.396 -0.0215  0.6311  2.4691
   28SAPC  H20T 3759   4.912   2.239   8.490  1.0426  0.4582  0.9085
   28SAPC   C33 3760   4.663   2.158   6.962  0.2401 -0.2221  0.2745
   28SAPC   H3X 3761   4.754   2.099   6.985  0.6384  0.4444  0.4233
   28SAPC   H3Y 3762   4.572   2.109   7.003 -0.5245  1.9118  1.2609
   28SAPC   C34 3763   4.674   2.292   7.023 -1.0749 -0.2328 -0.3245
   28SAPC   H4X 3764   4.594   2.356   6.981  1.5440  2.5729 -1.4557
   28SAPC   H4Y 3765   4.771   2.337   6.991 -0.5645 -0.5175  0.7804
   28SAPC   C35 3766   4.667   2.311   7.174 -0.3451 -0.2552 -0.0367
   28SAPC   H5X 3767   4.671   2.421   7.186  0.1840 -0.2027 -0.6596
   28SAPC   H5Y 3768   4.754   2.274   7.232  0.0223 -0.2108 -0.5569
   28SAPC   C36 3769   4.540   2.260   7.243 -0.2385 -0.0374  0.1438
   28SAPC   H6X 3770   4.556   2.150   7.246  1.5933  0.1275 -1.2288
   28SAPC   H6Y 3771   4.448   2.297   7.193  0.2256  0.4066 -0.4047
   28SAPC   C37 3772   4.517   2.312   7.385  0.2882  0.2001 -0.1776
   28SAPC   H7X 3773   4.474   2.415   7.378  1.5148  0.6789 -1.1539
   28SAPC   H7Y 3774   4.605   2.341   7.446  1.9993 -1.5897 -1.6508
   28SAPC   C38 3775   4.420   2.221   7.458  0.6671  0.1602 -0.3794
   28SAPC   H8X 3776   4.444   2.113   7.455  0.2270  0.0090  1.1015
   28SAPC   H8Y 3777   4.318   2.221   7.414 -0.2343 -0.6179  1.5797
   28SAPC   C39 3778   4.395   2.253   7.610  0.3317 -0.5915  0.1415
   28SAPC   H9X 3779   4.489   2.241   7.668 -1.0486  0.9350  2.8932
   28SAPC   H9Y 3780   4.333   2.172   7.654  0.9082 -0.1558  1.8541
   28SAPC  C310 3781   4.339   2.392   7.634 -0.2107  0.0436 -0.4031
   28SAPC  H10X 3782   4.234   2.378   7.603  0.0081 -1.1982 -0.6235
   28SAPC  H10Y 3783   4.395   2.465   7.571  0.0614  0.9395  0.8257
   28SAPC  C311 3784   4.329   2.427   7.785  0.1448  0.4718  0.0808
   28SAPC  H11X 3785   4.305   2.534   7.805 -0.1570  0.0115  2.5095
   28SAPC  H11Y 3786   4.428   2.410   7.831  0.0570 -1.2195 -0.3009
   28SAPC  C312 3787   4.227   2.345   7.870 -0.7889 -0.0228 -0.6675
   28SAPC  H12X 3788   4.238   2.238   7.844 -0.3767 -0.3137  0.6594
   28SAPC  H12Y 3789   4.128   2.377   7.828 -0.7022  0.6036 -0.4107
   28SAPC  C313 3790   4.233   2.369   8.022  0.5007 -0.3252 -0.6299
   28SAPC  H13X 3791   4.334   2.356   8.066 -0.7303 -1.7238  1.9990
   28SAPC  H13Y 3792   4.167   2.297   8.075  2.8414 -1.2991  1.1449
   28SAPC  C314 3793   4.194   2.509   8.070 -0.3300 -0.7827 -0.1267
   28SAPC  H14X 3794   4.102   2.541   8.017 -0.8656 -0.8344  0.7527
   28SAPC  H14Y 3795   4.278   2.576   8.041 -1.0752  0.5742  0.7383
   28SAPC  C315 3796   4.161   2.506   8.218  0.1755  0.6330 -0.5694
   28SAPC  H15X 3797   4.257   2.492   8.272 -0.5203 -1.7447  0.1910
   28SAPC  H15Y 3798   4.097   2.417   8.232  1.4516 -0.2420 -0.0605
   28SAPC  C316 3799   4.089   2.627   8.276 -0.2832  0.5281  0.2488
   28SAPC  H16X 3800   3.989   2.651   8.233  0.7418  0.8478 -2.1513
   28SAPC  H16Y 3801   4.167   2.703   8.251  2.0001 -2.3617 -2.3325
   28SAPC  C317 3802   4.058   2.601   8.420 -0.9721  0.8314 -0.4908
   28SAPC  H17X 3803   4.150   2.577   8.478 -2.0837 -2.5200  0.1342
   28SAPC  H17Y 3804   4.019   2.497   8.420  0.5237  0.1981 -2.6786
   28SAPC  C318 3805   3.972   2.696   8.495  0.3204 -0.1157 -0.2112
   28SAPC  H18X 3806   3.962   2.659   8.600  0.8301 -2.5513 -0.9575
   28SAPC  H18Y 3807   3.866   2.688   8.461  0.1053 -2.2206  0.7634
   28SAPC  H18Z 3808   4.020   2.796   8.492  0.4652 -0.1680  0.2292
   29SAPC     N 3809   0.668   1.083   6.398  0.0636 -0.6177 -0.1773
   29SAPC   C12 3810   0.614   0.964   6.482 -0.1908 -0.0129  0.1756
   29SAPC  H12A 3811   0.663   0.960   6.578 -1.5317 -0.5140  0.8819
   29SAPC  H12B 3812   0.647   0.873   6.435  0.4086 -0.8956  2.1819
   29SAPC   C13 3813   0.617   1.064   6.259 -1.0426 -0.2803 -0.1280
   29SAPC  H13A 3814   0.652   1.141   6.191  1.1647  0.8391  2.0954
   29SAPC  H13B 3815   0.641   0.967   6.219  0.5808  0.6262 -1.4937
   29SAPC  H13C 3816   0.511   1.076   6.270 -0.9338  0.4420  0.1830
   29SAPC   C14 3817   0.632   1.217   6.457  0.4798 -0.5717 -0.8544
   29SAPC  H14A 3818   0.654   1.222   6.563  0.8542  0.4389 -0.9766
   29SAPC  H14B 3819   0.685   1.302   6.417 -1.2247  0.4302 -1.0886
   29SAPC  H14C 3820   0.527   1.242   6.459  0.2454 -1.3505  2.1496
   29SAPC   C15 3821   0.820   1.078   6.392 -0.2926  0.4716 -0.2089
   29SAPC  H15A 3822   0.868   1.106   6.485  1.5574  2.2409 -1.6137
   29SAPC  H15B 3823   0.849   0.976   6.370 -2.7815 -0.7625  1.7232
   29SAPC  H15C 3824   0.854   1.147   6.316 -0.0877 -0.8519 -1.3632
   29SAPC   C11 3825   0.458   0.951   6.505 -0.3440  0.2445  1.1789
   29SAPC  H11A 3826   0.414   1.048   6.538  0.6912  0.7783  1.0579
   29SAPC  H11B 3827   0.449   0.880   6.590  3.7387 -1.9556  0.0663
   29SAPC     P 3828   0.371   0.765   6.358 -0.5122 -0.2996  0.3736
   29SAPC   O13 3829   0.302   0.764   6.226 -0.6649  0.2547  0.4919
   29SAPC   O14 3830   0.505   0.700   6.363 -0.0353 -1.0190 -0.1581
   29SAPC   O12 3831   0.393   0.914   6.384 -0.0877 -0.3165 -0.3289
   29SAPC   O11 3832   0.276   0.721   6.479 -0.2389  0.0674 -0.5325
   29SAPC    C1 3833   0.160   0.806   6.501 -0.1971 -0.3620  0.2357
   29SAPC    HA 3834   0.183   0.912   6.524 -1.1671 -0.5508  2.2410
   29SAPC    HB 3835   0.091   0.800   6.414 -0.2333 -1.6213  0.3437
   29SAPC    C2 3836   0.079   0.759   6.621  0.0692  0.0258  0.1205
   29SAPC    HS 3837   0.002   0.832   6.653 -0.9546 -0.8330 -0.3205
   29SAPC   O21 3838   0.163   0.734   6.736 -0.2452 -0.2808 -0.6581
   29SAPC   C21 3839   0.229   0.828   6.793  0.6275  0.9123 -0.6453
   29SAPC   O22 3840   0.242   0.940   6.760 -0.4291 -0.3297  0.4130
   29SAPC   C22 3841   0.298   0.770   6.917 -0.8719  0.0894  0.2978
   29SAPC   H2R 3842   0.276   0.847   6.995 -1.7111  0.5351 -0.3610
   29SAPC   H2S 3843   0.250   0.672   6.934 -2.6246  0.4978 -1.9182
   29SAPC    C3 3844  -0.001   0.630   6.591 -0.3703 -0.8782 -0.3681
   29SAPC    HX 3845   0.061   0.542   6.566  0.3521 -0.3074 -0.6292
   29SAPC    HY 3846  -0.060   0.654   6.501 -0.2838 -0.0228 -0.2054
   29SAPC   O31 3847  -0.093   0.602   6.700 -0.4526 -0.4206 -0.3954
   29SAPC   C31 3848  -0.055   0.524   6.796 -0.6491  0.3302  0.2683
   29SAPC   O32 3849   0.055   0.473   6.812  0.5543  0.4441  0.1646
   29SAPC   C32 3850  -0.177   0.496   6.880  0.7811  0.0374  0.2629
   29SAPC   H2X 3851  -0.249   0.433   6.824  2.6797  0.7899 -3.3441
   29SAPC   H2Y 3852  -0.231   0.592   6.892 -0.2504 -0.6664  1.4553
   29SAPC   C23 3853   0.455   0.766   6.910  1.1771  0.1818  0.4981
   29SAPC   H3R 3854   0.493   0.870   6.901  3.1189 -0.5410 -0.0477
   29SAPC   H3S 3855   0.489   0.709   6.821 -1.2280  1.2375 -1.2213
   29SAPC   C24 3856   0.510   0.717   7.043  0.0192  0.8113  0.7033
   29SAPC   H4R 3857   0.443   0.637   7.081  0.0455 -0.3674 -1.5760
   29SAPC   H4S 3858   0.510   0.788   7.129 -0.0988  0.1688  1.2408
   29SAPC   C25 3859   0.656   0.664   7.022  0.8349 -0.3608  0.2817
   29SAPC   H5R 3860   0.712   0.712   6.941 -2.1362  0.1049 -1.6280
   29SAPC   C26 3861   0.713   0.563   7.084  0.1079 -0.0634 -0.2541
   29SAPC   H6R 3862   0.812   0.540   7.042 -0.6075  0.3798 -2.3119
   29SAPC   C27 3863   0.665   0.466   7.186  0.1933  0.2677 -0.5658
   29SAPC   H7R 3864   0.655   0.517   7.283 -3.4821  0.8586 -1.1184
   29SAPC   H7S 3865   0.755   0.403   7.203 -0.9464 -0.8345  1.8054
   29SAPC   C28 3866   0.545   0.379   7.149 -0.3787 -0.6034  0.2996
   29SAPC   H8R 3867   0.556   0.306   7.068  1.1161 -1.4376  1.2033
   29SAPC   C29 3868   0.430   0.380   7.212  0.4799  0.3841 -0.8471
   29SAPC   H9R 3869   0.346   0.315   7.182 -0.4429  0.5642  1.1910
   29SAPC  C210 3870   0.390   0.459   7.336 -0.8234  0.4183  0.2685
   29SAPC  H10R 3871   0.292   0.506   7.315 -1.5700 -0.4736  1.5422
   29SAPC  H10S 3872   0.457   0.547   7.344 -0.3752  0.1344 -0.3373
   29SAPC  C211 3873   0.383   0.386   7.468  0.0994 -0.5170  0.2120
   29SAPC  H11R 3874   0.438   0.291   7.463  1.0917  0.0640 -0.3043
   29SAPC  C212 3875   0.316   0.418   7.578  0.0769  0.0489  0.4347
   29SAPC  H12R 3876   0.306   0.349   7.663 -1.3929 -0.3376 -0.0076
   29SAPC  C213 3877   0.233   0.544   7.596 -0.0196  0.2957 -0.1591
   29SAPC  H13R 3878   0.130   0.507   7.617  0.4716 -0.2898  1.3442
   29SAPC  H13S 3879   0.231   0.604   7.502  2.1861  1.7843  0.6696
   29SAPC  C214 3880   0.290   0.641   7.701 -0.0654  0.3326  1.0105
   29SAPC  H14R 3881   0.392   0.676   7.676 -0.3132  0.9880  0.9079
   29SAPC  C215 3882   0.230   0.685   7.809 -0.7540  0.1245  0.8355
   29SAPC  H15R 3883   0.290   0.755   7.870  0.2314 -0.9664  1.1555
   29SAPC  C216 3884   0.085   0.657   7.847  0.3182  0.5427 -0.2503
   29SAPC  H16R 3885   0.025   0.612   7.765  1.0700 -0.3584 -0.3214
   29SAPC  H16S 3886   0.038   0.757   7.858  1.0225  0.7981  0.5282
   29SAPC  C217 3887   0.069   0.599   7.991  0.0705  0.3703 -0.4348
   29SAPC  H17R 3888   0.143   0.642   8.062 -1.2413  2.1273 -0.0458
   29SAPC  H17S 3889   0.077   0.488   7.992 -0.1041  0.3583 -0.1366
   29SAPC  C218 3890  -0.066   0.635   8.049  0.2370 -0.1475  0.0730
   29SAPC  H18R 3891  -0.151   0.595   7.989 -0.0531 -2.6147  1.9447
   29SAPC  H18S 3892  -0.063   0.746   8.055 -0.1350 -0.0894 -0.6848
   29SAPC  C219 3893  -0.095   0.572   8.191  0.3254  0.2692  0.5051
   29SAPC  H19R 3894  -0.106   0.462   8.184 -0.5324  0.2716  1.5356
   29SAPC  H19S 3895  -0.190   0.615   8.229  0.0326 -1.0408  1.3177
   29SAPC  C220 3896   0.017   0.598   8.293 -0.1664  0.5409 -0.0692
   29SAPC  H20R 3897   0.045   0.706   8.300  2.4504 -0.1393  1.1132
   29SAPC  H20S 3898   0.105   0.539   8.260 -1.2551 -0.4478 -1.2819
   29SAPC  H20T 3899  -0.015   0.560   8.393 -0.7909 -0.0181 -0.4743
   29SAPC   C33 3900  -0.156   0.431   7.015 -0.2877 -0.6218 -0.3708
   29SAPC   H3X 3901  -0.082   0.499   7.062 -2.2773  2.1456 -1.0157
   29SAPC   H3Y 3902  -0.120   0.327   6.997  1.9685  0.1670 -0.7141
   29SAPC   C34 3903  -0.276   0.451   7.108  0.8344  0.3304 -0.5288
   29SAPC   H4X 3904  -0.364   0.398   7.066  0.2431  1.2071 -0.4481
   29SAPC   H4Y 3905  -0.308   0.557   7.092  1.4370  0.6506  0.3373
   29SAPC   C35 3906  -0.253   0.430   7.257  0.5694  0.1241  0.5947
   29SAPC   H5X 3907  -0.158   0.482   7.278  1.0742 -0.7057  0.4009
   29SAPC   H5Y 3908  -0.234   0.321   7.270 -0.0117  0.0113  0.5373
   29SAPC   C36 3909  -0.356   0.495   7.354  0.0861 -0.2725 -0.6193
   29SAPC   H6X 3910  -0.461   0.487   7.321 -0.7721 -2.3048  2.2652
   29SAPC   H6Y 3911  -0.325   0.601   7.369 -1.9111  0.2134  0.5122
   29SAPC   C37 3912  -0.345   0.425   7.483 -0.3097 -0.0101  0.2930
   29SAPC   H7X 3913  -0.239   0.399   7.505 -0.1983  0.0532 -0.1612
   29SAPC   H7Y 3914  -0.396   0.327   7.470 -0.4797  0.1142  0.0207
   29SAPC   C38 3915  -0.409   0.502   7.601  0.8704 -0.0584  0.1779
   29SAPC   H8X 3916  -0.513   0.532   7.577  0.9549 -0.1372 -0.2863
   29SAPC   H8Y 3917  -0.344   0.589   7.625 -0.1247  1.0678 -1.0749
   29SAPC   C39 3918  -0.427   0.419   7.726  0.3914  0.5355  0.0491
   29SAPC   H9X 3919  -0.321   0.397   7.753  1.3421  1.4077 -2.6169
   29SAPC   H9Y 3920  -0.477   0.322   7.707  2.7971 -0.2676 -2.9659
   29SAPC  C310 3921  -0.504   0.499   7.835  0.1852 -0.4181 -0.1356
   29SAPC  H10X 3922  -0.498   0.439   7.929 -0.4178 -0.7379 -0.2993
   29SAPC  H10Y 3923  -0.606   0.526   7.801  0.1844  0.2671  0.3987
   29SAPC  C311 3924  -0.447   0.634   7.878  0.1354  0.7207 -0.2303
   29SAPC  H11X 3925  -0.460   0.705   7.793 -0.8944 -0.6590 -1.2821
   29SAPC  H11Y 3926  -0.340   0.625   7.907  0.3224 -0.3105 -1.2089
   29SAPC  C312 3927  -0.512   0.679   8.016  0.1047  0.6476  0.2252
   29SAPC  H12X 3928  -0.506   0.591   8.083  1.4877 -0.5730 -1.4136
   29SAPC  H12Y 3929  -0.619   0.708   8.005 -0.2857 -0.5416  0.6790
   29SAPC  C313 3930  -0.436   0.794   8.085  0.0757 -0.3890  0.3619
   29SAPC  H13X 3931  -0.421   0.872   8.007  1.8836  0.6230  1.6400
   29SAPC  H13Y 3932  -0.336   0.756   8.116  0.1414  0.8237  1.7698
   29SAPC  C314 3933  -0.515   0.847   8.201  0.8944 -0.4346 -0.5832
   29SAPC  H14X 3934  -0.529   0.766   8.276 -0.7841  0.2501 -0.0993
   29SAPC  H14Y 3935  -0.613   0.888   8.168  0.1926  1.0919  2.9634
   29SAPC  C315 3936  -0.451   0.962   8.269  0.5366  0.1631 -0.0106
   29SAPC  H15X 3937  -0.435   1.028   8.181 -0.8469 -0.2543 -0.6059
   29SAPC  H15Y 3938  -0.349   0.936   8.304  0.2787  1.5386  1.8999
   29SAPC  C316 3939  -0.512   1.025   8.395 -0.0665  0.0438  0.1928
   29SAPC  H16X 3940  -0.539   0.951   8.473 -0.4942 -0.3067 -0.2844
   29SAPC  H16Y 3941  -0.601   1.084   8.364 -0.9044 -0.3408  1.7482
   29SAPC  C317 3942  -0.407   1.117   8.461 -0.3512  0.0251  0.1714
   29SAPC  H17X 3943  -0.356   1.189   8.394  1.5598 -2.0548 -0.7532
   29SAPC  H17Y 3944  -0.327   1.050   8.499 -1.5016 -2.1478 -1.0369
   29SAPC  C318 3945  -0.461   1.187   8.584 -0.1690 -0.1411  0.3390
   29SAPC  H18X 3946  -0.544   1.254   8.554  0.3745  1.2664  1.8186
   29SAPC  H18Y 3947  -0.388   1.257   8.631  0.8649 -1.7648  1.2615
   29SAPC  H18Z 3948  -0.498   1.114   8.659  1.7020 -1.3779  0.1216
   30SAPC     N 3949   2.302   6.139   5.784 -0.0211 -0.1506 -0.5930
   30SAPC   C12 3950   2.338   6.131   5.930  0.1245  0.1442  0.5221
   30SAPC  H12A 3951   2.407   6.049   5.941 -0.3284 -0.5318 -1.3880
   30SAPC  H12B 3952   2.252   6.098   5.986 -0.5468  1.5641  0.3851
   30SAPC   C13 3953   2.424   6.136   5.704 -0.4880 -0.5009  0.2924
   30SAPC  H13A 3954   2.406   6.142   5.598  0.5153  0.6720  0.1673
   30SAPC  H13B 3955   2.500   6.212   5.717  1.7626 -1.7294 -3.9745
   30SAPC  H13C 3956   2.465   6.037   5.715 -1.8787 -0.9494  1.9766
   30SAPC   C14 3957   2.223   6.020   5.758  0.0169 -0.9257 -0.3558
   30SAPC  H14A 3958   2.266   5.926   5.789  0.3807 -0.0724  1.9467
   30SAPC  H14B 3959   2.125   6.025   5.802 -0.4298 -1.7538 -1.2155
   30SAPC  H14C 3960   2.207   6.019   5.651  0.6878  1.6206 -0.5536
   30SAPC   C15 3961   2.219   6.258   5.749 -0.0816  0.0541 -0.3984
   30SAPC  H15A 3962   2.123   6.266   5.798 -0.8378 -1.8559 -1.4636
   30SAPC  H15B 3963   2.285   6.340   5.770  0.2573 -0.2051 -0.4420
   30SAPC  H15C 3964   2.199   6.251   5.643  0.6513  1.0118 -0.6110
   30SAPC   C11 3965   2.404   6.251   6.004 -0.1246  0.0848 -0.0652
   30SAPC  H11A 3966   2.485   6.286   5.937  0.1783 -2.0500 -0.8931
   30SAPC  H11B 3967   2.468   6.225   6.092  0.4139 -1.6579 -0.9305
   30SAPC     P 3968   2.192   6.321   6.109 -0.3685  0.3946  0.3057
   30SAPC   O13 3969   2.101   6.437   6.119 -0.1219  0.4435  0.1733
   30SAPC   O14 3970   2.127   6.185   6.090 -0.2810 -0.2455  0.6233
   30SAPC   O12 3971   2.310   6.359   6.010 -0.5633  0.3160 -0.0584
   30SAPC   O11 3972   2.274   6.319   6.251  0.0407  0.2108  0.7717
   30SAPC    C1 3973   2.353   6.432   6.306  0.0765  0.6458 -0.0691
   30SAPC    HA 3974   2.351   6.525   6.245 -1.3972  0.6283 -0.0953
   30SAPC    HB 3975   2.311   6.457   6.406  2.4874 -0.5907  1.3469
   30SAPC    C2 3976   2.503   6.395   6.333  0.9774  0.2068 -0.1398
   30SAPC    HS 3977   2.542   6.359   6.235  0.8810 -4.1939  1.2175
   30SAPC   O21 3978   2.503   6.285   6.427  0.5234 -0.0324 -0.1507
   30SAPC   C21 3979   2.617   6.221   6.435 -0.7235  0.1941  0.2558
   30SAPC   O22 3980   2.718   6.259   6.385  0.2475  0.0726 -0.2317
   30SAPC   C22 3981   2.630   6.110   6.539 -0.0969  0.4482  0.2235
   30SAPC   H2R 3982   2.639   6.161   6.637 -0.7701  1.0736 -0.0352
   30SAPC   H2S 3983   2.526   6.072   6.533 -0.1566  0.3296  1.8182
   30SAPC    C3 3984   2.572   6.526   6.388 -0.4455 -0.6360 -0.1657
   30SAPC    HX 3985   2.542   6.613   6.325  1.9554  0.3402 -0.0780
   30SAPC    HY 3986   2.681   6.506   6.379 -0.2764  0.5856 -1.0464
   30SAPC   O31 3987   2.543   6.532   6.526  0.1651 -0.3552  0.4154
   30SAPC   C31 3988   2.513   6.658   6.571  0.2028 -0.3917 -0.0284
   30SAPC   O32 3989   2.513   6.763   6.501 -0.0404  0.5135 -0.2464
   30SAPC   C32 3990   2.469   6.642   6.717 -0.1043 -0.6814  0.0267
   30SAPC   H2X 3991   2.555   6.595   6.769 -1.6669 -0.5765  2.9148
   30SAPC   H2Y 3992   2.386   6.569   6.720 -0.2290 -0.6194 -1.4147
   30SAPC   C23 3993   2.745   6.015   6.507  0.1307 -0.2380 -0.3688
   30SAPC   H3R 3994   2.832   6.062   6.457  0.3772 -0.3493 -0.0482
   30SAPC   H3S 3995   2.715   5.939   6.432 -2.5504  1.0152 -0.6999
   30SAPC   C24 3996   2.794   5.933   6.629  0.2063 -0.0851 -0.2920
   30SAPC   H4R 3997   2.713   5.915   6.702  0.0116 -0.3303 -0.5624
   30SAPC   H4S 3998   2.870   5.990   6.686  2.3162 -1.5781 -1.4595
   30SAPC   C25 3999   2.857   5.799   6.587  0.2801 -0.4824 -0.3357
   30SAPC   H5R 4000   2.800   5.745   6.510  1.1203 -1.4764 -0.2915
   30SAPC   C26 4001   2.973   5.753   6.634 -0.2805 -0.3302 -0.5960
   30SAPC   H6R 4002   3.000   5.650   6.604  0.0269 -0.0451 -1.3116
   30SAPC   C27 4003   3.064   5.827   6.728 -1.2503  0.3229  0.7565
   30SAPC   H7R 4004   3.095   5.922   6.678 -1.2220  1.7680  3.3366
   30SAPC   H7S 4005   3.163   5.777   6.724 -1.1440  0.5965 -0.2686
   30SAPC   C28 4006   3.029   5.844   6.871  0.2925  0.8717 -0.4166
   30SAPC   H8R 4007   2.925   5.817   6.894 -0.3151  1.4579 -2.2452
   30SAPC   C29 4008   3.109   5.893   6.967  0.4589  0.4147 -0.3345
   30SAPC   H9R 4009   3.077   5.886   7.072  0.3364  2.0682 -0.2314
   30SAPC  C210 4010   3.253   5.930   6.952 -0.9753  0.0299 -0.1993
   30SAPC  H10R 4011   3.258   6.037   6.985 -1.3424 -0.0136 -0.0028
   30SAPC  H10S 4012   3.292   5.928   6.848 -0.9886  1.4207 -0.2507
   30SAPC  C211 4013   3.334   5.841   7.036 -0.1806  0.1029 -1.0835
   30SAPC  H11R 4014   3.370   5.759   6.972 -1.4162  0.0341 -1.7079
   30SAPC  C212 4015   3.358   5.844   7.169  0.2188 -0.0763  0.6254
   30SAPC  H12R 4016   3.410   5.762   7.220  0.6416 -2.2394 -2.8931
   30SAPC  C213 4017   3.310   5.952   7.258  0.0734  0.6023 -0.2948
   30SAPC  H13R 4018   3.222   5.913   7.313  0.9054  2.8754  2.9592
   30SAPC  H13S 4019   3.291   6.044   7.200 -0.3815 -0.1455 -1.3593
   30SAPC  C214 4020   3.408   5.984   7.368 -0.4172 -0.3767 -0.6944
   30SAPC  H14R 4021   3.492   6.044   7.331  0.1810 -2.0901 -2.3170
   30SAPC  C215 4022   3.405   5.954   7.500 -0.6876  0.5224  0.2793
   30SAPC  H15R 4023   3.495   5.983   7.556 -0.1050  1.6518 -1.1822
   30SAPC  C216 4024   3.296   5.876   7.575 -0.4076 -0.1464  0.0862
   30SAPC  H16R 4025   3.320   5.768   7.580  4.1623  0.7019  0.5387
   30SAPC  H16S 4026   3.193   5.896   7.539  0.3620  1.0232 -1.5835
   30SAPC  C217 4027   3.305   5.918   7.724  0.4174 -0.9858 -0.4292
   30SAPC  H17R 4028   3.256   6.017   7.734 -0.3207 -1.5323  1.8057
   30SAPC  H17S 4029   3.411   5.935   7.754  0.3855 -0.6083 -0.5298
   30SAPC  C218 4030   3.228   5.823   7.818 -0.5858 -0.1490 -0.2247
   30SAPC  H18R 4031   3.281   5.725   7.821 -0.0545  0.1660  1.7930
   30SAPC  H18S 4032   3.125   5.807   7.780 -0.7940 -2.4336  1.0982
   30SAPC  C219 4033   3.207   5.866   7.964  0.1362  0.3201  0.1407
   30SAPC  H19R 4034   3.135   5.950   7.952  0.9378  0.9055 -0.7080
   30SAPC  H19S 4035   3.297   5.908   8.012 -0.4441 -0.9460  2.4835
   30SAPC  C220 4036   3.146   5.756   8.051 -0.1269  0.4532 -0.8187
   30SAPC  H20R 4037   3.234   5.697   8.083 -0.7692  0.1614  0.4517
   30SAPC  H20S 4038   3.067   5.702   7.993 -0.4162 -0.7618  0.6558
   30SAPC  H20T 4039   3.102   5.798   8.143  2.4575 -1.4158  1.4201
   30SAPC   C33 4040   2.435   6.779   6.786  0.4068 -0.7959 -0.3106
   30SAPC   H3X 4041   2.338   6.809   6.741  0.5748 -0.5918 -0.5388
   30SAPC   H3Y 4042   2.508   6.855   6.753  1.5576 -1.5133  0.5173
   30SAPC   C34 4043   2.436   6.787   6.937  0.2883  0.1852  0.4552
   30SAPC   H4X 4044   2.535   6.767   6.982  0.4433  0.0606  0.0693
   30SAPC   H4Y 4045   2.360   6.720   6.981  1.4696 -0.4710  1.5519
   30SAPC   C35 4046   2.393   6.929   6.981 -0.1724 -0.5927 -0.2883
   30SAPC   H5X 4047   2.312   6.978   6.923  1.1089  0.6522 -1.0899
   30SAPC   H5Y 4048   2.483   6.992   6.999  1.4778 -2.2200 -2.4221
   30SAPC   C36 4049   2.337   6.923   7.125 -0.6685 -0.9572 -0.1367
   30SAPC   H6X 4050   2.408   6.867   7.189  1.2800  0.4206 -0.9774
   30SAPC   H6Y 4051   2.244   6.864   7.136 -0.6845 -0.5633  2.3812
   30SAPC   C37 4052   2.318   7.063   7.186 -0.6797  0.2482 -0.8012
   30SAPC   H7X 4053   2.246   7.127   7.131 -0.4767  1.0483 -0.1394
   30SAPC   H7Y 4054   2.418   7.111   7.183  1.0656 -3.1383 -1.4375
   30SAPC   C38 4055   2.275   7.056   7.334 -0.0287  0.6192  0.1661
   30SAPC   H8X 4056   2.267   7.154   7.385  1.7074 -0.2737  2.3262
   30SAPC   H8Y 4057   2.349   7.006   7.401  1.9455 -0.4962 -2.6474
   30SAPC   C39 4058   2.135   6.992   7.352  0.0258  0.0481 -0.3803
   30SAPC   H9X 4059   2.132   6.881   7.340 -1.0079 -0.0083  0.2369
   30SAPC   H9Y 4060   2.071   7.027   7.268 -0.8187 -1.0424 -0.2272
   30SAPC  C310 4061   2.070   7.038   7.485  0.6196  0.1046 -0.2395
   30SAPC  H10X 4062   1.970   6.989   7.494 -0.8044  2.2026 -3.0953
   30SAPC  H10Y 4063   2.042   7.145   7.477  0.2494 -0.1079 -2.2241
   30SAPC  C311 4064   2.157   7.029   7.608 -0.5966  0.1831  0.9962
   30SAPC  H11X 4065   2.097   7.060   7.697  0.7111  0.0847  1.9422
   30SAPC  H11Y 4066   2.243   7.099   7.600 -0.9009  0.5983  1.2930
   30SAPC  C312 4067   2.199   6.887   7.638  0.3120 -0.2717  0.4416
   30SAPC  H12X 4068   2.276   6.848   7.567  0.6754  0.2175  0.5662
   30SAPC  H12Y 4069   2.109   6.822   7.633 -0.2358  0.5325 -3.0193
   30SAPC  C313 4070   2.262   6.875   7.780 -0.2779 -0.0315  0.2509
   30SAPC  H13X 4071   2.184   6.899   7.855 -0.6741  0.2859 -0.2614
   30SAPC  H13Y 4072   2.349   6.940   7.803  0.0762  0.2656 -1.7619
   30SAPC  C314 4073   2.315   6.736   7.802  0.2806  0.0024 -0.6909
   30SAPC  H14X 4074   2.352   6.743   7.906 -1.0425 -1.4688 -0.0783
   30SAPC  H14Y 4075   2.379   6.687   7.725  1.8166 -0.3341  0.7568
   30SAPC  C315 4076   2.202   6.629   7.819 -0.1015 -0.0970 -0.0029
   30SAPC  H15X 4077   2.130   6.625   7.734 -0.9143 -2.0964  0.7110
   30SAPC  H15Y 4078   2.144   6.648   7.911  1.3574  1.3712  0.6629
   30SAPC  C316 4079   2.256   6.489   7.835  0.2935 -0.1228  0.1965
   30SAPC  H16X 4080   2.343   6.495   7.904  1.1291  0.5271 -0.8707
   30SAPC  H16Y 4081   2.300   6.450   7.740 -2.7503  0.6020 -1.6556
   30SAPC  C317 4082   2.146   6.383   7.862 -0.5527 -0.1810  0.1933
   30SAPC  H17X 4083   2.202   6.290   7.838 -0.6885 -0.0555 -0.6373
   30SAPC  H17Y 4084   2.072   6.388   7.779 -0.1322 -1.3043 -0.2710
   30SAPC  C318 4085   2.085   6.370   7.995 -0.7555  0.4076 -1.1109
   30SAPC  H18X 4086   2.170   6.340   8.060 -2.3950 -3.1639 -0.3968
   30SAPC  H18Y 4087   2.006   6.292   8.004  1.5041 -2.2370 -2.6861
   30SAPC  H18Z 4088   2.046   6.466   8.035 -2.6421 -0.2243 -1.3307
   31SAPC     N 4089   2.822   1.436   6.001  0.1623 -0.6552 -0.3229
   31SAPC   C12 4090   2.824   1.483   6.147  0.4823 -0.3264 -0.0381
   31SAPC  H12A 4091   2.727   1.529   6.157  0.1378 -1.3526  1.8341
   31SAPC  H12B 4092   2.913   1.543   6.158  0.7562 -0.4734 -1.2645
   31SAPC   C13 4093   2.704   1.337   5.985 -1.0070 -0.9789 -0.2330
   31SAPC  H13A 4094   2.689   1.312   5.882  0.1890  0.2991 -0.7510
   31SAPC  H13B 4095   2.730   1.240   6.024  1.5565 -0.9608 -1.7117
   31SAPC  H13C 4096   2.616   1.386   6.024  0.4787  2.7945 -1.1485
   31SAPC   C14 4097   2.796   1.555   5.905 -0.5900 -0.0489 -0.3519
   31SAPC  H14A 4098   2.802   1.509   5.808 -1.5566 -0.7477 -0.0948
   31SAPC  H14B 4099   2.706   1.612   5.922 -1.7924 -1.2945 -2.1991
   31SAPC  H14C 4100   2.876   1.626   5.921  0.1229 -1.1005  0.9330
   31SAPC   C15 4101   2.947   1.366   5.959 -0.5684  0.2155 -0.1402
   31SAPC  H15A 4102   2.917   1.306   5.874  0.5517 -2.6002  1.3000
   31SAPC  H15B 4103   3.028   1.434   5.938  1.0908 -1.4407  0.5876
   31SAPC  H15C 4104   2.982   1.300   6.038  2.5538  2.7352  0.7906
   31SAPC   C11 4105   2.828   1.374   6.256  0.2396 -0.5127  0.2042
   31SAPC  H11A 4106   2.737   1.313   6.241 -1.3860  1.4972  1.4049
   31SAPC  H11B 4107   2.819   1.417   6.358  2.0706  1.5966 -0.4493
   31SAPC     P 4108   3.077   1.340   6.321  0.3041 -0.1699 -0.0028
   31SAPC   O13 4109   3.195   1.288   6.248 -0.3566 -0.2356  0.5232
   31SAPC   O14 4110   3.071   1.486   6.346 -0.3239  0.6327  0.2142
   31SAPC   O12 4111   2.945   1.290   6.247  0.1338 -0.1467  0.5662
   31SAPC   O11 4112   3.088   1.272   6.459  0.1955 -0.7659 -0.4430
   31SAPC    C1 4113   3.073   1.133   6.468  0.0086  1.0580 -0.0288
   31SAPC    HA 4114   2.964   1.112   6.463  0.4316 -1.6213  0.7253
   31SAPC    HB 4115   3.130   1.086   6.386 -1.2795  0.2386 -0.4722
   31SAPC    C2 4116   3.126   1.085   6.611 -0.7650  0.2135 -0.0091
   31SAPC    HS 4117   3.136   0.975   6.615  0.1925  0.2994  0.2436
   31SAPC   O21 4118   3.027   1.124   6.701  0.6062 -0.3395 -0.1965
   31SAPC   C21 4119   3.027   1.073   6.820 -0.4055  0.1482 -0.8041
   31SAPC   O22 4120   3.092   0.979   6.858  0.8057 -0.3931 -0.4718
   31SAPC   C22 4121   2.935   1.169   6.912 -0.4825  0.1278 -0.0912
   31SAPC   H2R 4122   3.005   1.236   6.966 -2.0399  0.3517  1.7777
   31SAPC   H2S 4123   2.872   1.238   6.852 -1.6085 -0.7229  0.0923
   31SAPC    C3 4124   3.268   1.153   6.638  0.0283  0.7259  0.3606
   31SAPC    HX 4125   3.248   1.262   6.648 -3.3191  0.1708  1.2251
   31SAPC    HY 4126   3.321   1.133   6.543 -1.7150 -3.5826  0.0739
   31SAPC   O31 4127   3.330   1.109   6.761 -0.2697 -0.5252  0.3615
   31SAPC   C31 4128   3.394   0.988   6.755  0.0955 -0.7057 -0.1241
   31SAPC   O32 4129   3.399   0.920   6.658  0.2177 -0.1008 -0.0401
   31SAPC   C32 4130   3.463   0.947   6.889 -0.4135 -1.1017 -0.3847
   31SAPC   H2X 4131   3.462   1.040   6.949 -1.6495 -0.5625 -1.2177
   31SAPC   H2Y 4132   3.568   0.915   6.869 -0.7109 -0.3856 -3.5652
   31SAPC   C23 4133   2.838   1.102   7.009  0.3537 -0.0685 -0.5084
   31SAPC   H3R 4134   2.769   1.042   6.946  1.5260 -1.4847 -0.4862
   31SAPC   H3S 4135   2.765   1.176   7.050  2.1897  1.4839  0.1187
   31SAPC   C24 4136   2.892   1.016   7.122  0.7801  0.0676 -0.4336
   31SAPC   H4R 4137   2.941   0.929   7.073 -0.9188 -1.0205 -0.2809
   31SAPC   H4S 4138   2.813   0.968   7.185 -1.9702  3.0710 -1.3078
   31SAPC   C25 4139   2.995   1.097   7.197  0.0446  0.0877  0.6882
   31SAPC   H5R 4140   3.091   1.105   7.144  0.1604 -2.1290  0.4423
   31SAPC   C26 4141   2.978   1.155   7.312 -0.5263 -0.4608 -0.5697
   31SAPC   H6R 4142   3.063   1.216   7.347 -0.9874  1.2100 -2.2187
   31SAPC   C27 4143   2.863   1.176   7.406 -0.0445 -0.3929  0.3502
   31SAPC   H7R 4144   2.852   1.103   7.489  1.8404  1.3171  2.2263
   31SAPC   H7S 4145   2.762   1.154   7.363  0.2367 -1.1625  0.0687
   31SAPC   C28 4146   2.850   1.320   7.454 -0.0734 -0.2460  0.2191
   31SAPC   H8R 4147   2.905   1.394   7.395  0.4822  1.2669  2.5269
   31SAPC   C29 4148   2.798   1.364   7.565  0.6159  0.9647  0.0039
   31SAPC   H9R 4149   2.821   1.469   7.589  0.3621  0.8491  0.7790
   31SAPC  C210 4150   2.726   1.278   7.664  0.7181  0.3029  0.0466
   31SAPC  H10R 4151   2.764   1.284   7.768  2.2829  1.2075 -0.5397
   31SAPC  H10S 4152   2.717   1.170   7.638  0.9559 -0.1196  1.5937
   31SAPC  C211 4153   2.580   1.325   7.654  0.3251 -0.5232 -0.5120
   31SAPC  H11R 4154   2.542   1.304   7.553  2.8080 -0.1496 -1.6210
   31SAPC  C212 4155   2.498   1.363   7.757 -0.3134  0.3073  0.2303
   31SAPC  H12R 4156   2.396   1.394   7.729 -0.7360 -0.3716  0.9969
   31SAPC  C213 4157   2.519   1.367   7.905  0.1146  0.3702  0.6964
   31SAPC  H13R 4158   2.594   1.295   7.944  1.3851  1.7185  0.8289
   31SAPC  H13S 4159   2.425   1.356   7.963 -0.2587 -0.0148  0.0254
   31SAPC  C214 4160   2.582   1.499   7.941  0.5751 -0.2629  0.4005
   31SAPC  H14R 4161   2.663   1.531   7.872 -0.3686  2.2331  0.3332
   31SAPC  C215 4162   2.540   1.592   8.033 -0.0797  0.6233  1.1265
   31SAPC  H15R 4163   2.592   1.689   8.036 -0.6981  0.9338  2.0069
   31SAPC  C216 4164   2.411   1.587   8.107 -0.3012  0.1190  0.5167
   31SAPC  H16R 4165   2.348   1.510   8.059  1.4233 -0.5179 -0.7970
   31SAPC  H16S 4166   2.361   1.686   8.098 -0.0308  0.4220  1.9379
   31SAPC  C217 4167   2.421   1.575   8.262 -0.6964  0.2096 -0.9256
   31SAPC  H17R 4168   2.490   1.495   8.296  1.2585  2.0056 -0.4471
   31SAPC  H17S 4169   2.332   1.533   8.314  0.9736  0.0027  1.9772
   31SAPC  C218 4170   2.463   1.708   8.324 -0.5386 -0.0213 -0.3857
   31SAPC  H18R 4171   2.370   1.762   8.353  0.2946  2.9980 -2.8425
   31SAPC  H18S 4172   2.515   1.767   8.246 -0.6538  0.3770 -0.1650
   31SAPC  C219 4173   2.543   1.693   8.460  0.1085 -0.0692  0.4245
   31SAPC  H19R 4174   2.494   1.618   8.526 -2.3376  0.3600 -0.7808
   31SAPC  H19S 4175   2.538   1.795   8.505  0.2678  0.9074 -1.6443
   31SAPC  C220 4176   2.684   1.656   8.426  0.3286  0.2910  0.2710
   31SAPC  H20R 4177   2.746   1.630   8.514  0.6848 -3.3870 -0.8667
   31SAPC  H20S 4178   2.736   1.733   8.366  1.0411 -1.2121 -1.1441
   31SAPC  H20T 4179   2.690   1.562   8.366  2.1760  0.7940 -0.4067
   31SAPC   C33 4180   3.399   0.825   6.956 -0.2375 -0.5368 -0.3083
   31SAPC   H3X 4181   3.419   0.725   6.913  1.6342 -0.4087  0.1747
   31SAPC   H3Y 4182   3.289   0.828   6.943 -0.1386 -0.1075 -1.1454
   31SAPC   C34 4183   3.436   0.801   7.103  0.2392  0.1430  0.3196
   31SAPC   H4X 4184   3.477   0.893   7.150  1.6974 -0.8424  1.0639
   31SAPC   H4Y 4185   3.503   0.717   7.130  0.4475  0.1756 -0.0932
   31SAPC   C35 4186   3.309   0.775   7.183 -0.3655  0.7039  0.6910
   31SAPC   H5X 4187   3.287   0.677   7.134  1.1298  2.5078 -4.2635
   31SAPC   H5Y 4188   3.224   0.843   7.162 -1.0124 -1.4233 -5.9777
   31SAPC   C36 4189   3.345   0.755   7.334 -0.1367 -0.3537  0.2030
   31SAPC   H6X 4190   3.436   0.692   7.344 -0.4103 -0.5905  1.3838
   31SAPC   H6Y 4191   3.261   0.691   7.371  1.3933 -1.9116  1.1650
   31SAPC   C37 4192   3.352   0.885   7.415 -0.3943 -0.0436  0.0404
   31SAPC   H7X 4193   3.274   0.957   7.383  0.1130  0.2835 -0.4901
   31SAPC   H7Y 4194   3.447   0.939   7.398 -1.0407  0.7814 -1.0295
   31SAPC   C38 4195   3.339   0.860   7.568  1.1355 -0.3294  0.5148
   31SAPC   H8X 4196   3.423   0.906   7.624 -0.1292  1.7915  0.7767
   31SAPC   H8Y 4197   3.340   0.752   7.593  1.2136 -0.0553  1.7642
   31SAPC   C39 4198   3.208   0.922   7.618  0.7497  0.4956  0.5121
   31SAPC   H9X 4199   3.207   1.029   7.590  2.0421  0.9158  1.9666
   31SAPC   H9Y 4200   3.206   0.917   7.729 -0.0915 -0.8565  0.4698
   31SAPC  C310 4201   3.076   0.859   7.555  0.7815 -0.5917  0.5125
   31SAPC  H10X 4202   3.074   0.749   7.543 -0.1445 -0.5504  0.2095
   31SAPC  H10Y 4203   3.078   0.889   7.448  1.4114 -2.5184 -0.0524
   31SAPC  C311 4204   2.954   0.904   7.640 -0.0379 -0.2335 -0.4797
   31SAPC  H11X 4205   2.963   1.014   7.658  0.4381 -0.3756  0.1989
   31SAPC  H11Y 4206   2.968   0.850   7.736  0.7693 -0.7384 -0.8750
   31SAPC  C312 4207   2.825   0.858   7.585  0.3160 -0.1211 -0.3837
   31SAPC  H12X 4208   2.831   0.747   7.585  2.6986 -0.0622  1.2559
   31SAPC  H12Y 4209   2.814   0.898   7.482  0.0563  1.2508  0.1466
   31SAPC  C313 4210   2.699   0.896   7.663  0.0989 -0.3339 -0.1280
   31SAPC  H13X 4211   2.628   0.813   7.643  0.8666 -0.8362 -0.8209
   31SAPC  H13Y 4212   2.652   0.988   7.622  0.8389  0.9591  1.7887
   31SAPC  C314 4213   2.706   0.923   7.815  0.1733  0.5065  0.1297
   31SAPC  H14X 4214   2.775   1.009   7.827  0.0391  0.4796  1.1736
   31SAPC  H14Y 4215   2.752   0.832   7.859  2.9549  1.4287 -0.6429
   31SAPC  C315 4216   2.567   0.949   7.875  0.0935  0.3219 -0.5343
   31SAPC  H15X 4217   2.493   0.866   7.869 -2.0394  2.0685  0.1278
   31SAPC  H15Y 4218   2.514   1.039   7.837 -0.3829  1.2061  1.9844
   31SAPC  C316 4219   2.577   0.980   8.024 -0.4061 -0.0496 -0.6194
   31SAPC  H16X 4220   2.654   1.058   8.042  0.3130 -0.7959 -0.3941
   31SAPC  H16Y 4221   2.622   0.892   8.073  1.4844  0.2693 -1.6600
   31SAPC  C317 4222   2.445   1.022   8.086  0.6031 -0.3648  0.4717
   31SAPC  H17X 4223   2.370   0.942   8.066  0.5375 -0.0410 -0.6522
   31SAPC  H17Y 4224   2.389   1.106   8.039  0.0112  0.1084  1.9332
   31SAPC  C318 4225   2.450   1.043   8.236 -0.5391 -0.7210 -0.7779
   31SAPC  H18X 4226   2.469   0.946   8.288 -3.1662 -0.5449  0.6731
   31SAPC  H18Y 4227   2.349   1.065   8.276 -0.1324 -1.1670  0.5572
   31SAPC  H18Z 4228   2.525   1.117   8.271 -1.5043 -0.2699  0.3724
   32SAPC     N 4229   3.619   1.872   5.915  0.2102 -0.7099  0.0395
   32SAPC   C12 4230   3.664   2.009   5.943  0.1264  0.6724 -0.0885
   32SAPC  H12A 4231   3.631   2.077   5.866 -0.4911  0.0838 -0.3616
   32SAPC  H12B 4232   3.771   2.004   5.954  0.2221  1.2368 -0.6915
   32SAPC   C13 4233   3.645   1.832   5.777 -0.3095 -0.5025  0.0042
   32SAPC  H13A 4234   3.598   1.739   5.749 -1.2506 -0.4012  1.1425
   32SAPC  H13B 4235   3.613   1.900   5.700 -0.8887 -1.3660 -0.5331
   32SAPC  H13C 4236   3.750   1.815   5.758  0.1864 -0.6348  2.5275
   32SAPC   C14 4237   3.673   1.767   6.009  0.4487  0.0641 -0.0621
   32SAPC  H14A 4238   3.608   1.752   6.094  2.4717  3.4498  2.3451
   32SAPC  H14B 4239   3.675   1.671   5.960 -1.9720 -0.2780  0.3726
   32SAPC  H14C 4240   3.772   1.794   6.041  0.9697  0.4087 -1.8356
   32SAPC   C15 4241   3.464   1.875   5.921  0.2526  0.9364 -0.6388
   32SAPC  H15A 4242   3.405   1.924   5.845 -0.0476 -2.1201 -2.5532
   32SAPC  H15B 4243   3.440   1.770   5.912  1.6363  0.4238  1.1025
   32SAPC  H15C 4244   3.431   1.903   6.020 -1.2136 -3.8624  0.4828
   32SAPC   C11 4245   3.611   2.061   6.076  0.2339 -0.0335 -0.4804
   32SAPC  H11A 4246   3.605   1.982   6.153  0.6171 -0.0504 -0.4638
   32SAPC  H11B 4247   3.510   2.096   6.047  0.1534  0.2708  0.1544
   32SAPC     P 4248   3.843   2.171   6.145  0.4307  0.2324 -0.1554
   32SAPC   O13 4249   3.917   2.067   6.071 -0.5072 -0.2162 -0.7652
   32SAPC   O14 4250   3.903   2.308   6.143  0.1843 -0.0253 -0.8708
   32SAPC   O12 4251   3.691   2.180   6.105  0.5041 -0.0274  0.3164
   32SAPC   O11 4252   3.851   2.121   6.295  0.5452 -0.6982 -0.1608
   32SAPC    C1 4253   3.752   2.170   6.393  0.6396 -0.0429  0.1769
   32SAPC    HA 4254   3.736   2.276   6.364 -0.0110 -0.2553 -0.2708
   32SAPC    HB 4255   3.653   2.120   6.378  0.1619  0.6896  0.8427
   32SAPC    C2 4256   3.800   2.136   6.537  0.1198 -0.0586 -0.3378
   32SAPC    HS 4257   3.894   2.194   6.537 -0.7234  1.4318  1.9646
   32SAPC   O21 4258   3.818   1.996   6.548  0.5921  0.3149  0.2534
   32SAPC   C21 4259   3.914   1.959   6.620  0.1310 -0.1686  0.0406
   32SAPC   O22 4260   3.984   2.035   6.688  0.8160 -0.1028  0.7785
   32SAPC   C22 4261   3.942   1.813   6.595  0.2003  0.7241  1.0540
   32SAPC   H2R 4262   3.839   1.772   6.597  0.3263  0.4237  1.3687
   32SAPC   H2S 4263   3.989   1.790   6.497 -0.0692 -2.4771  1.5890
   32SAPC    C3 4264   3.707   2.195   6.649  0.0588 -0.5932 -0.2243
   32SAPC    HX 4265   3.606   2.153   6.627 -0.0104 -0.7178  0.3207
   32SAPC    HY 4266   3.679   2.302   6.639 -3.5341 -1.4197 -0.3651
   32SAPC   O31 4267   3.733   2.156   6.784  0.8650  0.8713  0.1633
   32SAPC   C31 4268   3.836   2.226   6.838  0.4213 -0.3629  0.3327
   32SAPC   O32 4269   3.896   2.317   6.781  0.0025  0.2961 -0.6234
   32SAPC   C32 4270   3.859   2.172   6.980  0.4824 -0.2739  0.4374
   32SAPC   H2X 4271   3.859   2.061   6.980  0.9601 -0.3233 -1.8367
   32SAPC   H2Y 4272   3.774   2.199   7.047 -0.4757 -0.0361 -0.8481
   32SAPC   C23 4273   4.008   1.740   6.717 -0.1383  0.3021 -0.2557
   32SAPC   H3R 4274   3.974   1.783   6.814  0.3308  1.2903 -0.5077
   32SAPC   H3S 4275   4.116   1.759   6.702  0.3769 -2.7246 -0.9109
   32SAPC   C24 4276   3.992   1.588   6.726 -0.4839 -0.2205  0.5566
   32SAPC   H4R 4277   3.884   1.561   6.726 -0.0887 -2.4131 -2.3987
   32SAPC   H4S 4278   4.049   1.545   6.811  0.2760 -0.3300  0.0027
   32SAPC   C25 4279   4.051   1.539   6.596  0.2471  0.1318  1.0457
   32SAPC   H5R 4280   3.994   1.537   6.502 -1.6637  2.3653  2.0498
   32SAPC   C26 4281   4.171   1.486   6.578 -0.0031  0.3340  1.0392
   32SAPC   H6R 4282   4.194   1.470   6.472 -2.0449 -0.8203  0.7138
   32SAPC   C27 4283   4.284   1.466   6.673 -0.1096 -0.3973 -0.2927
   32SAPC   H7R 4284   4.362   1.414   6.613 -1.1601 -0.4848 -1.6407
   32SAPC   H7S 4285   4.257   1.398   6.757  0.0034  0.0151  0.0791
   32SAPC   C28 4286   4.361   1.576   6.734 -0.2591 -0.3839 -0.0537
   32SAPC   H8R 4287   4.393   1.660   6.672 -1.0445  0.9904  1.3352
   32SAPC   C29 4288   4.419   1.579   6.859  0.6729  0.0965  0.0785
   32SAPC   H9R 4289   4.482   1.667   6.877 -0.2175  0.8570 -0.4560
   32SAPC  C210 4290   4.401   1.467   6.962  0.0654  0.4777  0.5901
   32SAPC  H10R 4291   4.495   1.467   7.022  1.9228 -2.4251 -2.0029
   32SAPC  H10S 4292   4.414   1.369   6.911  0.1327  0.1433  1.2452
   32SAPC  C211 4293   4.278   1.449   7.042 -0.4875  0.8768 -0.7916
   32SAPC  H11R 4294   4.182   1.441   6.989  0.4365 -4.0577 -2.1522
   32SAPC  C212 4295   4.273   1.411   7.172  0.1183 -0.9413  0.0292
   32SAPC  H12R 4296   4.175   1.418   7.222 -0.9252  1.7596 -2.1108
   32SAPC  C213 4297   4.395   1.378   7.255 -0.2271 -0.3627  0.3451
   32SAPC  H13R 4298   4.404   1.463   7.327  0.5551  0.2277 -0.4209
   32SAPC  H13S 4299   4.492   1.389   7.201  0.4646 -0.6913  1.4941
   32SAPC  C214 4300   4.381   1.243   7.329  0.2723  0.8033  0.2415
   32SAPC  H14R 4301   4.374   1.153   7.266  0.0819  1.0122 -0.0358
   32SAPC  C215 4302   4.384   1.220   7.464  0.4824  0.4466  0.0093
   32SAPC  H15R 4303   4.377   1.117   7.501  0.9047  0.4296  0.0486
   32SAPC  C216 4304   4.393   1.323   7.575 -0.2205 -0.4119  0.4024
   32SAPC  H16R 4305   4.420   1.416   7.520  0.3692 -1.2710 -0.8270
   32SAPC  H16S 4306   4.474   1.295   7.646  2.1639  0.3914 -1.8575
   32SAPC  C217 4307   4.263   1.333   7.649 -0.4648  0.1831 -0.3080
   32SAPC  H17R 4308   4.174   1.363   7.589 -0.4847  0.5250 -0.1095
   32SAPC  H17S 4309   4.286   1.405   7.730  0.6724 -1.5667  0.9806
   32SAPC  C218 4310   4.230   1.199   7.720  0.0419 -0.9562 -0.1777
   32SAPC  H18R 4311   4.324   1.157   7.761  0.1022 -0.4657  0.2009
   32SAPC  H18S 4312   4.177   1.123   7.659 -1.4881 -0.1664  0.1026
   32SAPC  C219 4313   4.136   1.220   7.841  0.1084  0.1991  0.7624
   32SAPC  H19R 4314   4.048   1.278   7.807 -0.6099 -1.2898  0.0018
   32SAPC  H19S 4315   4.184   1.274   7.926  0.1591 -0.4757  1.1677
   32SAPC  C220 4316   4.084   1.089   7.909 -0.4980 -0.1045  0.4170
   32SAPC  H20R 4317   4.029   1.022   7.839  0.7051  1.4287 -2.1622
   32SAPC  H20S 4318   4.008   1.109   7.987 -2.6205 -0.0234 -1.5436
   32SAPC  H20T 4319   4.165   1.029   7.956  0.2565  0.7891  0.2876
   32SAPC   C33 4320   3.997   2.200   7.057 -0.2099 -0.1105 -0.0572
   32SAPC   H3X 4321   4.018   2.309   7.051 -2.6495  0.3520 -2.9875
   32SAPC   H3Y 4322   4.086   2.157   7.006 -0.6644 -1.1420  0.0046
   32SAPC   C34 4323   3.990   2.150   7.196 -0.5065  0.1732  0.3965
   32SAPC   H4X 4324   4.095   2.143   7.231 -0.9303 -1.9208  1.3813
   32SAPC   H4Y 4325   3.938   2.053   7.206 -1.9580  0.5673 -2.3122
   32SAPC   C35 4326   3.923   2.251   7.288 -1.0980 -0.4196  0.7912
   32SAPC   H5X 4327   3.812   2.244   7.288 -1.1612  0.4061  1.2597
   32SAPC   H5Y 4328   3.945   2.354   7.251  0.8573 -0.6487  1.2223
   32SAPC   C36 4329   3.972   2.238   7.429 -0.7629  0.4497  0.0616
   32SAPC   H6X 4330   3.903   2.296   7.494 -0.5657 -0.7540  1.3936
   32SAPC   H6Y 4331   4.075   2.279   7.431  0.1487 -1.3302 -3.3688
   32SAPC   C37 4332   3.975   2.089   7.487 -0.1389 -0.1218  0.3252
   32SAPC   H7X 4333   4.065   2.042   7.444 -0.1919 -0.8574  0.9878
   32SAPC   H7Y 4334   3.882   2.033   7.463 -0.9513  1.9083 -1.5991
   32SAPC   C38 4335   4.001   2.094   7.636  0.1961 -0.5318  0.3637
   32SAPC   H8X 4336   4.091   2.157   7.654  1.2631 -1.5128 -1.3146
   32SAPC   H8Y 4337   4.019   1.996   7.684  1.9850 -0.1998  0.4428
   32SAPC   C39 4338   3.885   2.152   7.707  1.2327 -0.1648 -0.6021
   32SAPC   H9X 4339   3.791   2.122   7.656  0.7580  0.3683 -0.0557
   32SAPC   H9Y 4340   3.903   2.261   7.707 -0.3874  0.3162  3.6987
   32SAPC  C310 4341   3.874   2.110   7.858 -0.1784 -0.1912 -0.1775
   32SAPC  H10X 4342   3.942   2.178   7.913 -1.4180  1.3560 -0.4664
   32SAPC  H10Y 4343   3.926   2.012   7.856  0.3488  0.0652  0.5659
   32SAPC  C311 4344   3.737   2.127   7.918  0.1705 -0.0361 -0.0260
   32SAPC  H11X 4345   3.673   2.065   7.852  0.9267  0.4277 -1.2490
   32SAPC  H11Y 4346   3.724   2.234   7.889  0.6779 -0.1365 -0.6673
   32SAPC  C312 4347   3.746   2.089   8.066  0.2031  0.3339 -0.0407
   32SAPC  H12X 4348   3.818   2.159   8.114  1.7826  0.6475 -2.6742
   32SAPC  H12Y 4349   3.796   1.990   8.071  2.5501  1.4925  1.6012
   32SAPC  C313 4350   3.604   2.080   8.128 -0.3046 -0.5505 -0.3857
   32SAPC  H13X 4351   3.532   2.019   8.070 -0.6701  0.8252 -1.4498
   32SAPC  H13Y 4352   3.550   2.177   8.122  0.4372 -0.1964 -2.4154
   32SAPC  C314 4353   3.601   2.052   8.276  0.0979 -0.8721 -0.3307
   32SAPC  H14X 4354   3.675   2.112   8.332 -0.6101 -2.3565  2.3402
   32SAPC  H14Y 4355   3.640   1.951   8.302 -1.2245 -1.0271  1.1842
   32SAPC  C315 4356   3.460   2.070   8.330 -0.4476  0.1510 -0.3169
   32SAPC  H15X 4357   3.389   1.991   8.295 -0.0341  0.1277 -1.1151
   32SAPC  H15Y 4358   3.422   2.171   8.304  2.1157  0.8194 -1.8962
   32SAPC  C316 4359   3.459   2.053   8.487  0.7765 -0.1224 -0.2102
   32SAPC  H16X 4360   3.549   2.106   8.525  1.5091 -0.9680 -0.7293
   32SAPC  H16Y 4361   3.489   1.948   8.505 -1.0865 -0.7498 -0.5854
   32SAPC  C317 4362   3.329   2.089   8.553  0.2952  0.3298  0.4242
   32SAPC  H17X 4363   3.248   2.047   8.489 -0.1435 -0.3018  1.3745
   32SAPC  H17Y 4364   3.326   2.199   8.565  2.6635  0.4036  0.9631
   32SAPC  C318 4365   3.310   2.024   8.688  0.1462  0.4737 -0.2869
   32SAPC  H18X 4366   3.301   1.914   8.680  2.3092  0.1629  0.6893
   32SAPC  H18Y 4367   3.224   2.067   8.743  1.8082  2.6790  0.7834
   32SAPC  H18Z 4368   3.404   2.044   8.745  0.4501 -1.4473 -0.0562
   33POPC     N 4369   2.633   3.898  10.786  0.6874  0.0525 -0.8842
   33POPC   C12 4370   2.681   3.766  10.744  0.7892 -0.3988  0.0432
   33POPC  H12A 4371   2.726   3.723  10.832 -0.2248  0.7622  1.1714
   33POPC  H12B 4372   2.758   3.775  10.669  0.2986  1.9159 -0.2564
   33POPC   C13 4373   2.518   3.882  10.888  0.0240  0.1576  0.2758
   33POPC  H13A 4374   2.472   3.976  10.914 -1.5960 -0.0332 -1.6436
   33POPC  H13B 4375   2.438   3.831  10.837  1.0666  0.1695 -1.4795
   33POPC  H13C 4376   2.556   3.827  10.972  0.5286  0.8907  0.5407
   33POPC   C14 4377   2.737   3.986  10.841  0.8837  0.2352 -0.5606
   33POPC  H14A 4378   2.710   4.087  10.866 -0.1504 -0.3158  0.6974
   33POPC  H14B 4379   2.762   3.939  10.935  0.1794  1.7530  0.4263
   33POPC  H14C 4380   2.820   3.986  10.773  2.2172  1.3885  0.9759
   33POPC   C15 4381   2.575   3.970  10.672  0.3476 -0.5774  0.1629
   33POPC  H15A 4382   2.487   3.923  10.631 -1.1414  2.0032  0.1855
   33POPC  H15B 4383   2.647   3.990  10.594 -0.6544  1.2987 -0.3372
   33POPC  H15C 4384   2.542   4.068  10.702 -0.4050 -0.1227 -2.0457
   33POPC   C11 4385   2.579   3.666  10.690  0.6062 -0.5118  0.3792
   33POPC  H11A 4386   2.514   3.703  10.608  0.0377 -1.9440  0.1549
   33POPC  H11B 4387   2.514   3.633  10.774  0.1335 -2.2183 -0.6057
   33POPC     P 4388   2.706   3.561  10.484  0.0408  0.2908  0.1532
   33POPC   O13 4389   2.722   3.424  10.436  0.3311  0.3961  0.3174
   33POPC   O14 4390   2.828   3.647  10.485  0.5656  0.1230 -0.3769
   33POPC   O12 4391   2.642   3.546  10.634 -0.2037 -0.1302  0.4336
   33POPC   O11 4392   2.590   3.626  10.400  0.3307 -0.4721  0.8915
   33POPC    C1 4393   2.619   3.712  10.288  0.5831  0.3484  0.0467
   33POPC    HA 4394   2.699   3.786  10.306 -0.3536  1.3220  0.2784
   33POPC    HB 4395   2.644   3.649  10.200 -0.7672  0.4155 -0.4141
   33POPC    C2 4396   2.494   3.791  10.242  0.3655 -0.6503  0.5676
   33POPC    HS 4397   2.405   3.726  10.245 -0.8768  0.9372 -0.1591
   33POPC   O21 4398   2.524   3.840  10.111  0.4196  0.2737  0.0459
   33POPC   C21 4399   2.429   3.810  10.023 -1.3809 -0.1451  0.1864
   33POPC   O22 4400   2.334   3.738  10.045  0.6275 -0.0327  0.5994
   33POPC   C22 4401   2.454   3.898   9.905  0.9417  0.2237  0.2103
   33POPC   H2R 4402   2.557   3.873   9.873  0.4649 -2.1023  0.2960
   33POPC   H2S 4403   2.442   4.006   9.927  0.4777  0.6119 -1.7843
   33POPC    C3 4404   2.466   3.898  10.351  1.4366  0.2145 -0.6334
   33POPC    HX 4405   2.552   3.968  10.359  2.2642 -0.8486  0.1191
   33POPC    HY 4406   2.458   3.837  10.444 -0.6042  2.9125  1.1225
   33POPC   O31 4407   2.333   3.960  10.346  0.4349  0.4246 -0.7469
   33POPC   C31 4408   2.324   4.072  10.281  0.4027 -0.0225  0.0624
   33POPC   O32 4409   2.412   4.126  10.220 -0.2068  0.0345 -0.4518
   33POPC   C32 4410   2.190   4.144  10.289 -0.3566  0.2211  0.2979
   33POPC   H2X 4411   2.210   4.241  10.338  1.2314  0.8201 -1.4322
   33POPC   H2Y 4412   2.125   4.083  10.355 -2.1422  0.5114 -1.1008
   33POPC   C23 4413   2.357   3.873   9.778 -0.3815  0.3412  0.8886
   33POPC   H3R 4414   2.252   3.875   9.813 -0.2105  1.7480  1.4028
   33POPC   H3S 4415   2.382   3.778   9.726  3.4228  0.8639  1.4547
   33POPC   C24 4416   2.371   3.994   9.683  0.9669 -0.4686 -0.5624
   33POPC   H4R 4417   2.474   4.000   9.643  1.2661 -1.0730  0.0927
   33POPC   H4S 4418   2.361   4.096   9.725 -0.4809 -0.6590 -0.3885
   33POPC   C25 4419   2.275   3.985   9.568  0.3095  0.0770 -0.5166
   33POPC   H5R 4420   2.165   3.979   9.582 -0.0026 -1.9471 -2.9814
   33POPC   H5S 4421   2.290   3.893   9.507  0.2436  0.2767 -0.8389
   33POPC   C26 4422   2.292   4.107   9.480  0.0088 -0.0531  0.3606
   33POPC   H6R 4423   2.400   4.121   9.457  0.4233 -1.8825  1.0366
   33POPC   H6S 4424   2.257   4.188   9.548 -0.3968  0.8982 -0.9294
   33POPC   C27 4425   2.206   4.116   9.360 -0.1805  0.1296  0.2627
   33POPC   H7R 4426   2.205   4.223   9.332 -2.7363  0.2201  0.3871
   33POPC   H7S 4427   2.105   4.082   9.392  0.0009 -1.9264 -1.1190
   33POPC   C28 4428   2.253   4.022   9.250  0.3497 -0.0701 -0.5508
   33POPC   H8R 4429   2.270   3.924   9.300  0.6616  1.0868  1.7557
   33POPC   H8S 4430   2.352   4.066   9.224 -0.9606  3.0657 -0.6415
   33POPC   C29 4431   2.165   4.014   9.129 -0.4317 -0.0350  0.3380
   33POPC   H91 4432   2.056   4.027   9.144 -0.1849  1.4844  0.9617
   33POPC  C210 4433   2.211   4.001   9.004 -0.0189  0.3213  0.7074
   33POPC  H101 4434   2.140   4.019   8.923  1.4102  0.6876 -0.5032
   33POPC  C211 4435   2.360   4.001   8.966  0.8840  0.6346 -0.8567
   33POPC  H11R 4436   2.386   3.945   8.874 -0.5630  2.8102 -2.7012
   33POPC  H11S 4437   2.431   3.964   9.044 -1.2715 -0.8360  0.5183
   33POPC  C212 4438   2.412   4.149   8.937  0.1948  0.1790 -0.5465
   33POPC  H12R 4439   2.513   4.125   8.898  0.6145 -1.7573  1.5544
   33POPC  H12S 4440   2.417   4.210   9.030  0.6949 -0.3181 -0.2442
   33POPC  C213 4441   2.334   4.231   8.835  0.0626 -0.2802 -0.0850
   33POPC  H13R 4442   2.394   4.323   8.824  0.6708 -0.6762 -0.0950
   33POPC  H13S 4443   2.237   4.270   8.873  1.1070  2.3326  0.0636
   33POPC  C214 4444   2.331   4.176   8.690  0.7168  0.4740  0.6441
   33POPC  H14R 4445   2.276   4.079   8.697  0.1875  0.6317 -1.0187
   33POPC  H14S 4446   2.438   4.152   8.670  0.2743 -0.9779 -0.1819
   33POPC  C215 4447   2.258   4.258   8.587  0.2164 -0.0036  0.2803
   33POPC  H15R 4448   2.149   4.254   8.609 -0.0805 -1.0990 -1.2013
   33POPC  H15S 4449   2.254   4.218   8.483 -0.6734 -0.5707  0.5171
   33POPC  C216 4450   2.299   4.404   8.572  0.6751 -0.2786  0.3682
   33POPC  H16R 4451   2.397   4.412   8.520  0.2592 -1.3955 -0.6095
   33POPC  H16S 4452   2.322   4.449   8.672  0.5312  2.4561 -0.7450
   33POPC  C217 4453   2.189   4.486   8.500  0.3951 -0.4890  0.2801
   33POPC  H17R 4454   2.152   4.441   8.405  1.6840 -0.6148 -0.1798
   33POPC  H17S 4455   2.252   4.574   8.477  3.3290 -1.6430  3.0946
   33POPC  C218 4456   2.057   4.521   8.571  0.0120  0.0883 -0.7769
   33POPC  H18R 4457   2.071   4.556   8.675 -1.9143  1.1611 -0.8231
   33POPC  H18S 4458   1.993   4.431   8.582  1.5897 -0.8539  1.2593
   33POPC  H18T 4459   2.013   4.599   8.505  0.7703  0.2258 -1.1316
   33POPC   C33 4460   2.133   4.168  10.147  1.0054 -0.0030  0.6421
   33POPC   H3X 4461   2.143   4.079  10.080  0.9872  1.1932 -0.9933
   33POPC   H3Y 4462   2.189   4.252  10.103  0.3294 -0.1213 -0.4740
   33POPC   C34 4463   1.982   4.201  10.137 -0.2879  0.4020 -0.0729
   33POPC   H4X 4464   1.959   4.284  10.208 -1.4597  0.5489 -0.5994
   33POPC   H4Y 4465   1.923   4.117  10.178 -1.7026  1.8470  0.9913
   33POPC   C35 4466   1.953   4.251   9.997  0.0383 -0.1802 -0.0986
   33POPC   H5X 4467   1.976   4.168   9.927 -1.8504 -2.7857  2.0935
   33POPC   H5Y 4468   2.018   4.340   9.989 -0.4589  0.1744 -0.1887
   33POPC   C36 4469   1.800   4.279   9.986  0.3382 -0.1851  0.6767
   33POPC   H6X 4470   1.769   4.359  10.057 -1.5284  0.1977 -0.4948
   33POPC   H6Y 4471   1.748   4.182  10.006 -2.3828  1.0311  0.0485
   33POPC   C37 4472   1.750   4.336   9.846  0.0143  0.1657 -0.2505
   33POPC   H7X 4473   1.790   4.438   9.829 -1.3304  0.6467 -0.6947
   33POPC   H7Y 4474   1.641   4.349   9.861  0.2276  2.1430 -0.1964
   33POPC   C38 4475   1.788   4.252   9.731 -0.5047 -0.5102  0.8905
   33POPC   H8X 4476   1.723   4.161   9.736 -0.1345 -0.7613  1.1829
   33POPC   H8Y 4477   1.893   4.217   9.730  0.2177  1.4263 -1.7331
   33POPC   C39 4478   1.763   4.320   9.595  0.4886  0.0169 -0.0895
   33POPC   H9X 4479   1.826   4.407   9.566 -0.1605  0.4931 -0.1109
   33POPC   H9Y 4480   1.659   4.357   9.584  0.6506  0.4426 -0.2194
   33POPC  C310 4481   1.784   4.219   9.480  0.6293 -0.2329 -0.8184
   33POPC  H10X 4482   1.696   4.152   9.490  1.3689 -1.9172 -4.0935
   33POPC  H10Y 4483   1.870   4.151   9.502  0.7876  0.4821  0.9608
   33POPC  C311 4484   1.795   4.292   9.353  0.2931 -0.8258  0.4072
   33POPC  H11X 4485   1.880   4.364   9.361 -0.3380 -0.0526  0.1922
   33POPC  H11Y 4486   1.705   4.355   9.343 -0.1344 -1.6700 -1.4179
   33POPC  C312 4487   1.809   4.206   9.231 -0.2837 -0.1205  0.4244
   33POPC  H12X 4488   1.732   4.126   9.233 -0.2939 -0.1257 -0.0627
   33POPC  H12Y 4489   1.913   4.168   9.223 -0.7249 -1.4455  0.7186
   33POPC  C313 4490   1.779   4.290   9.098 -0.4521 -0.2386  0.5359
   33POPC  H13X 4491   1.859   4.365   9.082 -0.1396 -0.6803 -0.0080
   33POPC  H13Y 4492   1.682   4.342   9.103 -1.2823 -1.7582  4.4240
   33POPC  C314 4493   1.792   4.213   8.971 -0.0983  0.1797 -0.4866
   33POPC  H14X 4494   1.717   4.132   8.960  0.7828 -0.7588  0.1170
   33POPC  H14Y 4495   1.888   4.156   8.979  0.3530  1.0872  0.8720
   33POPC  C315 4496   1.798   4.306   8.851 -0.1206  0.0191 -0.0498
   33POPC  H15X 4497   1.902   4.343   8.837 -0.1536  0.4082  0.6957
   33POPC  H15Y 4498   1.724   4.388   8.864 -1.8113 -1.6534  1.3138
   33POPC  C316 4499   1.768   4.242   8.722  1.2276  0.4063 -0.3250
   33POPC  H16X 4500   1.779   4.318   8.641  2.4079  2.6356  1.7730
   33POPC  H16Y 4501   1.667   4.196   8.730  1.3470  0.3846  1.3506
   33POPC  H16Z 4502   1.848   4.172   8.690  1.7766  0.6464  0.4689
   34POPC     N 4503   1.133   4.844  10.669  0.1666  0.4405 -1.3272
   34POPC   C12 4504   1.246   4.753  10.701  0.9031 -0.1132 -0.6062
   34POPC  H12A 4505   1.230   4.708  10.798  0.1493  1.6592  0.1291
   34POPC  H12B 4506   1.334   4.814  10.700  0.8291 -0.0180 -1.5682
   34POPC   C13 4507   1.003   4.764  10.648  0.3298  0.4649  0.3940
   34POPC  H13A 4508   1.008   4.704  10.559 -3.8915 -1.2073  1.0231
   34POPC  H13B 4509   0.978   4.691  10.724  0.4240  1.7148  1.6715
   34POPC  H13C 4510   0.921   4.835  10.647  0.1055  0.3201  2.7550
   34POPC   C14 4511   1.103   4.928  10.787  0.4135  0.4623  0.2261
   34POPC  H14A 4512   1.034   5.006  10.758  0.9987  0.8408 -0.1769
   34POPC  H14B 4513   1.060   4.871  10.868  2.0413 -1.5654 -0.2559
   34POPC  H14C 4514   1.191   4.973  10.831  0.6084  0.4523 -0.1495
   34POPC   C15 4515   1.165   4.932  10.551 -0.1443 -0.2772 -0.6294
   34POPC  H15A 4516   1.186   4.879  10.459  1.7105 -0.5565 -0.1011
   34POPC  H15B 4517   1.260   4.974  10.582  0.2368 -0.9011 -0.9163
   34POPC  H15C 4518   1.093   5.007  10.525 -2.1669 -0.8545  2.7229
   34POPC   C11 4519   1.277   4.646  10.599  0.0941 -0.1791 -0.5411
   34POPC  H11A 4520   1.280   4.691  10.497 -0.7457 -0.8998 -0.9015
   34POPC  H11B 4521   1.189   4.578  10.605  0.0069  0.0545  1.2154
   34POPC     P 4522   1.430   4.434  10.633 -0.2320 -0.3633  0.4179
   34POPC   O13 4523   1.316   4.361  10.698 -0.5708 -0.0683  0.3771
   34POPC   O14 4524   1.565   4.407  10.694  0.3539 -0.2995  0.6626
   34POPC   O12 4525   1.398   4.589  10.643 -0.2549  0.0724  0.1359
   34POPC   O11 4526   1.437   4.394  10.482 -0.5108 -0.0358 -0.1052
   34POPC    C1 4527   1.532   4.447  10.388 -0.4379 -0.0876 -0.2268
   34POPC    HA 4528   1.631   4.470  10.434 -0.2690  3.5467 -1.9763
   34POPC    HB 4529   1.493   4.545  10.354  2.3172  1.3864  0.4929
   34POPC    C2 4530   1.559   4.356  10.265  0.5157  0.6003  0.3011
   34POPC    HS 4531   1.647   4.377  10.200 -0.6041 -2.3911 -2.4834
   34POPC   O21 4532   1.442   4.338  10.190 -0.2851  0.1765 -0.2806
   34POPC   C21 4533   1.433   4.410  10.084  0.0220  0.2220  0.6227
   34POPC   O22 4534   1.521   4.484  10.038 -0.1143 -0.0945 -0.2489
   34POPC   C22 4535   1.286   4.401  10.035 -0.2194  1.4704 -0.3916
   34POPC   H2R 4536   1.260   4.477   9.958  0.5724  1.5512 -0.5865
   34POPC   H2S 4537   1.221   4.419  10.124  1.1556  1.6147  0.6125
   34POPC    C3 4538   1.597   4.212  10.313  0.7990  0.0257 -0.0394
   34POPC    HX 4539   1.516   4.181  10.381  1.0637  1.4387  0.9466
   34POPC    HY 4540   1.687   4.219  10.378 -0.4420 -1.2403  1.9052
   34POPC   O31 4541   1.614   4.114  10.209 -0.0780 -0.5762 -0.6419
   34POPC   C31 4542   1.518   4.038  10.176 -0.5997  0.4437 -0.0598
   34POPC   O32 4543   1.408   4.026  10.227 -0.2931 -0.4528 -0.0458
   34POPC   C32 4544   1.553   3.946  10.055  0.1867 -0.3081  0.3157
   34POPC   H2X 4545   1.603   3.855  10.096 -2.3465 -2.9108 -1.9027
   34POPC   H2Y 4546   1.626   3.996   9.989 -0.5439  0.7464  0.2784
   34POPC   C23 4547   1.241   4.265   9.973  0.3016 -0.2902  0.1559
   34POPC   H3R 4548   1.131   4.265   9.960  0.3845  0.1058 -0.6486
   34POPC   H3S 4549   1.273   4.181  10.037 -1.1144 -1.0492 -0.0878
   34POPC   C24 4550   1.310   4.239   9.841  0.2233 -0.5744 -0.5529
   34POPC   H4R 4551   1.409   4.198   9.870 -0.0078 -0.8472 -0.1244
   34POPC   H4S 4552   1.331   4.331   9.783  4.6144 -0.1907  1.2396
   34POPC   C25 4553   1.237   4.146   9.739 -0.1406 -0.6818 -0.0815
   34POPC   H5R 4554   1.144   4.195   9.703  0.4375  0.1592 -0.4718
   34POPC   H5S 4555   1.214   4.046   9.782  0.5204 -0.1614  1.5619
   34POPC   C26 4556   1.326   4.131   9.613  0.8390 -0.2232  0.2238
   34POPC   H6R 4557   1.423   4.084   9.642  0.4268 -0.6804  0.8877
   34POPC   H6S 4558   1.342   4.236   9.579  0.9086  0.6420  2.6874
   34POPC   C27 4559   1.263   4.034   9.503 -0.2066  0.5067  0.3737
   34POPC   H7R 4560   1.173   4.084   9.461 -0.8975 -1.9550 -1.3347
   34POPC   H7S 4561   1.232   3.938   9.551 -0.7878 -0.5506 -1.9603
   34POPC   C28 4562   1.355   3.986   9.392  0.5606 -0.3340  0.4168
   34POPC   H8R 4563   1.290   3.943   9.312 -0.0916  2.7675 -0.8557
   34POPC   H8S 4564   1.427   3.913   9.435 -1.2904 -2.1503  0.6180
   34POPC   C29 4565   1.431   4.108   9.334  0.1179  0.3728  0.4693
   34POPC   H91 4566   1.513   4.149   9.395  1.0355 -0.9505  0.1639
   34POPC  C210 4567   1.398   4.168   9.218  0.0092  0.2217  0.8889
   34POPC  H101 4568   1.464   4.251   9.189  0.6843 -0.8150 -0.7324
   34POPC  C211 4569   1.291   4.145   9.106 -0.1421  0.0425  0.0681
   34POPC  H11R 4570   1.238   4.240   9.085  3.1463  2.5277  2.0837
   34POPC  H11S 4571   1.220   4.069   9.145  1.4439 -0.6868  1.6581
   34POPC  C212 4572   1.353   4.089   8.979 -0.1234  0.5368 -0.7495
   34POPC  H12R 4573   1.405   3.993   8.999 -1.3903 -0.1089 -0.4395
   34POPC  H12S 4574   1.441   4.148   8.948  0.7188  0.5520  1.5456
   34POPC  C213 4575   1.251   4.069   8.860  0.0781  0.0351 -0.1003
   34POPC  H13R 4576   1.214   4.168   8.824 -0.0692  0.2358  0.5847
   34POPC  H13S 4577   1.170   4.009   8.906  0.3344  0.6365  1.1795
   34POPC  C214 4578   1.298   3.991   8.737  0.1178 -0.0058  0.3424
   34POPC  H14R 4579   1.214   3.969   8.668 -1.6412  0.7331  2.1502
   34POPC  H14S 4580   1.354   3.900   8.768 -1.2170 -0.4288  1.6145
   34POPC  C215 4581   1.411   4.068   8.670 -0.4127 -0.1512 -0.2859
   34POPC  H15R 4582   1.501   4.049   8.733 -0.2627 -0.2690 -0.5348
   34POPC  H15S 4583   1.388   4.177   8.668  0.5021  0.0380 -1.1245
   34POPC  C216 4584   1.446   4.023   8.526 -0.0704  0.1877 -0.0309
   34POPC  H16R 4585   1.432   3.913   8.515  0.4040  0.3829 -3.7812
   34POPC  H16S 4586   1.550   4.053   8.500  0.3014 -0.8306  0.2270
   34POPC  C217 4587   1.368   4.096   8.415  0.2844  0.1457 -0.3224
   34POPC  H17R 4588   1.374   4.205   8.433  1.3690  0.3253 -1.6271
   34POPC  H17S 4589   1.263   4.060   8.405 -0.1231  0.5961  1.7437
   34POPC  C218 4590   1.429   4.061   8.277 -0.3711 -0.4577  0.3336
   34POPC  H18R 4591   1.539   4.069   8.290 -0.2786  2.0437 -1.4161
   34POPC  H18S 4592   1.398   4.137   8.202 -0.3251 -0.5852  0.1845
   34POPC  H18T 4593   1.398   3.958   8.247  2.1101 -1.1418 -0.1073
   34POPC   C33 4594   1.425   3.899   9.976  0.2014  1.1192  0.1538
   34POPC   H3X 4595   1.355   3.976   9.936 -0.1807 -0.1038 -1.6266
   34POPC   H3Y 4596   1.357   3.843  10.045 -0.5438  0.6589 -0.9291
   34POPC   C34 4597   1.470   3.798   9.863 -0.3703  0.2211 -0.6548
   34POPC   H4X 4598   1.513   3.714   9.922  0.2840  0.5412 -0.6652
   34POPC   H4Y 4599   1.546   3.854   9.803  1.2843 -1.1946  0.0407
   34POPC   C35 4600   1.365   3.756   9.759 -0.0961  0.3842 -0.8635
   34POPC   H5X 4601   1.307   3.840   9.716 -0.9040  1.1035  1.4749
   34POPC   H5Y 4602   1.299   3.686   9.815  0.2528  1.1727  0.5766
   34POPC   C36 4603   1.422   3.674   9.637 -0.3704 -0.1245  0.0871
   34POPC   H6X 4604   1.484   3.591   9.677 -0.7004 -0.9760 -1.1059
   34POPC   H6Y 4605   1.496   3.735   9.581  1.7603 -3.7362 -1.4488
   34POPC   C37 4606   1.312   3.624   9.551 -0.5166  0.4108  0.1308
   34POPC   H7X 4607   1.252   3.713   9.524  1.3285  1.2646 -1.4011
   34POPC   H7Y 4608   1.254   3.544   9.602 -0.4541  1.3075  1.6560
   34POPC   C38 4609   1.376   3.573   9.419 -0.3028 -0.6790  0.3765
   34POPC   H8X 4610   1.463   3.503   9.424  0.2281 -0.0285  0.4126
   34POPC   H8Y 4611   1.431   3.657   9.371 -1.7888  0.4507  0.6220
   34POPC   C39 4612   1.269   3.539   9.312 -0.6402 -0.7755 -0.6142
   34POPC   H9X 4613   1.170   3.588   9.320 -0.9152 -1.1986 -1.2807
   34POPC   H9Y 4614   1.243   3.432   9.329  1.8266 -1.2001  0.8702
   34POPC  C310 4615   1.312   3.556   9.166  0.6303  0.8844 -0.0768
   34POPC  H10X 4616   1.262   3.482   9.100 -1.3365  1.8983  0.2021
   34POPC  H10Y 4617   1.420   3.530   9.158  0.3787 -1.4968  2.3879
   34POPC  C311 4618   1.278   3.690   9.094 -0.4682 -1.0739  0.1361
   34POPC  H11X 4619   1.336   3.701   9.000  0.1631 -2.0997  0.3900
   34POPC  H11Y 4620   1.324   3.771   9.155 -0.5559 -1.5268  0.8104
   34POPC  C312 4621   1.132   3.736   9.073 -0.3339  0.4113  0.3167
   34POPC  H12X 4622   1.138   3.837   9.028 -0.2249  1.4411  2.5052
   34POPC  H12Y 4623   1.088   3.755   9.174  0.8913  2.1974  0.5565
   34POPC  C313 4624   1.056   3.651   8.974 -0.4864  0.2121  0.6599
   34POPC  H13X 4625   0.948   3.675   8.980 -0.5264  0.1542  0.2588
   34POPC  H13Y 4626   1.070   3.545   9.004  0.1494  0.6533  1.9686
   34POPC  C314 4627   1.101   3.690   8.832 -0.7685 -0.2449 -0.3306
   34POPC  H14X 4628   1.209   3.665   8.824 -0.0989  1.9331  0.8328
   34POPC  H14Y 4629   1.081   3.799   8.818  1.4717  0.2185 -0.3902
   34POPC  C315 4630   1.020   3.618   8.721  0.3308 -1.0117 -0.6446
   34POPC  H15X 4631   0.923   3.673   8.711  1.7784  1.7746 -0.5213
   34POPC  H15Y 4632   1.007   3.515   8.760  0.0040 -0.5561  0.4682
   34POPC  C316 4633   1.094   3.618   8.586  0.1010 -0.0097  0.2796
   34POPC  H16X 4634   1.202   3.596   8.596 -0.0988 -0.1797  2.4674
   34POPC  H16Y 4635   1.071   3.714   8.535 -0.2091 -0.6408 -0.8113
   34POPC  H16Z 4636   1.060   3.532   8.524  2.0601 -2.0939  1.9411
   35POPC     N 4637   6.829   0.366  11.234 -0.2708  0.2071 -0.1574
   35POPC   C12 4638   6.726   0.270  11.184 -0.5603  0.0660 -0.4408
   35POPC  H12A 4639   6.747   0.177  11.235 -2.2212  0.3850  0.8999
   35POPC  H12B 4640   6.744   0.245  11.080  0.2869 -0.0288 -0.2796
   35POPC   C13 4641   6.843   0.481  11.145 -0.2434  0.4266 -0.5367
   35POPC  H13A 4642   6.901   0.563  11.184  0.1475 -0.1522  0.1119
   35POPC  H13B 4643   6.888   0.456  11.050  1.4657  0.3908  0.2589
   35POPC  H13C 4644   6.743   0.518  11.127 -0.1078  0.3654 -1.4524
   35POPC   C14 4645   6.791   0.426  11.368  0.7517  0.3228 -0.3200
   35POPC  H14A 4646   6.875   0.483  11.406  0.4335  0.3256  0.4060
   35POPC  H14B 4647   6.713   0.498  11.349 -0.1729 -0.6181 -0.2099
   35POPC  H14C 4648   6.772   0.353  11.446  1.2791  0.3092 -0.2021
   35POPC   C15 4649   6.968   0.297  11.238 -0.2830  0.0447  0.2514
   35POPC  H15A 4650   6.977   0.236  11.150  0.4600  3.0121 -1.8949
   35POPC  H15B 4651   6.987   0.233  11.323 -0.2942 -0.7299 -0.3227
   35POPC  H15C 4652   7.042   0.374  11.226 -2.7926  2.5752 -0.0741
   35POPC   C11 4653   6.573   0.303  11.181  0.4411  0.4810  0.2711
   35POPC  H11A 4654   6.537   0.320  11.285  2.4880  0.1677  1.0764
   35POPC  H11B 4655   6.513   0.217  11.144 -1.2406  1.6020  0.2748
   35POPC     P 4656   6.561   0.409  10.942  0.2399  0.1843  0.3351
   35POPC   O13 4657   6.609   0.538  10.895  0.3444 -0.3564  0.2866
   35POPC   O14 4658   6.431   0.360  10.889 -0.4200 -0.1733 -1.1282
   35POPC   O12 4659   6.551   0.420  11.102 -0.1273  0.4199  0.4238
   35POPC   O11 4660   6.665   0.302  10.910 -0.8378  0.4294  0.2401
   35POPC    C1 4661   6.762   0.316  10.809 -0.4672  0.2831  0.6090
   35POPC    HA 4662   6.831   0.231  10.826 -1.0895 -0.2245  0.6524
   35POPC    HB 4663   6.817   0.411  10.820  0.6637 -0.2440 -0.2403
   35POPC    C2 4664   6.686   0.303  10.675 -0.1452  0.0494 -0.3860
   35POPC    HS 4665   6.618   0.390  10.666 -0.0069  0.6234  2.7957
   35POPC   O21 4666   6.616   0.175  10.664 -0.1958 -0.0462 -0.3447
   35POPC   C21 4667   6.518   0.167  10.569 -0.3968  0.6989 -0.3805
   35POPC   O22 4668   6.465   0.264  10.519  0.0399 -0.5233 -0.2442
   35POPC   C22 4669   6.474   0.018  10.551 -0.4396 -0.6803 -0.5002
   35POPC   H2R 4670   6.382   0.011  10.613  0.7943  0.1323  1.5160
   35POPC   H2S 4671   6.544  -0.052  10.603 -1.4769 -0.2283  1.6222
   35POPC    C3 4672   6.799   0.312  10.557  0.0562 -0.8332  0.6644
   35POPC    HX 4673   6.854   0.216  10.553  0.3001 -0.6649 -0.1792
   35POPC    HY 4674   6.868   0.392  10.593 -0.0881 -0.0930 -0.6154
   35POPC   O31 4675   6.754   0.339  10.423  0.1701 -0.3391  0.0219
   35POPC   C31 4676   6.704   0.461  10.407  0.4554 -0.0590  0.2409
   35POPC   O32 4677   6.684   0.545  10.490 -0.3079  0.3539 -0.1680
   35POPC   C32 4678   6.687   0.485  10.253  0.2653 -0.2036  0.2757
   35POPC   H2X 4679   6.789   0.478  10.209 -0.4903 -1.0643 -1.4408
   35POPC   H2Y 4680   6.647   0.588  10.244  0.0371 -0.3805 -0.8965
   35POPC   C23 4681   6.449  -0.000  10.403  0.1908 -0.2231  0.7296
   35POPC   H3R 4682   6.379   0.077  10.365 -0.8130 -1.6691 -0.4626
   35POPC   H3S 4683   6.407  -0.100  10.377  0.3517 -0.1937  0.3497
   35POPC   C24 4684   6.585   0.022  10.324 -0.5211  0.6982  1.4084
   35POPC   H4R 4685   6.668  -0.037  10.368  0.3337 -0.2506 -1.2264
   35POPC   H4S 4686   6.621   0.127  10.325  0.8374  0.4010 -1.8573
   35POPC   C25 4687   6.579  -0.022  10.177 -0.2160 -0.6954 -1.2081
   35POPC   H5R 4688   6.542   0.063  10.115  0.5278 -0.9454 -2.0113
   35POPC   H5S 4689   6.503  -0.103  10.181 -0.2840 -0.5774  0.4718
   35POPC   C26 4690   6.704  -0.084  10.110 -0.5704  0.1520  0.1213
   35POPC   H6R 4691   6.765  -0.146  10.179  0.5485  0.4472 -0.5768
   35POPC   H6S 4692   6.771  -0.005  10.071 -0.7821  0.3543  0.1665
   35POPC   C27 4693   6.661  -0.168   9.985 -0.8074 -0.3382  0.0160
   35POPC   H7R 4694   6.602  -0.104   9.915  3.0680  1.5946 -1.8653
   35POPC   H7S 4695   6.602  -0.253  10.024  0.2433 -0.4072  1.5155
   35POPC   C28 4696   6.792  -0.211   9.909 -0.7306 -0.2840  0.5339
   35POPC   H8R 4697   6.779  -0.309   9.860  1.0430  0.4256 -1.5096
   35POPC   H8S 4698   6.866  -0.223   9.991 -0.3939 -2.7686 -0.0529
   35POPC   C29 4699   6.840  -0.113   9.803  0.3292  0.2529  0.3340
   35POPC   H91 4700   6.862  -0.012   9.840  1.6073 -0.1310  0.6853
   35POPC  C210 4701   6.876  -0.143   9.673 -0.0436  0.1072 -0.5811
   35POPC  H101 4702   6.912  -0.068   9.600 -0.1232  0.8471  0.1278
   35POPC  C211 4703   6.862  -0.279   9.608 -0.4813  0.0705 -0.1657
   35POPC  H11R 4704   6.753  -0.299   9.595 -0.9147  2.5274 -0.7776
   35POPC  H11S 4705   6.907  -0.358   9.672  0.0104 -1.5091 -2.3382
   35POPC  C212 4706   6.920  -0.287   9.468 -0.7984 -0.3616 -0.6611
   35POPC  H12R 4707   6.909  -0.395   9.443  3.4474 -1.2393  0.4277
   35POPC  H12S 4708   7.029  -0.267   9.474 -1.0005  0.7103 -0.4493
   35POPC  C213 4709   6.835  -0.212   9.368  0.6616 -0.3744 -0.8615
   35POPC  H13R 4710   6.818  -0.113   9.415  0.0953 -1.3936  1.1858
   35POPC  H13S 4711   6.736  -0.262   9.378 -0.2223  1.2254 -1.2265
   35POPC  C214 4712   6.897  -0.214   9.228 -0.7816 -0.7647  0.1925
   35POPC  H14R 4713   7.003  -0.210   9.260 -1.0618  0.2817  1.0244
   35POPC  H14S 4714   6.868  -0.125   9.169  1.2196  0.0951  0.4619
   35POPC  C215 4715   6.878  -0.339   9.149  0.3474 -0.2349 -0.4215
   35POPC  H15R 4716   6.770  -0.359   9.131  0.8837 -1.0466 -3.3292
   35POPC  H15S 4717   6.913  -0.414   9.223  0.4535  0.4117  0.1851
   35POPC  C216 4718   6.949  -0.362   9.025  0.7649  0.4328  0.0599
   35POPC  H16R 4719   7.056  -0.333   9.031  0.3607  1.8685  0.6599
   35POPC  H16S 4720   6.909  -0.303   8.939  2.1429 -0.0727 -0.9631
   35POPC  C217 4721   6.927  -0.505   8.980  0.2373  0.0693 -0.5146
   35POPC  H17R 4722   6.820  -0.528   8.997  0.4957 -1.1499 -0.4428
   35POPC  H17S 4723   6.996  -0.565   9.044  0.6193  0.0167 -0.9666
   35POPC  C218 4724   6.981  -0.519   8.840  0.2794  0.5648  0.1850
   35POPC  H18R 4725   6.962  -0.614   8.787  0.7836  0.6158 -0.0887
   35POPC  H18S 4726   7.088  -0.494   8.827  0.1584  0.4660 -1.1495
   35POPC  H18T 4727   6.928  -0.442   8.779  1.1798 -0.3473 -1.8332
   35POPC   C33 4728   6.602   0.378  10.178  0.3823  0.7252  0.6774
   35POPC   H3X 4729   6.515   0.360  10.245 -1.7647  0.1728 -2.0511
   35POPC   H3Y 4730   6.655   0.281  10.165 -0.6277  0.1220  0.8994
   35POPC   C34 4731   6.560   0.423  10.038 -0.0316  0.2954  0.3410
   35POPC   H4X 4732   6.627   0.504  10.000 -1.4515  1.4713  0.2647
   35POPC   H4Y 4733   6.456   0.455  10.058  0.0549 -0.2464  1.7860
   35POPC   C35 4734   6.548   0.308   9.927  0.2467 -0.1409 -0.0932
   35POPC   H5X 4735   6.504   0.352   9.835  0.6642  0.8690  0.1732
   35POPC   H5Y 4736   6.478   0.227   9.957 -0.0844  0.4550  0.7742
   35POPC   C36 4737   6.680   0.250   9.881 -0.3030 -0.6314  0.3531
   35POPC   H6X 4738   6.715   0.192   9.969  0.7724  2.0380  1.7961
   35POPC   H6Y 4739   6.749   0.337   9.871 -3.4563  2.1987  1.3557
   35POPC   C37 4740   6.657   0.165   9.751 -0.7449 -0.4702  0.1625
   35POPC   H7X 4741   6.594   0.082   9.788  0.1964 -2.1990 -1.9306
   35POPC   H7Y 4742   6.753   0.126   9.712 -1.6111 -1.2445 -1.2402
   35POPC   C38 4743   6.590   0.224   9.626  0.5423  0.4533 -1.0429
   35POPC   H8X 4744   6.637   0.318   9.590  1.4466  1.5384  2.5762
   35POPC   H8Y 4745   6.487   0.253   9.657  1.0350  0.0021  1.1174
   35POPC   C39 4746   6.585   0.116   9.521  0.3036 -0.2026 -0.1643
   35POPC   H9X 4747   6.523   0.027   9.543 -0.2095 -0.5414 -2.6474
   35POPC   H9Y 4748   6.687   0.073   9.508  0.4606 -1.3945  3.7779
   35POPC  C310 4749   6.541   0.171   9.381  0.9860  0.2219 -0.0652
   35POPC  H10X 4750   6.610   0.249   9.342  0.8342  0.1592 -0.4651
   35POPC  H10Y 4751   6.440   0.218   9.390 -0.0259 -2.0325  1.1615
   35POPC  C311 4752   6.546   0.049   9.288  0.5011  0.6801  0.1624
   35POPC  H11X 4753   6.473  -0.032   9.310 -1.2082  0.8454 -3.8612
   35POPC  H11Y 4754   6.651   0.013   9.276  0.0580 -0.4471 -0.6140
   35POPC  C312 4755   6.517   0.081   9.139  0.3336 -0.0018  0.1230
   35POPC  H12X 4756   6.593   0.155   9.107 -0.1881  0.9137  0.9551
   35POPC  H12Y 4757   6.421   0.133   9.119  0.3942 -0.2913 -0.9864
   35POPC  C313 4758   6.530  -0.031   9.041 -0.7771  0.0641  0.2694
   35POPC  H13X 4759   6.458  -0.111   9.068 -1.6685  0.1992 -1.5704
   35POPC  H13Y 4760   6.630  -0.072   9.068 -1.0613 -1.8387 -1.3405
   35POPC  C314 4761   6.526   0.003   8.895  0.4258 -0.1594  0.1746
   35POPC  H14X 4762   6.595   0.084   8.863  1.2903  0.1961  2.7091
   35POPC  H14Y 4763   6.419   0.014   8.866  0.1980 -1.5364  0.3892
   35POPC  C315 4764   6.562  -0.120   8.802 -0.2828  0.2812  0.5759
   35POPC  H15X 4765   6.518  -0.089   8.705  0.0808 -1.0620 -0.0463
   35POPC  H15Y 4766   6.499  -0.203   8.840  0.6962 -0.2889  1.0155
   35POPC  C316 4767   6.708  -0.164   8.814 -0.6846  0.0030 -0.0649
   35POPC  H16X 4768   6.722  -0.270   8.784 -0.3935  0.5729 -2.0199
   35POPC  H16Y 4769   6.742  -0.142   8.918  0.0216 -0.5179 -0.1787
   35POPC  H16Z 4770   6.772  -0.115   8.738 -3.3325  1.2566 -1.6395
   36POPC     N 4771   1.146   6.450  10.888  0.5182 -0.4965  0.8700
   36POPC   C12 4772   1.111   6.541  10.763 -0.5012  0.0585 -0.2615
   36POPC  H12A 4773   1.194   6.530  10.694  0.3059 -1.0704  0.8366
   36POPC  H12B 4774   1.122   6.646  10.788  1.5257 -0.2351  0.2998
   36POPC   C13 4775   1.040   6.484  10.993  0.3316  0.5071 -0.4020
   36POPC  H13A 4776   0.938   6.482  10.959 -0.3415 -0.3888  1.5218
   36POPC  H13B 4777   1.049   6.424  11.082  0.3234 -1.6168 -1.7708
   36POPC  H13C 4778   1.065   6.586  11.020  3.1633  0.1254 -1.2473
   36POPC   C14 4779   1.151   6.305  10.855 -0.0691 -0.6003 -0.0552
   36POPC  H14A 4780   1.175   6.240  10.938 -1.2959 -2.7013 -1.2698
   36POPC  H14B 4781   1.053   6.269  10.827 -1.1565  0.2961  2.3126
   36POPC  H14C 4782   1.221   6.286  10.775 -0.8681  1.7876 -1.4501
   36POPC   C15 4783   1.280   6.486  10.938  0.0164  0.1255  0.0363
   36POPC  H15A 4784   1.276   6.588  10.973 -4.1879  0.6429 -1.3983
   36POPC  H15B 4785   1.350   6.489  10.856 -1.9039 -0.1526 -1.6748
   36POPC  H15C 4786   1.313   6.413  11.010  0.6372  0.5376  0.1812
   36POPC   C11 4787   0.990   6.500  10.682  0.0383  0.1362 -0.2163
   36POPC  H11A 4788   0.993   6.391  10.658  1.3232 -0.2446  1.4792
   36POPC  H11B 4789   1.007   6.552  10.585  2.1146 -0.0347  0.0022
   36POPC     P 4790   0.740   6.442  10.746  0.2993 -0.1574 -0.1178
   36POPC   O13 4791   0.620   6.530  10.748  0.5600  0.2946  0.0672
   36POPC   O14 4792   0.744   6.344  10.854 -0.2248 -0.1207  0.0847
   36POPC   O12 4793   0.868   6.538  10.753  0.1054  0.2802  0.2103
   36POPC   O11 4794   0.748   6.368  10.603 -0.4974 -0.6905  0.0168
   36POPC    C1 4795   0.754   6.438  10.477 -0.7587 -0.3812 -0.2614
   36POPC    HA 4796   0.840   6.395  10.421  0.9281  1.4981  0.7503
   36POPC    HB 4797   0.768   6.548  10.477  1.8253 -0.6428 -0.6152
   36POPC    C2 4798   0.625   6.408  10.400 -0.1062  0.9003  0.0527
   36POPC    HS 4799   0.607   6.301  10.423  1.1937  0.8287  0.8461
   36POPC   O21 4800   0.653   6.433  10.261  0.0719 -0.4808  0.3535
   36POPC   C21 4801   0.605   6.344  10.184 -0.0771 -0.1361 -0.2617
   36POPC   O22 4802   0.548   6.241  10.220  0.1404 -0.1612  0.3765
   36POPC   C22 4803   0.609   6.372  10.033 -0.3792  0.3983  0.1027
   36POPC   H2R 4804   0.713   6.361   9.997 -0.2010 -3.9833  1.3380
   36POPC   H2S 4805   0.562   6.472  10.023 -1.4588  0.1494  2.1627
   36POPC    C3 4806   0.503   6.491  10.450 -0.0435  0.2456 -0.0933
   36POPC    HX 4807   0.550   6.591  10.464 -1.3108  0.7270  0.8836
   36POPC    HY 4808   0.456   6.467  10.548 -0.5676  0.9010 -0.1698
   36POPC   O31 4809   0.399   6.499  10.352 -0.0165 -0.7163  0.4919
   36POPC   C31 4810   0.320   6.390  10.346  0.3468  0.3530 -0.2881
   36POPC   O32 4811   0.329   6.299  10.429 -0.0072  0.6219 -0.1285
   36POPC   C32 4812   0.233   6.400  10.218 -0.0017 -0.3912 -0.3770
   36POPC   H2X 4813   0.295   6.428  10.130 -0.6664 -2.8967 -1.7372
   36POPC   H2Y 4814   0.165   6.486  10.233  1.2641  0.4448  0.8537
   36POPC   C23 4815   0.516   6.269   9.972  0.2112  0.7774  0.2255
   36POPC   H3R 4816   0.416   6.268  10.020 -1.0548 -0.5966 -2.2384
   36POPC   H3S 4817   0.570   6.174   9.985 -1.9474 -1.0047 -2.5243
   36POPC   C24 4818   0.501   6.299   9.817 -0.2511 -0.0532  0.2715
   36POPC   H4R 4819   0.605   6.315   9.780  0.5290 -2.1780  1.4216
   36POPC   H4S 4820   0.445   6.392   9.791 -0.0414 -0.4049 -1.6254
   36POPC   C25 4821   0.437   6.179   9.743 -0.3178 -0.1589 -0.0700
   36POPC   H5R 4822   0.330   6.182   9.772 -0.4973  0.8819 -0.8185
   36POPC   H5S 4823   0.486   6.084   9.773 -0.8680 -0.3262  0.3149
   36POPC   C26 4824   0.453   6.171   9.587 -0.3057 -0.3552 -0.2493
   36POPC   H6R 4825   0.409   6.073   9.557  1.6099 -1.0441 -0.8986
   36POPC   H6S 4826   0.561   6.169   9.561 -0.1194  0.2927  0.4360
   36POPC   C27 4827   0.385   6.282   9.511  0.0610 -0.4269 -0.0813
   36POPC   H7R 4828   0.442   6.375   9.532 -0.7554  0.5413 -1.8990
   36POPC   H7S 4829   0.283   6.293   9.554  0.0235 -0.7306 -0.0931
   36POPC   C28 4830   0.378   6.273   9.355  0.1361 -0.6775 -0.7175
   36POPC   H8R 4831   0.481   6.273   9.314  1.3000  1.7384  1.8233
   36POPC   H8S 4832   0.314   6.358   9.322  0.0808  0.1168  1.2359
   36POPC   C29 4833   0.301   6.149   9.335  0.0884  0.5447  0.5414
   36POPC   H91 4834   0.213   6.138   9.401 -0.2920 -0.0011 -0.0363
   36POPC  C210 4835   0.327   6.049   9.243 -0.3736  0.5648  0.8420
   36POPC  H101 4836   0.255   5.966   9.242  0.9073 -0.5996  1.6781
   36POPC  C211 4837   0.439   6.052   9.141  0.7045  0.1260 -0.3363
   36POPC  H11R 4838   0.470   5.946   9.128 -0.5111 -0.9375  3.9404
   36POPC  H11S 4839   0.530   6.107   9.174  1.4246 -0.5584 -1.1194
   36POPC  C212 4840   0.406   6.135   9.019  0.6105 -0.1885 -0.0605
   36POPC  H12R 4841   0.394   6.243   9.044  2.7580  0.3864 -1.3497
   36POPC  H12S 4842   0.306   6.093   8.996  0.0563  0.7616  0.5066
   36POPC  C213 4843   0.501   6.130   8.900  0.1222  0.8877 -0.5231
   36POPC  H13R 4844   0.466   6.200   8.821  1.1911 -0.0986 -1.9313
   36POPC  H13S 4845   0.516   6.028   8.858  1.1708  0.4523  0.8162
   36POPC  C214 4846   0.648   6.183   8.937  0.3812 -0.0254  0.3336
   36POPC  H14R 4847   0.705   6.140   8.852  1.0036 -1.1531  1.3011
   36POPC  H14S 4848   0.683   6.145   9.035 -2.7071 -1.1642  1.1138
   36POPC  C215 4849   0.657   6.335   8.960 -0.4277 -0.2310  1.0373
   36POPC  H15R 4850   0.589   6.379   9.036  0.8659  3.1478  0.4177
   36POPC  H15S 4851   0.630   6.389   8.867 -2.6130 -0.1033  1.6972
   36POPC  C216 4852   0.799   6.375   9.013  0.6702  0.1193 -0.2591
   36POPC  H16R 4853   0.878   6.351   8.939 -0.8860  0.5177 -2.1178
   36POPC  H16S 4854   0.814   6.329   9.113 -1.2930 -0.0011  0.0275
   36POPC  C217 4855   0.802   6.523   9.033  0.0524  0.0303  0.5687
   36POPC  H17R 4856   0.895   6.539   9.093  2.3019 -0.5057 -2.5015
   36POPC  H17S 4857   0.721   6.564   9.097 -0.1777  0.7042 -0.1456
   36POPC  C218 4858   0.799   6.602   8.906 -0.2429  0.1180 -0.0622
   36POPC  H18R 4859   0.718   6.580   8.833  0.7402 -0.4241 -1.0343
   36POPC  H18S 4860   0.896   6.590   8.852  0.7130  2.7436  0.9190
   36POPC  H18T 4861   0.784   6.711   8.919 -0.0632  0.0966  0.3302
   36POPC   C33 4862   0.165   6.270  10.180  0.6782 -0.2647 -0.0563
   36POPC   H3X 4863   0.082   6.253  10.251  2.4389 -0.4671  2.0316
   36POPC   H3Y 4864   0.235   6.184  10.181 -0.9942 -1.6686 -0.0333
   36POPC   C34 4865   0.119   6.274  10.037 -0.8273 -0.1587 -0.2575
   36POPC   H4X 4866   0.209   6.303   9.978  1.3560 -1.6614  2.1557
   36POPC   H4Y 4867   0.028   6.339  10.027 -0.8667  0.0246  1.1317
   36POPC   C35 4868   0.081   6.140   9.987 -0.7334  0.3524  0.1159
   36POPC   H5X 4869  -0.007   6.099  10.040 -1.6838  0.7224 -1.1045
   36POPC   H5Y 4870   0.169   6.076  10.008  0.6026  1.4714 -1.7453
   36POPC   C36 4871   0.039   6.147   9.838  0.5698 -0.3265  0.3684
   36POPC   H6X 4872   0.127   6.192   9.787  0.0776  1.2302  0.8413
   36POPC   H6Y 4873  -0.045   6.219   9.827  0.0952 -1.1116 -1.7371
   36POPC   C37 4874  -0.006   6.022   9.775  0.5698  0.7823  0.3028
   36POPC   H7X 4875  -0.081   5.975   9.842  0.6128  1.5523  0.9088
   36POPC   H7Y 4876   0.076   5.948   9.762 -0.4929 -0.9251  2.5981
   36POPC   C38 4877  -0.063   6.063   9.634  0.0407 -0.3463  0.3950
   36POPC   H8X 4878   0.005   6.125   9.572 -0.2269  0.4424  0.8711
   36POPC   H8Y 4879  -0.154   6.120   9.662  1.6037  3.3384 -1.3287
   36POPC   C39 4880  -0.110   5.937   9.553  0.7001  0.4319  0.1394
   36POPC   H9X 4881  -0.172   5.882   9.627  0.9569 -1.6096 -1.0846
   36POPC   H9Y 4882  -0.014   5.886   9.531  0.3955  0.2512 -0.7736
   36POPC  C310 4883  -0.192   5.964   9.419  0.0807 -0.1437  0.6260
   36POPC  H10X 4884  -0.296   5.988   9.450  0.9894  1.2540  2.8966
   36POPC  H10Y 4885  -0.196   5.870   9.360 -1.1504 -1.5976  2.8690
   36POPC  C311 4886  -0.131   6.082   9.344  0.0519 -1.0262 -0.1778
   36POPC  H11X 4887  -0.021   6.090   9.360 -0.0020 -2.1120  0.9058
   36POPC  H11Y 4888  -0.179   6.175   9.381 -0.2771 -1.0646 -0.5017
   36POPC  C312 4889  -0.162   6.069   9.192 -0.3483  0.0858  0.6033
   36POPC  H12X 4890  -0.172   6.171   9.150 -0.8414  1.2589  3.3484
   36POPC  H12Y 4891  -0.257   6.013   9.176  0.4561 -0.9088 -0.9505
   36POPC  C313 4892  -0.050   6.003   9.126 -0.2760  0.1794  0.9107
   36POPC  H13X 4893  -0.026   5.903   9.167  0.0209  0.0543  0.4411
   36POPC  H13Y 4894   0.047   6.057   9.127 -0.2327  0.0925  2.1260
   36POPC  C314 4895  -0.100   5.975   8.979  0.2180  0.6131 -0.6365
   36POPC  H14X 4896  -0.096   6.077   8.935 -1.8314  0.4433 -1.3308
   36POPC  H14Y 4897  -0.204   5.941   8.956  1.1380 -1.0786 -2.5441
   36POPC  C315 4898   0.002   5.892   8.911 -0.0647  0.6099  0.3551
   36POPC  H15X 4899   0.006   5.785   8.941  2.8093  0.5827  0.0970
   36POPC  H15Y 4900   0.103   5.936   8.921 -0.5631  1.5295  1.6488
   36POPC  C316 4901  -0.041   5.881   8.765 -0.1992  0.2903  0.8563
   36POPC  H16X 4902  -0.042   5.984   8.723  0.2775  0.1274  0.4281
   36POPC  H16Y 4903  -0.145   5.843   8.752 -0.8177  1.9089  0.8169
   36POPC  H16Z 4904   0.030   5.822   8.704 -0.5648 -0.8804  1.5354
   37POPC     N 4905   5.194   3.664   6.384  0.5849  0.7769  0.1972
   37POPC   C12 4906   5.325   3.585   6.421  0.5411 -0.5260  0.4248
   37POPC  H12A 4907   5.405   3.657   6.419  0.6726 -0.6331  1.4197
   37POPC  H12B 4908   5.338   3.511   6.343 -3.0841  0.4985 -1.3645
   37POPC   C13 4909   5.181   3.765   6.485  0.2255 -0.3947  0.0840
   37POPC  H13A 4910   5.159   3.712   6.576  2.0139  1.0561  1.4447
   37POPC  H13B 4911   5.269   3.825   6.503 -0.2919  0.5468 -0.4267
   37POPC  H13C 4912   5.089   3.817   6.464 -1.1648 -2.8149 -0.1528
   37POPC   C14 4913   5.209   3.728   6.252  0.5325  0.3217  1.6021
   37POPC  H14A 4914   5.243   3.657   6.178 -3.2640  1.0554 -1.1188
   37POPC  H14B 4915   5.110   3.756   6.219  0.6946 -1.5183 -0.6288
   37POPC  H14C 4916   5.279   3.811   6.250  1.1854 -0.1322  3.3225
   37POPC   C15 4917   5.076   3.564   6.382 -0.0191 -0.0925  0.3242
   37POPC  H15A 4918   4.978   3.609   6.387 -0.1296 -0.2342 -0.4122
   37POPC  H15B 4919   5.081   3.491   6.461 -0.5919 -2.4308 -1.6584
   37POPC  H15C 4920   5.070   3.492   6.301 -4.2120 -1.1607  1.3558
   37POPC   C11 4921   5.336   3.519   6.563  0.0208  0.6964  0.1898
   37POPC  H11A 4922   5.292   3.596   6.629 -0.6759 -0.2104  0.8128
   37POPC  H11B 4923   5.440   3.508   6.599 -0.7519  1.1859  2.7641
   37POPC     P 4924   5.309   3.262   6.507 -0.1871 -0.2234 -0.0580
   37POPC   O13 4925   5.427   3.278   6.417 -0.3056  0.3624 -0.0524
   37POPC   O14 4926   5.186   3.197   6.453 -0.7723 -0.2290  0.7954
   37POPC   O12 4927   5.267   3.397   6.573  0.0956 -0.1223  0.4307
   37POPC   O11 4928   5.350   3.186   6.632  0.3735  0.5809  0.3884
   37POPC    C1 4929   5.473   3.194   6.696  0.0228  0.2502  0.0303
   37POPC    HA 4930   5.474   3.285   6.760  1.6641 -0.5355  1.1975
   37POPC    HB 4931   5.565   3.185   6.634 -0.4670 -2.5402 -0.4010
   37POPC    C2 4932   5.502   3.079   6.803 -0.1280  0.1193 -0.2234
   37POPC    HS 4933   5.594   3.109   6.856 -0.1704  2.4954 -1.3869
   37POPC   O21 4934   5.517   2.954   6.723 -0.1149 -0.3280  0.4492
   37POPC   C21 4935   5.593   2.856   6.789  0.3370  0.7081  0.3326
   37POPC   O22 4936   5.658   2.875   6.890 -0.1361 -0.8547 -0.0759
   37POPC   C22 4937   5.577   2.717   6.720  0.3731 -0.9210  0.6113
   37POPC   H2R 4938   5.650   2.648   6.769  0.1925  0.3232  2.7587
   37POPC   H2S 4939   5.586   2.729   6.610 -0.0170 -0.8751  0.5836
   37POPC    C3 4940   5.387   3.069   6.918  0.2606 -0.4416  0.3641
   37POPC    HX 4941   5.290   3.036   6.875  1.1759 -1.2488 -1.1464
   37POPC    HY 4942   5.370   3.166   6.968 -0.6218 -0.1153 -0.5433
   37POPC   O31 4943   5.409   2.959   7.005  0.4274  0.7922  0.1847
   37POPC   C31 4944   5.466   2.986   7.123  0.3164 -0.4004 -0.5035
   37POPC   O32 4945   5.464   3.095   7.173 -0.1367 -0.9483  0.3763
   37POPC   C32 4946   5.524   2.868   7.197 -0.0840 -0.5353 -0.1898
   37POPC   H2X 4947   5.635   2.871   7.197 -0.0624 -1.0399 -1.1033
   37POPC   H2Y 4948   5.494   2.775   7.144 -1.9842  0.7051 -1.4150
   37POPC   C23 4949   5.427   2.660   6.738 -1.1398  0.4394 -0.5525
   37POPC   H3R 4950   5.402   2.587   6.658  0.7332  1.0761 -1.7814
   37POPC   H3S 4951   5.366   2.753   6.730 -0.9770  0.6713  0.7054
   37POPC   C24 4952   5.383   2.589   6.867 -0.3626 -0.0251 -1.1481
   37POPC   H4R 4953   5.451   2.629   6.946 -3.1180  1.6189  0.5534
   37POPC   H4S 4954   5.411   2.482   6.853  1.0504  0.4180 -1.8909
   37POPC   C25 4955   5.236   2.620   6.907 -0.0501  0.0656  0.1641
   37POPC   H5R 4956   5.184   2.586   6.815 -0.4207  0.8536  0.0703
   37POPC   H5S 4957   5.220   2.730   6.905  0.2527  0.1104 -2.5478
   37POPC   C26 4958   5.170   2.540   7.018  0.5005 -0.1007  0.4512
   37POPC   H6R 4959   5.187   2.435   6.988  0.0204 -0.1640  0.3918
   37POPC   H6S 4960   5.061   2.562   7.021  0.4379 -0.2135 -0.7383
   37POPC   C27 4961   5.244   2.556   7.150 -0.6115 -0.0613  0.0459
   37POPC   H7R 4962   5.193   2.633   7.212  0.7846  0.2427  0.8661
   37POPC   H7S 4963   5.349   2.592   7.138 -0.6365 -0.4546 -1.4860
   37POPC   C28 4964   5.252   2.418   7.229  0.7577 -0.2135  0.3172
   37POPC   H8R 4965   5.323   2.418   7.315  0.3567 -1.1613  0.6623
   37POPC   H8S 4966   5.281   2.346   7.150  0.3996  3.2564 -3.2709
   37POPC   C29 4967   5.110   2.385   7.281 -0.1079  0.2604 -0.7649
   37POPC   H91 4968   5.028   2.426   7.220  0.3068  0.1801 -1.3882
   37POPC  C210 4969   5.084   2.307   7.384 -0.3094  0.3402  0.6313
   37POPC  H101 4970   4.979   2.286   7.407 -0.1194 -1.8331 -0.2694
   37POPC  C211 4971   5.187   2.239   7.467 -0.4098  0.7038  0.6789
   37POPC  H11R 4972   5.284   2.221   7.415 -0.5158  3.8748 -0.8936
   37POPC  H11S 4973   5.154   2.137   7.494 -0.9072  0.0804 -2.0582
   37POPC  C212 4974   5.224   2.308   7.600 -0.1719 -0.7760 -0.2198
   37POPC  H12R 4975   5.139   2.355   7.654  1.8609  2.6768  0.2382
   37POPC  H12S 4976   5.300   2.386   7.578 -0.7808  0.0543  0.5524
   37POPC  C213 4977   5.289   2.215   7.696  0.3236  0.0302  0.1053
   37POPC  H13R 4978   5.387   2.180   7.656 -0.4946 -2.1255 -0.1757
   37POPC  H13S 4979   5.236   2.118   7.708 -0.1741  0.5473  2.5723
   37POPC  C214 4980   5.304   2.260   7.840  0.5845  0.1488 -0.5600
   37POPC  H14R 4981   5.203   2.296   7.871  1.4101  0.9934  1.2918
   37POPC  H14S 4982   5.366   2.352   7.835 -1.7935  1.8414 -0.6878
   37POPC  C215 4983   5.380   2.156   7.933 -0.2868 -0.0927 -0.0555
   37POPC  H15R 4984   5.486   2.190   7.933 -0.2959 -0.0622 -0.2224
   37POPC  H15S 4985   5.361   2.052   7.900  1.0376 -0.9088  1.6065
   37POPC  C216 4986   5.329   2.161   8.076  0.3607  0.3520  0.2769
   37POPC  H16R 4987   5.220   2.144   8.087  0.4600  0.0878  0.8661
   37POPC  H16S 4988   5.345   2.267   8.103  0.7714  0.4075 -0.1738
   37POPC  C217 4989   5.395   2.054   8.168 -0.2756 -0.3384 -0.7440
   37POPC  H17R 4990   5.503   2.078   8.172 -0.8348  2.2772  0.9689
   37POPC  H17S 4991   5.372   1.950   8.135 -0.9728 -0.1384 -0.8955
   37POPC  C218 4992   5.340   2.058   8.307 -0.1724 -0.0502 -0.7286
   37POPC  H18R 4993   5.405   2.000   8.376 -0.1258 -0.1384 -0.8456
   37POPC  H18S 4994   5.245   2.001   8.304 -1.8165  2.3804  0.9085
   37POPC  H18T 4995   5.323   2.160   8.348  0.5087 -0.0331 -0.4661
   37POPC   C33 4996   5.485   2.873   7.346  0.4325  0.2213  1.3172
   37POPC   H3X 4997   5.533   2.965   7.388 -2.6367  1.2349  2.8621
   37POPC   H3Y 4998   5.541   2.793   7.399  3.1020  1.2649  0.3041
   37POPC   C34 4999   5.337   2.860   7.375 -1.0078 -0.1304  0.4663
   37POPC   H4X 5000   5.282   2.808   7.293 -0.4347 -1.9961  1.2167
   37POPC   H4Y 5001   5.303   2.965   7.376  1.2089  0.6720 -0.9554
   37POPC   C35 5002   5.296   2.767   7.492 -0.0616  0.5841  0.2146
   37POPC   H5X 5003   5.327   2.661   7.478  1.5408  1.1002 -0.3428
   37POPC   H5Y 5004   5.188   2.780   7.513 -0.6605 -1.2209 -1.4851
   37POPC   C36 5005   5.347   2.814   7.629 -0.1419 -0.0974  0.5157
   37POPC   H6X 5006   5.307   2.914   7.657  0.3634  0.2711 -0.0577
   37POPC   H6Y 5007   5.457   2.821   7.618 -0.2868  0.4798 -0.7325
   37POPC   C37 5008   5.309   2.708   7.743  0.2856 -0.6034 -0.2535
   37POPC   H7X 5009   5.349   2.613   7.704  2.2346 -0.0301  0.2550
   37POPC   H7Y 5010   5.198   2.701   7.747 -0.0694  2.7956 -0.9081
   37POPC   C38 5011   5.377   2.736   7.881  0.0882 -0.1170  0.7429
   37POPC   H8X 5012   5.366   2.843   7.908  1.2413  0.0778  0.4829
   37POPC   H8Y 5013   5.484   2.708   7.875 -0.0274 -0.2889 -0.8740
   37POPC   C39 5014   5.324   2.653   7.991  0.2541 -0.0707 -0.2921
   37POPC   H9X 5015   5.316   2.545   7.964 -0.5587 -0.4257  1.2102
   37POPC   H9Y 5016   5.223   2.695   8.014  1.1396  2.5920 -0.9372
   37POPC  C310 5017   5.414   2.662   8.116 -0.2147  0.4598  0.0238
   37POPC  H10X 5018   5.437   2.766   8.148 -1.1603  0.7340 -0.1597
   37POPC  H10Y 5019   5.514   2.614   8.105 -0.7708 -0.3811 -1.6751
   37POPC  C311 5020   5.348   2.591   8.231  0.7590 -0.5486 -0.0273
   37POPC  H11X 5021   5.329   2.483   8.216  2.7798 -1.2795  2.1099
   37POPC  H11Y 5022   5.254   2.649   8.247 -0.7892 -2.1393 -2.6715
   37POPC  C312 5023   5.437   2.601   8.360  0.2962  0.5644 -0.0884
   37POPC  H12X 5024   5.467   2.708   8.351  1.3901  0.1360 -2.2443
   37POPC  H12Y 5025   5.525   2.534   8.375  0.2548  0.7560  1.1177
   37POPC  C313 5026   5.363   2.579   8.495  0.3466  0.4603 -0.0074
   37POPC  H13X 5027   5.262   2.625   8.486 -1.4653 -3.1211  0.2392
   37POPC  H13Y 5028   5.424   2.609   8.582 -0.5393  1.7805  0.1904
   37POPC  C314 5029   5.326   2.435   8.514 -0.5241  0.4282 -0.1791
   37POPC  H14X 5030   5.421   2.393   8.551  0.7941  0.7930 -2.9060
   37POPC  H14Y 5031   5.298   2.383   8.420  3.2357 -2.0388 -0.1489
   37POPC  C315 5032   5.216   2.425   8.617  0.0146  0.1957 -0.5699
   37POPC  H15X 5033   5.125   2.475   8.577 -0.7702  1.6809  2.7114
   37POPC  H15Y 5034   5.260   2.480   8.703  1.5188 -0.2725 -1.0192
   37POPC  C316 5035   5.169   2.282   8.661 -0.0522  0.5733 -0.0537
   37POPC  H16X 5036   5.141   2.211   8.580  0.8295 -0.0040  0.1375
   37POPC  H16Y 5037   5.083   2.291   8.731  1.5598 -0.0555  2.1135
   37POPC  H16Z 5038   5.250   2.232   8.719  0.9259  2.9707  0.7665
   38POPC     N 5039   6.690   5.584   6.277 -0.0231 -0.4329  0.4885
   38POPC   C12 5040   6.709   5.502   6.405 -0.5893 -0.0401  0.2320
   38POPC  H12A 5041   6.621   5.442   6.423 -1.2831  1.2598  1.3793
   38POPC  H12B 5042   6.711   5.568   6.490  0.7639 -1.3005  1.2230
   38POPC   C13 5043   6.653   5.488   6.162 -0.3306  0.4952  0.0207
   38POPC  H13A 5044   6.575   5.419   6.189  0.4857 -0.2501  0.4994
   38POPC  H13B 5045   6.631   5.543   6.072  0.4286 -0.9324 -1.0734
   38POPC  H13C 5046   6.738   5.425   6.140 -0.5830 -0.2278  1.0486
   38POPC   C14 5047   6.579   5.689   6.292 -0.8220  0.3393  0.3561
   38POPC  H14A 5048   6.572   5.760   6.210 -3.0811  0.6753  0.7709
   38POPC  H14B 5049   6.479   5.650   6.302 -1.4592  1.8037  0.0012
   38POPC  H14C 5050   6.600   5.735   6.387  0.7967  0.5286 -0.0647
   38POPC   C15 5051   6.823   5.646   6.245 -0.0277 -0.1878 -0.9415
   38POPC  H15A 5052   6.865   5.706   6.324 -0.8252 -0.8131 -0.0230
   38POPC  H15B 5053   6.818   5.702   6.153 -2.3847  2.2988  0.5719
   38POPC  H15C 5054   6.900   5.570   6.240  0.0070 -0.1454 -1.0387
   38POPC   C11 5055   6.834   5.411   6.413  0.1748  0.9221  0.0119
   38POPC  H11A 5056   6.830   5.379   6.520 -0.5529  2.0862  0.3433
   38POPC  H11B 5057   6.928   5.467   6.398 -0.1050  1.3347 -0.2207
   38POPC     P 5058   6.960   5.223   6.279  0.4657 -0.0093 -0.2075
   38POPC   O13 5059   7.067   5.314   6.238  0.3576  0.1248 -0.3638
   38POPC   O14 5060   6.922   5.111   6.187  0.1246  0.1207  0.0116
   38POPC   O12 5061   6.825   5.296   6.321 -0.3383  0.1670 -0.1813
   38POPC   O11 5062   7.015   5.171   6.418  0.3668 -0.6759  0.3635
   38POPC    C1 5063   6.924   5.101   6.505  0.5402  0.0495 -0.8139
   38POPC    HA 5064   6.829   5.075   6.454  0.9967  2.3277 -2.9959
   38POPC    HB 5065   6.900   5.171   6.588  1.4117 -1.3316  0.6520
   38POPC    C2 5066   6.978   4.965   6.577  0.0708 -1.0018  0.3219
   38POPC    HS 5067   6.896   4.925   6.640  0.2449 -2.5638 -0.3993
   38POPC   O21 5068   7.095   4.995   6.658  0.4561 -0.2730  0.4231
   38POPC   C21 5069   7.106   4.928   6.774 -0.5214  0.4813 -0.0358
   38POPC   O22 5070   7.019   4.855   6.814  0.7258  0.4238 -1.0959
   38POPC   C22 5071   7.240   4.946   6.836  0.3867  0.4045  0.4495
   38POPC   H2R 5072   7.241   5.057   6.845 -2.5834  0.5847 -0.3903
   38POPC   H2S 5073   7.310   4.911   6.757 -0.1194  0.3016  0.0431
   38POPC    C3 5074   7.011   4.861   6.467 -0.2850  0.5879  0.1179
   38POPC    HX 5075   7.094   4.906   6.408  1.2289  0.9088  2.3583
   38POPC    HY 5076   6.924   4.847   6.400  0.7714  0.6095 -1.2998
   38POPC   O31 5077   7.070   4.746   6.536 -0.2199 -0.1650  0.5483
   38POPC   C31 5078   6.976   4.660   6.568 -0.4829 -0.0706  0.3619
   38POPC   O32 5079   6.859   4.658   6.544  0.3923 -0.8333  0.0991
   38POPC   C32 5080   7.046   4.544   6.644 -0.5352 -0.9225 -0.5101
   38POPC   H2X 5081   7.033   4.584   6.746 -2.8417 -0.0535 -1.0765
   38POPC   H2Y 5082   7.152   4.543   6.611 -0.4785  0.4285 -0.4543
   38POPC   C23 5083   7.255   4.877   6.968  0.1758 -0.0520  0.5642
   38POPC   H3R 5084   7.292   4.774   6.947  2.8115  0.7108  1.0206
   38POPC   H3S 5085   7.164   4.880   7.031  0.3968  2.5630  0.8588
   38POPC   C24 5086   7.367   4.944   7.051  0.4820 -0.2986  0.0327
   38POPC   H4R 5087   7.365   5.055   7.056  3.0284 -0.2565  1.7958
   38POPC   H4S 5088   7.470   4.916   7.020  0.2100 -1.3887  0.0463
   38POPC   C25 5089   7.363   4.895   7.194 -0.0868 -0.0088 -0.3685
   38POPC   H5R 5090   7.409   4.793   7.194 -1.5098 -0.6997 -2.0407
   38POPC   H5S 5091   7.260   4.881   7.233 -0.4361  0.1361 -1.2181
   38POPC   C26 5092   7.455   4.969   7.296 -0.1415  0.0024 -0.1029
   38POPC   H6R 5093   7.396   5.052   7.340  1.2767  1.5323 -0.9441
   38POPC   H6S 5094   7.542   5.016   7.245 -0.7145  0.5255 -0.6177
   38POPC   C27 5095   7.500   4.864   7.399 -0.4364 -0.0410 -0.2256
   38POPC   H7R 5096   7.559   4.911   7.480 -0.0555 -2.1239  0.7797
   38POPC   H7S 5097   7.568   4.784   7.361  1.2094 -0.3417  3.0309
   38POPC   C28 5098   7.374   4.808   7.469 -0.1192 -0.0148  0.5590
   38POPC   H8R 5099   7.325   4.737   7.399  0.9925 -0.2228 -0.0311
   38POPC   H8S 5100   7.298   4.889   7.474 -1.4376 -0.8664 -2.9475
   38POPC   C29 5101   7.410   4.731   7.592 -0.6443 -0.2964 -0.7064
   38POPC   H91 5102   7.462   4.635   7.589 -0.1280 -0.0615  0.2611
   38POPC  C210 5103   7.388   4.778   7.717  0.2411  0.3064  0.0366
   38POPC  H101 5104   7.419   4.712   7.799  1.4609 -0.9264 -1.3738
   38POPC  C211 5105   7.320   4.901   7.767 -1.1566 -0.3448 -0.2336
   38POPC  H11R 5106   7.217   4.876   7.800 -0.7147 -0.6724  0.9339
   38POPC  H11S 5107   7.307   4.982   7.692  0.3850 -0.3082 -0.4860
   38POPC  C212 5108   7.397   4.963   7.884 -0.8339 -0.2588 -0.0751
   38POPC  H12R 5109   7.381   5.073   7.891  1.9213  0.3390 -1.3809
   38POPC  H12S 5110   7.507   4.949   7.871 -0.9992 -1.8109  0.1188
   38POPC  C213 5111   7.366   4.903   8.017  0.1546  0.3564  0.0851
   38POPC  H13R 5112   7.422   4.956   8.097  0.3420 -1.4224  1.1854
   38POPC  H13S 5113   7.412   4.802   8.022  2.2693  1.2256 -0.5126
   38POPC  C214 5114   7.221   4.929   8.066 -0.2834  0.7724 -0.1052
   38POPC  H14R 5115   7.145   4.911   7.986 -0.6204  2.4537 -0.1935
   38POPC  H14S 5116   7.198   5.035   8.089 -1.9242  0.7188 -1.2870
   38POPC  C215 5117   7.180   4.838   8.180 -0.4714  0.9143  0.4929
   38POPC  H15R 5118   7.264   4.854   8.251 -0.3502  0.4358  0.4600
   38POPC  H15S 5119   7.179   4.731   8.154 -1.6855  1.2641 -1.0236
   38POPC  C216 5120   7.045   4.886   8.242  0.1130 -0.0488 -0.6500
   38POPC  H16R 5121   6.957   4.899   8.176 -0.8849  3.2538  1.1245
   38POPC  H16S 5122   7.049   4.990   8.282  0.3308 -0.0870 -0.5713
   38POPC  C217 5123   7.010   4.789   8.354 -0.4211 -0.9406  0.3596
   38POPC  H17R 5124   7.101   4.760   8.410  1.0714 -1.7484 -2.3348
   38POPC  H17S 5125   6.979   4.699   8.296  1.9866 -1.1702 -0.6965
   38POPC  C218 5126   6.910   4.832   8.455  0.4235 -0.9051 -0.4570
   38POPC  H18R 5127   6.904   4.773   8.549  1.5994 -2.4586 -1.3058
   38POPC  H18S 5128   6.805   4.831   8.419  0.0494  1.1146  0.4046
   38POPC  H18T 5129   6.924   4.939   8.482 -1.4996 -0.8611  0.5863
   38POPC   C33 5130   6.979   4.402   6.639 -0.6908 -0.6781 -0.2296
   38POPC   H3X 5131   6.973   4.369   6.533 -0.6214 -0.6570 -0.2401
   38POPC   H3Y 5132   6.870   4.406   6.660 -1.0701 -0.6736 -2.0389
   38POPC   C34 5133   7.061   4.308   6.723  0.4599 -0.1997 -0.2574
   38POPC   H4X 5134   7.169   4.330   6.705  0.4571 -0.7015 -0.9282
   38POPC   H4Y 5135   7.046   4.209   6.675 -0.3907  0.7315 -2.0096
   38POPC   C35 5136   7.020   4.327   6.874  0.1185 -0.6344  0.5928
   38POPC   H5X 5137   6.916   4.289   6.884 -0.2277  0.6844  2.7526
   38POPC   H5Y 5138   7.007   4.431   6.912 -0.7433  0.1784 -1.7041
   38POPC   C36 5139   7.111   4.252   6.961  0.3664 -0.0029 -0.1527
   38POPC   H6X 5140   7.221   4.268   6.954  1.2905 -3.2194  3.5218
   38POPC   H6Y 5141   7.114   4.143   6.939 -3.1744 -0.2620  0.0829
   38POPC   C37 5142   7.069   4.273   7.115  0.3035  0.3720 -0.5464
   38POPC   H7X 5143   6.961   4.274   7.142  0.7927  1.4430  1.6144
   38POPC   H7Y 5144   7.105   4.376   7.133 -0.7666  0.4943  1.1140
   38POPC   C38 5145   7.150   4.187   7.213  0.3606 -0.0486  0.2355
   38POPC   H8X 5146   7.260   4.186   7.197  0.5947 -1.5616  1.7466
   38POPC   H8Y 5147   7.107   4.085   7.202 -1.3675  0.7088 -0.4435
   38POPC   C39 5148   7.137   4.229   7.355  0.5955  1.0874  0.5234
   38POPC   H9X 5149   7.029   4.232   7.381  0.3318  2.8177 -0.6528
   38POPC   H9Y 5150   7.176   4.330   7.379 -1.7767  2.3543 -0.6571
   38POPC  C310 5151   7.199   4.119   7.445  0.0172 -0.6448 -0.4694
   38POPC  H10X 5152   7.308   4.114   7.427 -0.2246 -1.1667 -1.9684
   38POPC  H10Y 5153   7.151   4.023   7.416  0.3307 -0.2112 -2.6135
   38POPC  C311 5154   7.164   4.146   7.593  0.9847 -0.1260 -0.3243
   38POPC  H11X 5155   7.058   4.179   7.582  0.7692 -0.9983 -0.9694
   38POPC  H11Y 5156   7.222   4.231   7.636  0.7168  0.0876 -0.3830
   38POPC  C312 5157   7.161   4.024   7.678 -0.3980  0.4286 -0.4961
   38POPC  H12X 5158   7.263   3.981   7.667  0.2355  1.4703  1.0356
   38POPC  H12Y 5159   7.102   3.946   7.626  0.3794 -1.5527  1.4515
   38POPC  C313 5160   7.109   4.051   7.818 -0.1062 -0.5154 -0.0968
   38POPC  H13X 5161   7.007   4.096   7.815  0.5449  0.9812 -0.5243
   38POPC  H13Y 5162   7.166   4.136   7.859 -1.8731  0.9870 -0.6299
   38POPC  C314 5163   7.096   3.933   7.924 -0.5632 -0.3682  0.1488
   38POPC  H14X 5164   7.202   3.901   7.931 -0.2229  1.0770  2.7450
   38POPC  H14Y 5165   7.041   3.847   7.880 -2.5046  0.2527  1.2155
   38POPC  C315 5166   7.045   3.952   8.064  0.3240  0.0060 -0.4337
   38POPC  H15X 5167   6.934   3.945   8.067  0.1377  2.2438  0.0079
   38POPC  H15Y 5168   7.070   4.055   8.099 -1.5201  0.1182  0.7143
   38POPC  C316 5169   7.102   3.850   8.158 -0.7942  0.1063  0.1193
   38POPC  H16X 5170   7.090   3.751   8.108 -3.1209  0.1293  0.5321
   38POPC  H16Y 5171   7.059   3.847   8.260 -1.1532  2.7728  0.1151
   38POPC  H16Z 5172   7.209   3.872   8.179 -0.9582 -0.2922  1.4195
   39POPC     N 5173   4.413   2.828   6.022  0.7788 -0.1209  0.2096
   39POPC   C12 5174   4.507   2.932   5.973 -0.2021 -0.0675  0.2555
   39POPC  H12A 5175   4.457   2.994   5.900  0.8604 -1.3746 -1.6497
   39POPC  H12B 5176   4.589   2.893   5.914  0.5140  0.4275  0.9043
   39POPC   C13 5177   4.380   2.744   5.902 -0.1222  0.1003 -0.0901
   39POPC  H13A 5178   4.474   2.711   5.859  0.4544  0.8532  0.5808
   39POPC  H13B 5179   4.328   2.655   5.935 -1.0389  0.5640 -0.2523
   39POPC  H13C 5180   4.327   2.807   5.832  1.1519  2.4902  0.9992
   39POPC   C14 5181   4.479   2.744   6.118 -0.1797  0.4892 -0.8376
   39POPC  H14A 5182   4.559   2.680   6.083  0.3823 -0.2962  1.6870
   39POPC  H14B 5183   4.529   2.800   6.195  0.4060 -0.7253 -0.2935
   39POPC  H14C 5184   4.409   2.683   6.174 -0.5930  0.7936 -1.0167
   39POPC   C15 5185   4.290   2.890   6.080  0.2132 -0.1144 -0.0313
   39POPC  H15A 5186   4.303   2.965   6.157 -1.9988 -0.2393  0.5394
   39POPC  H15B 5187   4.224   2.815   6.122  1.1081 -0.1039  1.4941
   39POPC  H15C 5188   4.236   2.928   5.995 -2.5535 -4.3039 -0.4650
   39POPC   C11 5189   4.578   3.014   6.088  0.1336 -0.1230 -0.2059
   39POPC  H11A 5190   4.519   3.043   6.178  0.2810  2.2766 -0.8145
   39POPC  H11B 5191   4.595   3.108   6.032  1.8240 -1.2720 -1.7224
   39POPC     P 5192   4.820   3.026   6.171 -0.1053 -0.3147 -0.4222
   39POPC   O13 5193   4.897   3.080   6.052  0.5306 -0.2451 -0.7147
   39POPC   O14 5194   4.896   2.935   6.263 -0.3927 -0.5487 -0.0634
   39POPC   O12 5195   4.700   2.945   6.111  0.7245  0.5743 -0.8321
   39POPC   O11 5196   4.764   3.148   6.250 -0.6257 -0.2532 -0.2246
   39POPC    C1 5197   4.806   3.180   6.386 -0.0138  0.3972  1.4037
   39POPC    HA 5198   4.774   3.285   6.405 -1.1427  0.2010  0.7123
   39POPC    HB 5199   4.913   3.172   6.414 -0.5298 -1.0297  3.1462
   39POPC    C2 5200   4.729   3.103   6.501  0.6126  0.2291 -0.3236
   39POPC    HS 5201   4.749   2.994   6.494 -0.8582 -0.0049 -1.4340
   39POPC   O21 5202   4.584   3.133   6.500  0.5373 -0.4993 -0.0403
   39POPC   C21 5203   4.506   3.029   6.480 -0.2090 -0.7871 -0.2914
   39POPC   O22 5204   4.534   2.911   6.461 -0.3309 -0.3879  0.0913
   39POPC   C22 5205   4.367   3.095   6.453  0.4686  0.4069  0.9360
   39POPC   H2R 5206   4.342   3.086   6.345 -0.7044 -2.7119  1.3469
   39POPC   H2S 5207   4.383   3.203   6.472  5.3039  0.0003  0.1891
   39POPC    C3 5208   4.791   3.143   6.639 -0.9175 -0.1358 -0.0613
   39POPC    HX 5209   4.815   3.252   6.642  0.5718 -0.4282 -0.3461
   39POPC    HY 5210   4.888   3.088   6.637 -1.3351 -0.9367  1.1438
   39POPC   O31 5211   4.716   3.103   6.757 -0.2741  0.0592 -0.0107
   39POPC   C31 5212   4.615   3.190   6.791  0.0233 -0.4146  0.5133
   39POPC   O32 5213   4.588   3.288   6.727 -0.3920  0.0085  0.5734
   39POPC   C32 5214   4.540   3.138   6.920  0.2090 -0.5306  0.2588
   39POPC   H2X 5215   4.449   3.088   6.882  0.3461 -0.5643 -0.0295
   39POPC   H2Y 5216   4.616   3.066   6.958 -0.3114 -1.1803  0.0772
   39POPC   C23 5217   4.259   3.041   6.546  0.5250 -0.0961 -0.3386
   39POPC   H3R 5218   4.166   3.093   6.516 -0.7645 -0.9776  1.9301
   39POPC   H3S 5219   4.281   3.060   6.653 -0.8555  0.1239 -0.0831
   39POPC   C24 5220   4.231   2.895   6.537  0.1967 -0.6097  0.0795
   39POPC   H4R 5221   4.324   2.839   6.558  0.1218 -0.7283  0.0949
   39POPC   H4S 5222   4.192   2.868   6.437  2.1569  0.9007 -1.1589
   39POPC   C25 5223   4.125   2.849   6.640 -0.1305  0.0255 -0.1388
   39POPC   H5R 5224   4.104   2.744   6.611  2.5532 -0.6714  0.1189
   39POPC   H5S 5225   4.030   2.899   6.613  0.2067  0.3506 -0.7467
   39POPC   C26 5226   4.154   2.856   6.789  0.1803  0.0927  0.2586
   39POPC   H6R 5227   4.255   2.833   6.827  1.0825  3.8377  0.4657
   39POPC   H6S 5228   4.083   2.788   6.841  0.2604  0.7311  1.2263
   39POPC   C27 5229   4.107   2.983   6.862  0.6746 -0.5127 -1.1105
   39POPC   H7R 5230   3.996   2.985   6.859  0.6779 -0.0104 -0.9698
   39POPC   H7S 5231   4.147   3.078   6.820 -0.3053 -0.4791 -2.0148
   39POPC   C28 5232   4.144   2.982   7.010  0.3219  0.4772 -0.4450
   39POPC   H8R 5233   4.255   2.972   7.010  0.2099 -1.7105 -2.7663
   39POPC   H8S 5234   4.107   2.888   7.055  0.9203  0.6089  0.3475
   39POPC   C29 5235   4.110   3.111   7.085  0.4230 -0.3982  0.1095
   39POPC   H91 5236   4.160   3.202   7.050 -0.2026  1.6929  4.0786
   39POPC  C210 5237   4.028   3.130   7.186 -0.3383  0.3536 -1.2487
   39POPC  H101 5238   4.012   3.231   7.226 -2.1895 -0.2263 -0.3895
   39POPC  C211 5239   3.951   3.016   7.262  0.2241 -0.4921  0.1628
   39POPC  H11R 5240   4.000   2.916   7.261  1.6653 -0.0076  4.4849
   39POPC  H11S 5241   3.852   3.010   7.213  0.4455  0.1154 -0.3783
   39POPC  C212 5242   3.922   3.042   7.412  0.1016 -0.2889 -0.5382
   39POPC  H12R 5243   4.014   3.058   7.471 -2.1112 -0.3332  3.2535
   39POPC  H12S 5244   3.886   2.945   7.450  0.5881 -1.3714 -2.6666
   39POPC  C213 5245   3.817   3.154   7.437  0.0328 -0.2222 -0.2061
   39POPC  H13R 5246   3.731   3.120   7.376  1.8132 -0.7443 -2.5776
   39POPC  H13S 5247   3.857   3.251   7.399  1.7115 -0.3937  1.0193
   39POPC  C214 5248   3.786   3.165   7.589 -0.5870 -0.1692 -0.2919
   39POPC  H14R 5249   3.733   3.261   7.606 -0.6599  0.3913 -3.1761
   39POPC  H14S 5250   3.884   3.174   7.639  1.0166 -1.1758 -3.0345
   39POPC  C215 5251   3.709   3.051   7.651  0.0720  0.4402  0.2297
   39POPC  H15R 5252   3.770   2.960   7.668 -0.8804 -0.2218  0.1646
   39POPC  H15S 5253   3.623   3.019   7.588  0.2559  1.6274 -0.6736
   39POPC  C216 5254   3.651   3.102   7.784  0.1681  0.0110 -0.0357
   39POPC  H16R 5255   3.611   3.205   7.778  0.7101  0.1891 -0.7116
   39POPC  H16S 5256   3.737   3.102   7.855  0.2518  0.3118 -0.1329
   39POPC  C217 5257   3.524   3.028   7.841  0.0594  0.1134 -0.1313
   39POPC  H17R 5258   3.539   2.919   7.825 -0.5269  0.0510 -0.2834
   39POPC  H17S 5259   3.442   3.068   7.777  0.9673  1.0700 -0.7353
   39POPC  C218 5260   3.491   3.061   7.985 -0.0813 -0.8150 -0.4881
   39POPC  H18R 5261   3.565   3.015   8.054 -1.8704 -0.7212  1.5739
   39POPC  H18S 5262   3.391   3.021   8.012  0.3560 -1.1650  0.6624
   39POPC  H18T 5263   3.496   3.170   8.003  2.1097 -0.7540 -1.1044
   39POPC   C33 5264   4.526   3.248   7.021 -0.5751 -0.7031 -0.8185
   39POPC   H3X 5265   4.447   3.321   6.995 -0.2548 -0.2130 -0.4309
   39POPC   H3Y 5266   4.614   3.313   7.036 -0.9959 -0.5967  1.7871
   39POPC   C34 5267   4.491   3.178   7.153 -0.3575  0.3547  0.2009
   39POPC   H4X 5268   4.577   3.112   7.179 -2.8029 -4.7665 -3.0287
   39POPC   H4Y 5269   4.418   3.094   7.146  1.5087 -1.2337 -2.5903
   39POPC   C35 5270   4.450   3.283   7.253  0.6832  0.7997 -0.3946
   39POPC   H5X 5271   4.349   3.322   7.229 -0.2417 -1.2469 -0.0453
   39POPC   H5Y 5272   4.521   3.369   7.258  1.6823 -0.0564  1.5037
   39POPC   C36 5273   4.446   3.209   7.385  0.2912  0.1683  0.7319
   39POPC   H6X 5274   4.547   3.163   7.393  2.0664  2.8791 -2.8670
   39POPC   H6Y 5275   4.369   3.128   7.386 -0.5787  0.9623  0.1685
   39POPC   C37 5276   4.417   3.303   7.501 -0.3094 -0.5908  0.3565
   39POPC   H7X 5277   4.341   3.374   7.463 -1.4017 -0.5153  2.4938
   39POPC   H7Y 5278   4.515   3.344   7.534 -1.1366  1.2655  0.6635
   39POPC   C38 5279   4.360   3.223   7.623 -0.1082  0.1923 -0.1491
   39POPC   H8X 5280   4.435   3.162   7.678 -0.1747 -0.8932 -1.2246
   39POPC   H8Y 5281   4.285   3.150   7.586 -0.6926  0.7031  0.0025
   39POPC   C39 5282   4.300   3.320   7.728 -0.5876  0.4401  0.2855
   39POPC   H9X 5283   4.227   3.394   7.688  0.7387  0.8086 -1.5815
   39POPC   H9Y 5284   4.391   3.369   7.769 -1.2331 -0.7798  3.4894
   39POPC  C310 5285   4.226   3.235   7.838  0.5760  0.5218 -0.0806
   39POPC  H10X 5286   4.291   3.145   7.843  0.1509  0.2991  2.4500
   39POPC  H10Y 5287   4.134   3.204   7.783  1.8895 -2.2748 -0.8652
   39POPC  C311 5288   4.202   3.304   7.971 -0.0331  0.7645  0.3024
   39POPC  H11X 5289   4.165   3.407   7.949  0.5305  1.8153  3.7464
   39POPC  H11Y 5290   4.292   3.303   8.035  0.4276  0.0894 -0.3375
   39POPC  C312 5291   4.103   3.217   8.040 -0.4519  1.0541 -0.5597
   39POPC  H12X 5292   4.147   3.115   8.046  0.2479  1.4027  3.7465
   39POPC  H12Y 5293   4.003   3.223   7.993  0.0201  0.2196 -1.7119
   39POPC  C313 5294   4.085   3.263   8.188  0.4099 -0.0875  0.1526
   39POPC  H13X 5295   4.031   3.360   8.179 -0.6921 -0.4507  2.1900
   39POPC  H13Y 5296   4.177   3.275   8.249  0.1687  0.6428  0.3880
   39POPC  C314 5297   3.996   3.188   8.281 -1.0298 -0.1520  0.7888
   39POPC  H14X 5298   4.027   3.081   8.275 -3.3501 -0.8223 -1.2806
   39POPC  H14Y 5299   3.888   3.182   8.256 -1.3363 -4.7255  2.1836
   39POPC  C315 5300   4.017   3.218   8.432  0.4839 -0.2176  0.1640
   39POPC  H15X 5301   3.981   3.319   8.458 -0.5193  0.1526 -2.3989
   39POPC  H15Y 5302   4.125   3.206   8.456  0.2581 -2.2985  0.3181
   39POPC  C316 5303   3.931   3.129   8.523  0.4778  0.4495  0.2991
   39POPC  H16X 5304   3.975   3.133   8.625 -1.2828 -0.6638  1.1562
   39POPC  H16Y 5305   3.929   3.023   8.489  0.1893 -0.4019  2.7340
   39POPC  H16Z 5306   3.825   3.160   8.511  0.4412 -0.6995 -3.3669
   40POPC     N 5307   3.353   0.673   6.066 -0.5487  0.6243 -0.9176
   40POPC   C12 5308   3.270   0.636   6.184 -0.4411 -0.3750  0.1323
   40POPC  H12A 5309   3.258   0.719   6.251  1.4447 -1.2265  1.6113
   40POPC  H12B 5310   3.324   0.558   6.236  0.6190 -0.3509 -0.8740
   40POPC   C13 5311   3.472   0.745   6.113  0.2595 -0.2664 -0.6031
   40POPC  H13A 5312   3.537   0.682   6.171 -1.3824 -0.0929  1.5268
   40POPC  H13B 5313   3.529   0.783   6.029 -0.0499 -0.3260 -0.8429
   40POPC  H13C 5314   3.446   0.827   6.179  2.2177 -0.5557  0.6045
   40POPC   C14 5315   3.385   0.540   6.001  0.4079 -0.5622  0.4485
   40POPC  H14A 5316   3.299   0.506   5.945  1.0447 -1.0335 -0.2617
   40POPC  H14B 5317   3.472   0.555   5.938 -0.2766  1.5845 -0.0737
   40POPC  H14C 5318   3.430   0.464   6.063  0.0282 -0.9017  0.3152
   40POPC   C15 5319   3.275   0.748   5.965 -0.3775 -0.1803 -0.4252
   40POPC  H15A 5320   3.185   0.693   5.940  0.3326 -0.1097 -3.5787
   40POPC  H15B 5321   3.339   0.770   5.881 -0.3094  2.4884  0.2355
   40POPC  H15C 5322   3.252   0.848   5.998  3.7479  0.3471  1.4123
   40POPC   C11 5323   3.131   0.581   6.160  0.8465  0.1207  0.1639
   40POPC  H11A 5324   3.123   0.494   6.229  1.2384 -0.8404 -0.9758
   40POPC  H11B 5325   3.121   0.530   6.062 -1.3522 -0.6156  0.7089
   40POPC     P 5326   3.000   0.735   6.317 -0.2352 -0.5050  0.4780
   40POPC   O13 5327   2.875   0.813   6.324 -0.9152 -0.1490 -0.6409
   40POPC   O14 5328   3.118   0.805   6.362 -0.0215  0.0437 -0.0817
   40POPC   O12 5329   3.029   0.676   6.173  0.2073 -0.0787 -0.2049
   40POPC   O11 5330   2.992   0.603   6.409 -0.3840  0.5766 -0.1525
   40POPC    C1 5331   3.091   0.578   6.518 -0.0296  0.6225 -0.1033
   40POPC    HA 5332   3.152   0.666   6.548  0.4614  0.5208 -0.7941
   40POPC    HB 5333   3.158   0.496   6.486 -0.1746  1.1383 -1.8432
   40POPC    C2 5334   3.018   0.523   6.642 -0.0432 -0.0550 -0.0308
   40POPC    HS 5335   2.955   0.434   6.622 -1.2758  0.8886 -0.4981
   40POPC   O21 5336   2.941   0.629   6.697  0.1407 -0.1614  0.7653
   40POPC   C21 5337   2.810   0.610   6.689  0.0345 -0.2720 -0.8280
   40POPC   O22 5338   2.744   0.518   6.645 -0.4385 -0.0201  0.1149
   40POPC   C22 5339   2.746   0.737   6.749  0.4708 -0.7773  0.0147
   40POPC   H2R 5340   2.644   0.752   6.707  1.0714  1.7337 -0.7707
   40POPC   H2S 5341   2.808   0.821   6.710 -0.8105  0.2417  0.1323
   40POPC    C3 5342   3.118   0.484   6.747 -0.5154 -0.5116 -0.2207
   40POPC    HX 5343   3.184   0.572   6.761 -2.2667  1.5771 -3.8146
   40POPC    HY 5344   3.177   0.404   6.696 -2.7853 -1.9621 -0.7165
   40POPC   O31 5345   3.059   0.429   6.867 -0.5947  0.0256 -0.4433
   40POPC   C31 5346   3.150   0.387   6.956 -1.2783 -0.1198  0.8184
   40POPC   O32 5347   3.275   0.386   6.936  0.0867 -0.0319  0.4282
   40POPC   C32 5348   3.073   0.354   7.089  0.1598 -0.4237 -0.4912
   40POPC   H2X 5349   3.015   0.262   7.065 -3.4014  1.3320  0.7440
   40POPC   H2Y 5350   2.990   0.426   7.101  1.9093  1.4362  1.2503
   40POPC   C23 5351   2.750   0.745   6.901  0.5042  0.8848 -0.0238
   40POPC   H3R 5352   2.685   0.833   6.918  0.2748  0.5376  0.9576
   40POPC   H3S 5353   2.853   0.777   6.927  1.0156 -0.0759 -0.7688
   40POPC   C24 5354   2.710   0.626   6.982  0.7943  0.3343  0.4151
   40POPC   H4R 5355   2.796   0.555   6.982 -0.1445 -0.8319  1.1301
   40POPC   H4S 5356   2.617   0.583   6.941  0.5558  1.2899 -0.0806
   40POPC   C25 5357   2.701   0.664   7.136  0.5864 -0.5064  0.4741
   40POPC   H5R 5358   2.624   0.744   7.143  0.7311 -0.3502  0.2762
   40POPC   H5S 5359   2.800   0.710   7.159 -0.3365  0.2346  3.4356
   40POPC   C26 5360   2.679   0.548   7.234 -0.2816 -0.2381 -0.0806
   40POPC   H6R 5361   2.752   0.467   7.214 -0.9735 -1.1198  0.8203
   40POPC   H6S 5362   2.576   0.508   7.215 -1.0293  1.6789 -0.2708
   40POPC   C27 5363   2.709   0.604   7.375  0.2347  0.5854  0.4481
   40POPC   H7R 5364   2.626   0.669   7.409 -0.6691 -0.9092  1.2124
   40POPC   H7S 5365   2.805   0.659   7.365  0.6809 -0.0707  1.0044
   40POPC   C28 5366   2.724   0.496   7.478  0.2588 -0.1669  0.0933
   40POPC   H8R 5367   2.740   0.552   7.573 -0.7351  1.8569 -0.8744
   40POPC   H8S 5368   2.814   0.436   7.452  1.6216  2.4081 -1.5077
   40POPC   C29 5369   2.607   0.398   7.490  0.9617  0.0690  0.2311
   40POPC   H91 5370   2.577   0.351   7.395 -2.1060  1.8611  0.2023
   40POPC  C210 5371   2.538   0.363   7.599 -0.4263 -0.3813 -0.2772
   40POPC  H101 5372   2.453   0.296   7.584 -1.0271  0.9721 -4.0614
   40POPC  C211 5373   2.558   0.411   7.740 -0.0523  0.7666 -0.5074
   40POPC  H11R 5374   2.655   0.463   7.754 -0.5006  1.4919  0.0195
   40POPC  H11S 5375   2.566   0.324   7.809  0.6014 -0.3241 -1.9176
   40POPC  C212 5376   2.451   0.504   7.793  0.7358 -0.1114 -1.2588
   40POPC  H12R 5377   2.345   0.498   7.758  0.1091  3.7897 -0.5326
   40POPC  H12S 5378   2.475   0.604   7.751 -1.9430  1.3758  0.3945
   40POPC  C213 5379   2.445   0.526   7.944  0.7879  0.2705 -1.1451
   40POPC  H13R 5380   2.414   0.427   7.984  0.5674  0.4644 -0.8356
   40POPC  H13S 5381   2.370   0.604   7.968 -1.5363 -2.2384  0.4396
   40POPC  C214 5382   2.581   0.559   8.006 -0.3733  0.0734 -0.6219
   40POPC  H14R 5383   2.619   0.650   7.956 -3.4076  0.7557 -1.9151
   40POPC  H14S 5384   2.652   0.476   7.989 -1.2635 -1.1265  1.1862
   40POPC  C215 5385   2.586   0.593   8.152 -0.0560 -0.0120 -0.3905
   40POPC  H15R 5386   2.526   0.516   8.204 -0.7120  0.8509  0.1641
   40POPC  H15S 5387   2.532   0.689   8.169 -1.7853 -1.1733  0.8364
   40POPC  C216 5388   2.729   0.604   8.210  0.1108  0.4564 -0.2936
   40POPC  H16R 5389   2.795   0.642   8.129 -0.4125 -0.0155 -0.9498
   40POPC  H16S 5390   2.759   0.499   8.229 -1.5690  0.0131  0.0319
   40POPC  C217 5391   2.719   0.684   8.343  0.0141  0.3573  0.1620
   40POPC  H17R 5392   2.653   0.620   8.404  1.7790 -2.7971 -0.9972
   40POPC  H17S 5393   2.674   0.784   8.325  0.4964  0.2352 -1.9522
   40POPC  C218 5394   2.849   0.705   8.428  0.8816 -0.3496  0.4168
   40POPC  H18R 5395   2.912   0.782   8.380  0.6846 -0.4769 -0.0545
   40POPC  H18S 5396   2.909   0.615   8.454 -0.0347 -0.8531  0.8705
   40POPC  H18T 5397   2.812   0.741   8.527  1.2592 -1.2884  0.9181
   40POPC   C33 5398   3.144   0.323   7.227  0.5417 -0.0888  0.4356
   40POPC   H3X 5399   3.220   0.243   7.220 -0.5786 -1.2417  1.0305
   40POPC   H3Y 5400   3.059   0.277   7.282  0.2329 -1.0332 -0.7901
   40POPC   C34 5401   3.175   0.451   7.311 -0.5591 -0.3303  0.0844
   40POPC   H4X 5402   3.094   0.526   7.298  1.2148  1.5438 -0.6927
   40POPC   H4Y 5403   3.261   0.491   7.254  1.3548 -2.6472  1.1791
   40POPC   C35 5404   3.202   0.422   7.455  0.1632  0.0292 -0.2493
   40POPC   H5X 5405   3.261   0.506   7.496  1.8519 -1.1392 -0.2074
   40POPC   H5Y 5406   3.257   0.326   7.463 -0.8017 -0.4824  0.5190
   40POPC   C36 5407   3.069   0.410   7.541  0.1443 -0.3624 -0.4077
   40POPC   H6X 5408   3.020   0.314   7.513 -0.3200 -0.1717 -0.2584
   40POPC   H6Y 5409   3.003   0.496   7.515 -0.1970 -0.5795 -0.2689
   40POPC   C37 5410   3.085   0.416   7.690 -0.0742 -0.8246 -0.9367
   40POPC   H7X 5411   3.149   0.504   7.714  1.0241 -1.5505 -1.1380
   40POPC   H7Y 5412   3.144   0.329   7.726  0.1132 -0.4855 -0.4150
   40POPC   C38 5413   2.955   0.432   7.780 -0.5168 -0.1450 -0.5227
   40POPC   H8X 5414   2.900   0.341   7.749  1.1831 -1.4603  0.1441
   40POPC   H8Y 5415   2.899   0.524   7.751  1.5649  0.6560 -2.3336
   40POPC   C39 5416   2.979   0.434   7.938 -0.3147 -0.6437  0.5538
   40POPC   H9X 5417   2.881   0.445   7.988 -0.8109  1.1769 -0.7519
   40POPC   H9Y 5418   3.044   0.524   7.946 -0.9068  0.2285 -2.9182
   40POPC  C310 5419   3.060   0.306   7.985 -0.0219 -0.6940 -0.3192
   40POPC  H10X 5420   3.163   0.304   7.944  0.3520  0.1226  0.5569
   40POPC  H10Y 5421   3.004   0.215   7.955 -0.0967 -0.5852 -0.5107
   40POPC  C311 5422   3.079   0.293   8.139  0.0814 -0.3430  0.2000
   40POPC  H11X 5423   3.138   0.201   8.160  0.8950  0.1560  0.1846
   40POPC  H11Y 5424   2.976   0.282   8.177 -0.7520  2.0618 -1.1805
   40POPC  C312 5425   3.138   0.415   8.208  0.1206 -0.4382  0.9321
   40POPC  H12X 5426   3.069   0.501   8.195  1.3140  0.6592  1.6403
   40POPC  H12Y 5427   3.235   0.437   8.159 -0.2014 -0.8731  0.0929
   40POPC  C313 5428   3.156   0.393   8.358 -0.3727 -0.7343 -0.0926
   40POPC  H13X 5429   3.214   0.301   8.378  0.7385  0.1282  0.7360
   40POPC  H13Y 5430   3.051   0.399   8.392  0.0500  3.4042  0.9536
   40POPC  C314 5431   3.243   0.509   8.419  0.2431 -0.4004  0.2710
   40POPC  H14X 5432   3.186   0.604   8.420  0.5745 -0.2037  0.7730
   40POPC  H14Y 5433   3.335   0.515   8.357 -0.0218  0.9073 -0.0268
   40POPC  C315 5434   3.280   0.485   8.572 -0.6357 -0.8476 -0.2700
   40POPC  H15X 5435   3.269   0.376   8.591 -1.1007 -0.4515  1.9630
   40POPC  H15Y 5436   3.205   0.518   8.647  0.5068 -0.9215  0.9293
   40POPC  C316 5437   3.425   0.534   8.609 -0.1781  0.1075 -0.0132
   40POPC  H16X 5438   3.508   0.530   8.535 -0.6207  0.9626 -0.5739
   40POPC  H16Y 5439   3.467   0.500   8.706  0.5566 -0.0397 -0.3773
   40POPC  H16Z 5440   3.419   0.644   8.619 -2.5425 -0.0042  0.3060
   41CHL1    C3 5441   2.021   4.690   9.997 -0.0323  0.2383  0.4138
   41CHL1    H3 5442   2.072   4.604   9.949 -0.0505 -0.7161  2.0308
   41CHL1    O3 5443   2.020   4.669  10.138 -0.6498 -0.0760 -0.7982
   41CHL1   H3' 5444   1.973   4.745  10.173 -0.0077  0.3689 -0.8830
   41CHL1    C4 5445   2.081   4.823   9.942  0.4403  0.3495 -0.4724
   41CHL1   H4A 5446   2.040   4.913   9.993 -2.4400 -1.7685  1.2273
   41CHL1   H4B 5447   2.182   4.822   9.987 -0.4618 -1.2528  1.7180
   41CHL1    C5 5448   2.071   4.847   9.794  0.2852  0.7846 -0.3259
   41CHL1    C6 5449   2.179   4.874   9.726 -0.7496  0.1466 -0.2435
   41CHL1    H6 5450   2.270   4.898   9.782  2.0398 -1.4295 -3.7424
   41CHL1    C7 5451   2.173   4.904   9.577  0.6938 -0.1371  0.1060
   41CHL1   H7A 5452   2.227   4.998   9.552 -1.0566  1.3252  1.5109
   41CHL1   H7B 5453   2.224   4.815   9.536  1.0246 -1.3255  2.8612
   41CHL1    C8 5454   2.033   4.916   9.516  0.1056 -0.4256 -0.7800
   41CHL1    H8 5455   1.986   5.014   9.540 -0.1208 -0.1796 -2.1777
   41CHL1   C14 5456   2.040   4.896   9.365 -0.2709 -0.2511  0.1973
   41CHL1   H14 5457   2.101   4.804   9.351  1.5804  0.8687  0.5771
   41CHL1   C15 5458   2.127   5.000   9.293  0.1949 -0.3852 -0.4742
   41CHL1  H15A 5459   2.101   5.105   9.318  0.8634 -0.3564  0.1239
   41CHL1  H15B 5460   2.232   4.970   9.311 -0.3741 -1.3525  1.4540
   41CHL1   C16 5461   2.097   4.969   9.144  0.0459 -0.7078  0.1466
   41CHL1  H16A 5462   2.081   5.073   9.110  1.1533  0.9719  4.1425
   41CHL1  H16B 5463   2.179   4.909   9.100  0.6021 -0.7349  1.1752
   41CHL1   C17 5464   1.975   4.871   9.143 -0.1631 -0.6500 -0.0954
   41CHL1   H17 5465   2.021   4.770   9.146  3.8215  0.9399 -0.7108
   41CHL1   C13 5466   1.912   4.888   9.277 -0.1899 -0.8455  0.1113
   41CHL1   C18 5467   1.842   5.024   9.277 -0.3469 -0.2344 -0.6358
   41CHL1  H18A 5468   1.822   5.063   9.379  0.5884 -0.0147 -0.5275
   41CHL1  H18B 5469   1.898   5.109   9.234 -0.9650  0.5093  0.0041
   41CHL1  H18C 5470   1.749   5.025   9.215 -0.3136  0.1349 -0.6799
   41CHL1   C12 5471   1.825   4.779   9.338 -0.6658  0.1746 -0.0556
   41CHL1  H12A 5472   1.730   4.789   9.281 -0.0675  1.0367 -0.9335
   41CHL1  H12B 5473   1.855   4.674   9.317 -0.4071 -0.2284  2.0858
   41CHL1   C11 5474   1.804   4.806   9.488  0.2997  0.8330 -0.7533
   41CHL1  H11A 5475   1.771   4.911   9.504  2.7375  1.4904  0.5252
   41CHL1  H11B 5476   1.730   4.735   9.531  0.0414  0.2409 -2.1323
   41CHL1    C9 5477   1.939   4.808   9.570  0.2563  0.4145  0.0592
   41CHL1    H9 5478   1.984   4.709   9.551 -1.5349 -0.7127  1.3063
   41CHL1   C10 5479   1.935   4.822   9.726 -0.9649  0.3697 -0.2794
   41CHL1   C19 5480   1.858   4.956   9.766 -0.1422 -0.4850  0.1525
   41CHL1  H19A 5481   1.921   5.046   9.747 -1.4309  0.2143 -1.0348
   41CHL1  H19B 5482   1.768   4.973   9.703  1.4104 -1.1259 -2.4274
   41CHL1  H19C 5483   1.831   4.958   9.873 -0.9012  1.4745 -0.0382
   41CHL1    C1 5484   1.865   4.699   9.789  0.1569 -0.1464  0.1503
   41CHL1   H1A 5485   1.756   4.696   9.768  0.2968 -1.9110 -0.4417
   41CHL1   H1B 5486   1.901   4.604   9.744  0.8502 -1.5634  3.4164
   41CHL1    C2 5487   1.880   4.692   9.941  0.6631 -0.2385 -0.0024
   41CHL1   H2A 5488   1.827   4.598   9.969 -2.1644  1.1793 -0.2709
   41CHL1   H2B 5489   1.824   4.777   9.985 -0.7582 -1.1667  0.0694
   41CHL1   C20 5490   1.884   4.892   9.009 -0.3568 -0.4025 -0.4214
   41CHL1   H20 5491   1.847   4.997   9.007  1.0885  0.1467 -0.0654
   41CHL1   C21 5492   1.763   4.806   8.989  0.3394  0.1990 -0.1076
   41CHL1  H21A 5493   1.679   4.830   9.058 -0.8217  0.5410 -1.6043
   41CHL1  H21B 5494   1.780   4.698   9.011 -0.7725 -0.3179 -1.6302
   41CHL1  H21C 5495   1.714   4.824   8.891  2.0413 -0.0650 -1.0604
   41CHL1   C22 5496   1.988   4.881   8.890 -0.1038  0.0002 -1.1861
   41CHL1  H22A 5497   2.076   4.949   8.893 -1.1244  1.4277  2.4824
   41CHL1  H22B 5498   2.016   4.773   8.898 -0.0777  0.1294  2.9473
   41CHL1   C23 5499   1.934   4.912   8.754  0.3014 -0.0139 -0.1867
   41CHL1  H23A 5500   1.841   4.851   8.750  0.2453  0.0612 -0.0375
   41CHL1  H23B 5501   1.907   5.020   8.756 -0.7424 -0.2502 -0.5832
   41CHL1   C24 5502   2.026   4.896   8.631  0.6355 -0.1480 -0.5491
   41CHL1  H24A 5503   2.103   4.976   8.638 -2.6497  3.2155  0.8182
   41CHL1  H24B 5504   2.073   4.795   8.637 -1.0720 -0.8820  2.3104
   41CHL1   C25 5505   1.948   4.896   8.497  0.3235  0.1376 -0.1798
   41CHL1   H25 5506   1.894   4.802   8.517 -1.4543  1.3176  0.8743
   41CHL1   C26 5507   1.842   5.005   8.476  0.2165 -0.6143  0.2709
   41CHL1  H26A 5508   1.773   4.972   8.395  1.0550  0.3007 -0.8394
   41CHL1  H26B 5509   1.783   5.009   8.570 -0.8146 -2.6366 -0.2159
   41CHL1  H26C 5510   1.890   5.102   8.455  0.7377 -0.8173  0.5073
   41CHL1   C27 5511   2.034   4.887   8.368  0.2295 -0.2855 -0.1081
   41CHL1  H27A 5512   2.091   4.792   8.375  0.7872  0.0753  0.3438
   41CHL1  H27B 5513   1.980   4.897   8.272  1.5444  1.1378 -0.7345
   41CHL1  H27C 5514   2.095   4.980   8.364  0.5283 -0.4595  0.2995
   42CHL1    C3 5515   2.352   4.491   9.910  0.2519 -0.1899 -0.5256
   42CHL1    H3 5516   2.288   4.580   9.929  0.7320 -0.2783  1.8102
   42CHL1    O3 5517   2.364   4.418  10.029 -0.2884 -0.0127 -0.0167
   42CHL1   H3' 5518   2.424   4.344  10.014 -0.7029 -0.7218  1.5832
   42CHL1    C4 5519   2.290   4.400   9.807 -0.0346  0.5842 -0.4289
   42CHL1   H4A 5520   2.345   4.304   9.808 -0.2046  0.4287 -2.6595
   42CHL1   H4B 5521   2.196   4.382   9.862  0.9067  0.1363  1.1100
   42CHL1    C5 5522   2.300   4.456   9.666  1.0070  0.5173 -0.1806
   42CHL1    C6 5523   2.186   4.464   9.594  0.3464 -0.1504 -0.1483
   42CHL1    H6 5524   2.093   4.427   9.638  1.3919 -1.9846  0.6350
   42CHL1    C7 5525   2.185   4.498   9.449  0.1041  0.8705  0.3894
   42CHL1   H7A 5526   2.108   4.449   9.385  1.3408 -0.2005 -0.3376
   42CHL1   H7B 5527   2.146   4.602   9.451  3.1066  2.0806  1.3542
   42CHL1    C8 5528   2.329   4.503   9.391 -0.0310  0.3743  0.5232
   42CHL1    H8 5529   2.366   4.398   9.379  0.1453  0.4761  0.1728
   42CHL1   C14 5530   2.331   4.575   9.248 -0.0093  0.4508 -0.3068
   42CHL1   H14 5531   2.287   4.674   9.269 -1.5088 -0.1852 -0.3249
   42CHL1   C15 5532   2.242   4.513   9.147  0.2469 -0.1634  0.0820
   42CHL1  H15A 5533   2.276   4.408   9.138  1.4487  0.1682  0.5931
   42CHL1  H15B 5534   2.134   4.517   9.174  0.5664  0.1356  1.3768
   42CHL1   C16 5535   2.280   4.584   9.019 -0.0250 -0.0475  0.1504
   42CHL1  H16A 5536   2.293   4.507   8.940  1.3362  0.3362 -0.0242
   42CHL1  H16B 5537   2.197   4.651   8.986 -0.9132 -0.8385  0.7287
   42CHL1   C17 5538   2.404   4.673   9.051  0.9323 -0.4825 -0.0340
   42CHL1   H17 5539   2.358   4.767   9.089 -1.4795 -1.8646  0.6033
   42CHL1   C13 5540   2.467   4.600   9.180 -0.6311 -0.7441  0.7777
   42CHL1   C18 5541   2.529   4.467   9.134  0.3410  0.0871 -0.2872
   42CHL1  H18A 5542   2.534   4.387   9.211  2.2011  1.7518  1.4442
   42CHL1  H18B 5543   2.477   4.418   9.049  1.7625  0.4833 -1.4244
   42CHL1  H18C 5544   2.626   4.484   9.083 -0.2215 -3.9074 -3.1718
   42CHL1   C12 5545   2.545   4.682   9.283 -0.3498 -0.0742 -0.0677
   42CHL1  H12A 5546   2.647   4.708   9.247  0.4422 -2.5210  0.2209
   42CHL1  H12B 5547   2.495   4.779   9.303  1.9032  1.3365 -0.9319
   42CHL1   C11 5548   2.573   4.608   9.414  0.3460 -0.4421  0.0494
   42CHL1  H11A 5549   2.628   4.513   9.394 -0.2932 -0.1118 -4.0338
   42CHL1  H11B 5550   2.642   4.672   9.473 -0.1643 -0.2324  0.4250
   42CHL1    C9 5551   2.431   4.577   9.481 -0.0381 -0.4580  0.6125
   42CHL1    H9 5552   2.383   4.674   9.504  2.4932  1.1486 -0.3964
   42CHL1   C10 5553   2.447   4.502   9.615  0.0182  0.0332  0.1489
   42CHL1   C19 5554   2.534   4.379   9.611  0.0721  0.3972  0.3120
   42CHL1  H19A 5555   2.506   4.307   9.531 -2.1760  2.2313 -0.6530
   42CHL1  H19B 5556   2.638   4.408   9.582  0.2367 -0.3087  0.1669
   42CHL1  H19C 5557   2.541   4.315   9.702  0.4177  1.0990  0.7907
   42CHL1    C1 5558   2.485   4.603   9.730  0.0522  0.8384 -0.1420
   42CHL1   H1A 5559   2.575   4.659   9.695 -1.7464  3.8036 -0.3978
   42CHL1   H1B 5560   2.413   4.688   9.724  1.1498  1.8585  0.5949
   42CHL1    C2 5561   2.490   4.541   9.873  0.1873 -0.2627 -0.4071
   42CHL1   H2A 5562   2.532   4.616   9.944  0.6682 -0.3109 -0.6374
   42CHL1   H2B 5563   2.560   4.455   9.870  0.1163 -0.3049 -1.2382
   42CHL1   C20 5564   2.493   4.705   8.932 -0.4064  0.7649 -0.0476
   42CHL1   H20 5565   2.552   4.616   8.902  2.7152  2.2917  1.1219
   42CHL1   C21 5566   2.591   4.821   8.983  0.1465 -0.2391 -0.1433
   42CHL1  H21A 5567   2.652   4.842   8.892 -0.7321 -0.4207 -0.7895
   42CHL1  H21B 5568   2.656   4.786   9.066  0.6762 -5.1223 -2.2644
   42CHL1  H21C 5569   2.529   4.912   9.000 -0.9171 -1.0065  0.2207
   42CHL1   C22 5570   2.414   4.747   8.810  0.2391  0.2242 -1.0268
   42CHL1  H22A 5571   2.342   4.669   8.778  0.2454 -0.7934  1.2569
   42CHL1  H22B 5572   2.347   4.827   8.849  0.8047 -1.0397  2.9136
   42CHL1   C23 5573   2.502   4.789   8.698 -0.5181 -0.0201 -0.2365
   42CHL1  H23A 5574   2.555   4.881   8.729 -0.7932  0.2179 -0.4629
   42CHL1  H23B 5575   2.570   4.702   8.686  1.2502  0.6331  3.6218
   42CHL1   C24 5576   2.423   4.822   8.569 -0.6275 -0.0937  0.7586
   42CHL1  H24A 5577   2.358   4.733   8.555 -0.0604 -0.6172  1.3951
   42CHL1  H24B 5578   2.354   4.909   8.578 -1.4329 -0.4550 -1.2201
   42CHL1   C25 5579   2.501   4.829   8.443  0.5090  0.3180  0.0187
   42CHL1   H25 5580   2.557   4.733   8.446  2.2014  1.1873 -1.9295
   42CHL1   C26 5581   2.407   4.821   8.324 -0.3842 -0.4102  0.0006
   42CHL1  H26A 5582   2.370   4.925   8.306  3.9890  1.4244  0.4328
   42CHL1  H26B 5583   2.442   4.771   8.231  0.4449  2.0849 -1.1125
   42CHL1  H26C 5584   2.311   4.772   8.353 -2.0181  2.5238  0.0130
   42CHL1   C27 5585   2.591   4.955   8.437 -0.2611 -0.2819  0.6676
   42CHL1  H27A 5586   2.674   4.941   8.510 -1.7787 -2.8506  2.0455
   42CHL1  H27B 5587   2.620   4.963   8.330 -0.2498 -1.4295  0.5696
   42CHL1  H27C 5588   2.517   5.033   8.465 -1.8536 -1.7242  0.6455
   43CHL1    C3 5589   2.945   3.736   9.969 -0.1263  0.8519 -0.1511
   43CHL1    H3 5590   3.031   3.805   9.983  1.5246 -1.5744  3.1790
   43CHL1    O3 5591   2.941   3.673  10.101  0.2688 -1.0382 -0.0918
   43CHL1   H3' 5592   2.865   3.614  10.105  0.1388 -1.0770 -1.9595
   43CHL1    C4 5593   2.823   3.814   9.931 -0.1602 -0.5250 -0.2751
   43CHL1   H4A 5594   2.745   3.734   9.924 -0.2099 -0.3985 -1.3748
   43CHL1   H4B 5595   2.785   3.881  10.012  0.0883 -1.9082  1.0333
   43CHL1    C5 5596   2.820   3.883   9.798 -0.0388  0.9293  0.8358
   43CHL1    C6 5597   2.798   4.013   9.787  0.0286  0.5101  0.8688
   43CHL1    H6 5598   2.768   4.064   9.879 -2.2514  0.1945  0.3756
   43CHL1    C7 5599   2.773   4.073   9.650 -0.6776 -0.1534 -0.7089
   43CHL1   H7A 5600   2.682   4.135   9.639  0.6650  1.7299 -1.9088
   43CHL1   H7B 5601   2.859   4.136   9.616 -0.1876  1.7565  3.3375
   43CHL1    C8 5602   2.769   3.968   9.532 -0.0956 -0.6582 -0.4135
   43CHL1    H8 5603   2.669   3.920   9.534  0.0757 -1.0949  2.9410
   43CHL1   C14 5604   2.802   4.041   9.398 -0.0623 -0.5111  0.3376
   43CHL1   H14 5605   2.902   4.090   9.404  0.6363 -1.7988 -0.3426
   43CHL1   C15 5606   2.698   4.151   9.356  0.0620  0.6783  0.0585
   43CHL1  H15A 5607   2.590   4.128   9.373  0.3162  0.4963  1.6334
   43CHL1  H15B 5608   2.729   4.242   9.412 -0.5701  0.4197  0.8478
   43CHL1   C16 5609   2.725   4.171   9.199  0.4347  0.2609  0.0252
   43CHL1  H16A 5610   2.635   4.157   9.135  0.7695  1.3785 -0.7195
   43CHL1  H16B 5611   2.763   4.271   9.169 -1.6724  1.0035 -0.3892
   43CHL1   C17 5612   2.823   4.057   9.163 -0.6833  0.4951 -0.4143
   43CHL1   H17 5613   2.921   4.098   9.195 -1.2862  0.4619  1.6296
   43CHL1   C13 5614   2.799   3.953   9.275 -0.2897  0.5488  0.2749
   43CHL1   C18 5615   2.671   3.875   9.244  0.2891  0.0813  0.2128
   43CHL1  H18A 5616   2.664   3.839   9.139  1.7680 -1.8980  0.7140
   43CHL1  H18B 5617   2.654   3.784   9.306  1.0347 -0.3724 -0.2257
   43CHL1  H18C 5618   2.583   3.938   9.268 -0.9460 -1.3404 -0.4268
   43CHL1   C12 5619   2.922   3.858   9.308  0.0963  0.1667  0.4608
   43CHL1  H12A 5620   2.920   3.785   9.224 -2.2038  1.0950 -0.3784
   43CHL1  H12B 5621   3.013   3.922   9.302 -0.4285  0.9381  0.5574
   43CHL1   C11 5622   2.898   3.780   9.438  1.5029  0.0986 -0.1896
   43CHL1  H11A 5623   2.806   3.717   9.431  0.4767  1.1605  2.3855
   43CHL1  H11B 5624   2.981   3.709   9.459  1.1463 -1.0022 -2.2078
   43CHL1    C9 5625   2.876   3.864   9.561  0.4896 -1.2050 -0.1461
   43CHL1    H9 5626   2.968   3.926   9.568 -0.1356 -0.0427 -1.6853
   43CHL1   C10 5627   2.844   3.779   9.685  0.6776 -0.4475  0.1298
   43CHL1   C19 5628   2.716   3.694   9.673  0.1068  0.9506  0.2738
   43CHL1  H19A 5629   2.698   3.635   9.766 -0.5631  0.7650  0.0328
   43CHL1  H19B 5630   2.617   3.744   9.668 -0.3144  0.1640  0.4971
   43CHL1  H19C 5631   2.732   3.615   9.596  1.6459  0.8500  0.6501
   43CHL1    C1 5632   2.971   3.692   9.718  0.1681  0.1797 -0.0834
   43CHL1   H1A 5633   2.972   3.612   9.642 -0.5933  1.1532 -1.1588
   43CHL1   H1B 5634   3.059   3.759   9.708 -0.3268  1.0262  0.9866
   43CHL1    C2 5635   2.965   3.629   9.859  0.3871 -0.3570  0.8307
   43CHL1   H2A 5636   3.057   3.568   9.875  0.4021 -1.0816 -1.6432
   43CHL1   H2B 5637   2.875   3.564   9.865  0.4669 -0.8024 -1.6066
   43CHL1   C20 5638   2.828   4.013   9.021 -0.1745 -0.8881 -0.2925
   43CHL1   H20 5639   2.728   3.975   8.991 -1.0357  1.5641 -0.7772
   43CHL1   C21 5640   2.944   3.912   8.992  0.6845  0.5506  0.1819
   43CHL1  H21A 5641   2.919   3.813   9.035 -1.4311  0.6173 -0.7792
   43CHL1  H21B 5642   3.036   3.962   9.029  1.6706  0.2160 -1.7139
   43CHL1  H21C 5643   2.946   3.888   8.884  0.9405 -0.9052  0.4961
   43CHL1   C22 5644   2.836   4.135   8.926 -0.2628 -1.1262 -0.2226
   43CHL1  H22A 5645   2.771   4.218   8.960  2.5645  0.3967  1.8083
   43CHL1  H22B 5646   2.932   4.191   8.929 -2.1208  2.6044 -2.6338
   43CHL1   C23 5647   2.810   4.090   8.779 -0.1148  0.2021  0.1133
   43CHL1  H23A 5648   2.899   4.034   8.742  0.2730  1.6671 -1.2925
   43CHL1  H23B 5649   2.718   4.027   8.777 -1.4747  2.1372 -0.6451
   43CHL1   C24 5650   2.785   4.208   8.686 -0.3098 -0.4099  0.6281
   43CHL1  H24A 5651   2.690   4.259   8.714 -0.0950  0.5402 -0.2926
   43CHL1  H24B 5652   2.860   4.288   8.707  0.8546 -0.7266 -1.9238
   43CHL1   C25 5653   2.794   4.183   8.533 -0.0548 -0.0597 -0.3275
   43CHL1   H25 5654   2.886   4.120   8.527 -2.4607 -3.8761 -0.4943
   43CHL1   C26 5655   2.667   4.113   8.486 -0.4972 -0.3838 -0.6573
   43CHL1  H26A 5656   2.629   4.035   8.556 -1.2725  0.3607 -0.2237
   43CHL1  H26B 5657   2.584   4.187   8.475  2.3519  3.1087 -0.4396
   43CHL1  H26C 5658   2.686   4.066   8.387  0.2942 -0.5740 -0.4135
   43CHL1   C27 5659   2.828   4.307   8.451  0.2807 -0.7468 -0.2391
   43CHL1  H27A 5660   2.786   4.302   8.348 -2.4132 -0.5257  0.7718
   43CHL1  H27B 5661   2.794   4.402   8.498 -1.0815 -1.8070  1.0436
   43CHL1  H27C 5662   2.939   4.316   8.454  0.4074 -1.0152  4.8184
   44CHL1    C3 5663   2.784   4.901  10.167 -0.2114  0.2075 -0.2115
   44CHL1    H3 5664   2.892   4.917  10.151  0.0217  0.7663  1.6984
   44CHL1    O3 5665   2.778   4.844  10.293 -1.0156  0.8283 -0.3718
   44CHL1   H3' 5666   2.793   4.920  10.350 -0.1861  1.6484 -1.6338
   44CHL1    C4 5667   2.698   5.025  10.158  1.6336  0.0457 -0.5299
   44CHL1   H4A 5668   2.596   5.004  10.198  3.1768 -0.9927  3.3989
   44CHL1   H4B 5669   2.724   5.099  10.236  0.2166  0.0053  0.0139
   44CHL1    C5 5670   2.702   5.080  10.015 -0.0551 -0.5954  0.3841
   44CHL1    C6 5671   2.730   5.208   9.998 -0.2461 -0.5010  0.2562
   44CHL1    H6 5672   2.735   5.276  10.084 -0.7555 -0.6694  0.4232
   44CHL1    C7 5673   2.719   5.283   9.867 -0.0549  0.9266 -0.7781
   44CHL1   H7A 5674   2.674   5.383   9.882  0.5824  1.4948 -2.3543
   44CHL1   H7B 5675   2.826   5.309   9.846  1.6455 -3.1998  1.6882
   44CHL1    C8 5676   2.655   5.197   9.749 -0.3872  0.6231  0.0478
   44CHL1    H8 5677   2.547   5.213   9.769 -0.5213  0.0980 -0.2458
   44CHL1   C14 5678   2.686   5.245   9.610 -0.6167 -0.3062 -0.8493
   44CHL1   H14 5679   2.794   5.231   9.590 -0.8560 -1.0013 -1.6655
   44CHL1   C15 5680   2.675   5.392   9.585  0.0378 -0.5159  0.4256
   44CHL1  H15A 5681   2.575   5.426   9.617  1.1636  2.0570  1.4728
   44CHL1  H15B 5682   2.754   5.453   9.634 -0.7785  0.5073  0.4929
   44CHL1   C16 5683   2.682   5.398   9.434  0.2454 -0.6989 -0.0359
   44CHL1  H16A 5684   2.602   5.459   9.388  1.2652  2.2809  1.8811
   44CHL1  H16B 5685   2.783   5.434   9.406  0.1289 -0.3661 -0.0247
   44CHL1   C17 5686   2.675   5.244   9.374  0.1118  0.8898 -0.4376
   44CHL1   H17 5687   2.778   5.206   9.363 -0.2651 -0.5129  0.5946
   44CHL1   C13 5688   2.619   5.171   9.498  0.4699  0.4356 -0.2735
   44CHL1   C18 5689   2.468   5.196   9.514  0.8340 -0.0299  0.4868
   44CHL1  H18A 5690   2.429   5.189   9.618  0.2202  1.3246  0.3707
   44CHL1  H18B 5691   2.435   5.300   9.495 -0.0062 -0.3692  0.0601
   44CHL1  H18C 5692   2.397   5.135   9.455 -1.4815  2.7712  0.1670
   44CHL1   C12 5693   2.660   5.026   9.507  0.7441 -0.4049  0.1359
   44CHL1  H12A 5694   2.609   4.970   9.426 -0.6863 -2.5959  2.4087
   44CHL1  H12B 5695   2.769   5.008   9.498  0.5805 -1.8005  0.7332
   44CHL1   C11 5696   2.618   4.967   9.648 -0.4626 -0.3811  0.2053
   44CHL1  H11A 5697   2.509   4.972   9.669 -0.3659  0.0710  0.6197
   44CHL1  H11B 5698   2.655   4.862   9.653  3.4300  0.7876 -0.9677
   44CHL1    C9 5699   2.686   5.047   9.768  0.3204  0.6758 -0.1455
   44CHL1    H9 5700   2.792   5.030   9.737  0.4563  0.3118  0.5143
   44CHL1   C10 5701   2.662   4.983   9.904 -0.0907 -0.6007 -0.7662
   44CHL1   C19 5702   2.515   4.947   9.927 -0.3052  0.5791  0.2681
   44CHL1  H19A 5703   2.484   4.919  10.030 -0.6054 -0.5533 -0.1234
   44CHL1  H19B 5704   2.444   5.026   9.895  0.3884  1.0749 -0.0738
   44CHL1  H19C 5705   2.502   4.860   9.859  0.4022  0.1512  0.6707
   44CHL1    C1 5706   2.752   4.853   9.922  0.6871  0.4429 -0.0413
   44CHL1   H1A 5707   2.714   4.781   9.846  0.0773  1.9316 -1.2173
   44CHL1   H1B 5708   2.858   4.880   9.900  0.8392  2.6301  2.8816
   44CHL1    C2 5709   2.739   4.797  10.068  0.1880  0.1791 -0.2205
   44CHL1   H2A 5710   2.804   4.707  10.079  0.3593  0.3987  0.6559
   44CHL1   H2B 5711   2.635   4.769  10.096  0.7281 -0.5612  1.1610
   44CHL1   C20 5712   2.607   5.239   9.239  0.4690  0.0301 -0.3744
   44CHL1   H20 5713   2.514   5.300   9.237  0.7177  0.4113 -1.4110
   44CHL1   C21 5714   2.564   5.094   9.195 -0.4506  0.9757 -0.0099
   44CHL1  H21A 5715   2.503   5.048   9.276 -0.7235  1.2003 -0.0878
   44CHL1  H21B 5716   2.654   5.033   9.171  0.7881  2.3029  1.0749
   44CHL1  H21C 5717   2.507   5.108   9.101 -0.0061  0.2601 -0.3887
   44CHL1   C22 5718   2.693   5.310   9.125 -0.6324 -0.2059 -0.4618
   44CHL1  H22A 5719   2.729   5.411   9.155  1.5667 -1.2295  0.6014
   44CHL1  H22B 5720   2.775   5.247   9.085 -0.0096 -0.4640  1.1416
   44CHL1   C23 5721   2.610   5.354   8.997 -0.2102  0.5402  0.6706
   44CHL1  H23A 5722   2.545   5.268   8.970 -0.0620 -0.3696  2.9895
   44CHL1  H23B 5723   2.537   5.419   9.051 -0.2883 -0.1640  1.4333
   44CHL1   C24 5724   2.692   5.425   8.893 -0.3806  0.0975 -0.7904
   44CHL1  H24A 5725   2.631   5.498   8.836 -1.9707  0.4789  1.2995
   44CHL1  H24B 5726   2.770   5.479   8.951  1.6325 -1.2889 -2.0765
   44CHL1   C25 5727   2.751   5.319   8.797  0.3002  0.3204 -0.7526
   44CHL1   H25 5728   2.772   5.232   8.863  0.1329 -0.3649 -1.5903
   44CHL1   C26 5729   2.650   5.265   8.685 -0.2736 -0.0766 -0.0240
   44CHL1  H26A 5730   2.697   5.180   8.631 -1.1262  1.4338 -3.3876
   44CHL1  H26B 5731   2.561   5.215   8.730  0.0983 -0.6860  0.0503
   44CHL1  H26C 5732   2.616   5.351   8.623  0.7245  0.5433  0.2512
   44CHL1   C27 5733   2.872   5.364   8.715 -0.2031 -0.6434  0.0066
   44CHL1  H27A 5734   2.850   5.453   8.653  1.5836  1.5270  2.2723
   44CHL1  H27B 5735   2.962   5.372   8.779 -1.4571 -1.2777  1.9416
   44CHL1  H27C 5736   2.895   5.271   8.658  0.7167 -1.4078  1.5588
   45CHL1    C3 5737   6.691   1.696  10.258  0.1135 -0.5395  0.1239
   45CHL1    H3 5738   6.583   1.693  10.281  0.2005 -0.3427  0.5636
   45CHL1    O3 5739   6.760   1.636  10.370  0.6730  1.3264  0.5393
   45CHL1   H3' 5740   6.850   1.654  10.341  1.2726 -0.6839  1.0087
   45CHL1    C4 5741   6.719   1.610  10.136 -0.7677 -0.1102  0.0857
   45CHL1   H4A 5742   6.827   1.589  10.121 -0.4954 -0.1850  1.9433
   45CHL1   H4B 5743   6.687   1.509  10.167  1.8208 -0.9022  0.4268
   45CHL1    C5 5744   6.653   1.675  10.015  0.6878 -0.1122  0.2435
   45CHL1    C6 5745   6.565   1.594   9.950 -0.3001 -0.1221  0.3361
   45CHL1    H6 5746   6.551   1.489   9.981  1.9348 -0.0287  1.8809
   45CHL1    C7 5747   6.498   1.640   9.826  0.1347 -0.4320  0.6096
   45CHL1   H7A 5748   6.499   1.560   9.749  2.6019  1.5054 -1.5394
   45CHL1   H7B 5749   6.396   1.672   9.860  1.1790  2.5295  1.2745
   45CHL1    C8 5750   6.560   1.765   9.756  0.0712  0.0808 -0.6582
   45CHL1    H8 5751   6.475   1.810   9.700  0.1596  0.7514 -0.2716
   45CHL1   C14 5752   6.652   1.755   9.638  0.2183 -0.3154  0.0013
   45CHL1   H14 5753   6.753   1.722   9.673  0.2271 -0.4172 -0.1220
   45CHL1   C15 5754   6.610   1.641   9.535 -0.6191  0.7626  0.9987
   45CHL1  H15A 5755   6.682   1.557   9.541  1.1599  2.1154 -0.0691
   45CHL1  H15B 5756   6.504   1.618   9.554 -0.5913 -0.4728 -0.1880
   45CHL1   C16 5757   6.611   1.717   9.404  0.5225 -0.6852  0.1039
   45CHL1  H16A 5758   6.709   1.696   9.356  0.7806 -1.0430  0.7676
   45CHL1  H16B 5759   6.540   1.665   9.336  2.1179 -4.0252  0.7573
   45CHL1   C17 5760   6.595   1.872   9.431  1.0783  0.5216 -0.3154
   45CHL1   H17 5761   6.490   1.892   9.462  1.7681 -0.0816  2.6983
   45CHL1   C13 5762   6.674   1.891   9.565 -1.3693 -0.0012 -0.3746
   45CHL1   C18 5763   6.829   1.899   9.538 -0.1260  0.5327  0.1097
   45CHL1  H18A 5764   6.890   1.890   9.631  0.9870  0.2222 -0.6341
   45CHL1  H18B 5765   6.853   1.814   9.470 -0.6335  0.6210 -0.1813
   45CHL1  H18C 5766   6.858   1.994   9.489 -1.6401  1.6441  1.2811
   45CHL1   C12 5767   6.624   2.007   9.646 -0.0022 -0.5988 -0.0980
   45CHL1  H12A 5768   6.664   2.103   9.607  0.0635 -0.0480  1.2786
   45CHL1  H12B 5769   6.516   2.028   9.636  0.6393  2.3417 -2.0609
   45CHL1   C11 5770   6.644   2.002   9.797 -0.1428 -0.5859  0.4243
   45CHL1  H11A 5771   6.748   2.040   9.806 -1.2258  3.2487 -1.2956
   45CHL1  H11B 5772   6.587   2.089   9.836  1.0084 -0.5827  2.1883
   45CHL1    C9 5773   6.599   1.872   9.854  0.3456  0.2802  0.7551
   45CHL1    H9 5774   6.499   1.893   9.898 -1.4708  0.9896 -3.2720
   45CHL1   C10 5775   6.691   1.821   9.979  0.7674 -0.1998 -0.4417
   45CHL1   C19 5776   6.842   1.816   9.928  0.0280  0.2614  0.2772
   45CHL1  H19A 5777   6.891   1.911   9.898 -0.9353  0.6958  0.0080
   45CHL1  H19B 5778   6.911   1.786  10.009 -1.2513 -5.1506 -0.2280
   45CHL1  H19C 5779   6.858   1.737   9.852  0.8487  0.6533  0.0403
   45CHL1    C1 5780   6.685   1.915  10.103  0.1800  0.2683  0.2345
   45CHL1   H1A 5781   6.736   2.012  10.084  1.0559 -0.1296  0.5212
   45CHL1   H1B 5782   6.578   1.939  10.120  0.5122  0.7223  1.8452
   45CHL1    C2 5783   6.741   1.843  10.233 -0.0859 -0.1306 -0.3672
   45CHL1   H2A 5784   6.723   1.906  10.322 -3.3999  1.3034 -1.9009
   45CHL1   H2B 5785   6.847   1.827  10.203 -0.2657  2.5338 -2.8929
   45CHL1   C20 5786   6.615   1.963   9.303 -0.5099  0.2986 -0.3228
   45CHL1   H20 5787   6.652   2.056   9.350 -1.7652 -0.0667  1.4594
   45CHL1   C21 5788   6.473   1.991   9.244 -0.1047 -0.1461  0.0207
   45CHL1  H21A 5789   6.480   2.079   9.176 -2.1068 -0.6731 -0.9182
   45CHL1  H21B 5790   6.423   2.029   9.336  1.6139 -0.2278  1.0380
   45CHL1  H21C 5791   6.424   1.902   9.201 -1.3149  0.5865 -0.1704
   45CHL1   C22 5792   6.726   1.926   9.202 -0.0972 -0.5120 -0.2141
   45CHL1  H22A 5793   6.824   1.897   9.245  0.0481  1.4720  0.8995
   45CHL1  H22B 5794   6.680   1.838   9.151  0.2878 -0.9619  0.2029
   45CHL1   C23 5795   6.766   2.042   9.113  0.6591  0.0728  0.6232
   45CHL1  H23A 5796   6.679   2.080   9.054 -1.2793 -1.6552  2.1862
   45CHL1  H23B 5797   6.795   2.129   9.176 -1.0363  2.5212 -1.7324
   45CHL1   C24 5798   6.871   1.993   9.008  0.1091  0.1573 -0.1382
   45CHL1  H24A 5799   6.955   1.932   9.049 -0.4174 -0.3866  0.1395
   45CHL1  H24B 5800   6.814   1.924   8.943 -1.9576  0.6573  1.0618
   45CHL1   C25 5801   6.926   2.104   8.926 -0.4389 -0.0842  0.4016
   45CHL1   H25 5802   6.849   2.181   8.903  1.1529  1.1835 -0.9947
   45CHL1   C26 5803   7.029   2.192   8.999 -0.3772  0.3195 -0.3721
   45CHL1  H26A 5804   7.120   2.130   9.015 -1.6637 -1.8662 -1.1142
   45CHL1  H26B 5805   7.049   2.274   8.926 -1.5569  1.4630  0.5399
   45CHL1  H26C 5806   6.973   2.233   9.085 -0.9094 -3.1164  1.0835
   45CHL1   C27 5807   6.995   2.054   8.801 -0.1331  0.2988  0.3250
   45CHL1  H27A 5808   7.048   2.126   8.735 -0.1050 -1.0015 -1.1538
   45CHL1  H27B 5809   7.074   1.986   8.838 -1.4243 -0.4766  1.7498
   45CHL1  H27C 5810   6.934   1.977   8.747  3.7657 -2.1519 -1.0532
   46CHL1    C3 5811   1.756   1.097  10.133 -0.0005 -0.0625  1.0511
   46CHL1    H3 5812   1.788   0.993  10.152  3.0060  0.3815 -0.8439
   46CHL1    O3 5813   1.748   1.173  10.253  0.1415 -0.5716  0.3814
   46CHL1   H3' 5814   1.834   1.159  10.292 -1.6092  0.5025  5.3393
   46CHL1    C4 5815   1.864   1.163  10.043 -0.1678  0.1071  1.2592
   46CHL1   H4A 5816   1.837   1.271  10.035  1.3496  0.4564  0.4940
   46CHL1   H4B 5817   1.964   1.161  10.091  0.7640 -0.2480 -0.6030
   46CHL1    C5 5818   1.865   1.104   9.899  0.9168 -0.8889 -0.0280
   46CHL1    C6 5819   1.971   1.049   9.845  0.4285  0.9167  0.1853
   46CHL1    H6 5820   2.064   1.044   9.905  1.3270 -1.4186 -1.2628
   46CHL1    C7 5821   1.982   0.988   9.708  0.4366  0.0824 -0.3767
   46CHL1   H7A 5822   2.073   1.015   9.651  0.3106  1.1601 -0.0883
   46CHL1   H7B 5823   1.998   0.879   9.726 -0.9541 -0.1770 -0.6436
   46CHL1    C8 5824   1.857   1.026   9.621 -0.0351  0.5120 -0.3059
   46CHL1    H8 5825   1.873   1.130   9.584  1.1605  0.5863  0.3742
   46CHL1   C14 5826   1.851   0.939   9.493 -0.5985 -0.0054 -0.1092
   46CHL1   H14 5827   1.843   0.840   9.542  1.3173  0.3657  1.0717
   46CHL1   C15 5828   1.976   0.924   9.400 -0.3039  0.6243  0.3867
   46CHL1  H15A 5829   2.026   1.021   9.382 -0.8937  0.9955  0.7351
   46CHL1  H15B 5830   2.050   0.856   9.447 -0.9726  0.2923  0.9804
   46CHL1   C16 5831   1.917   0.879   9.268 -0.5442  0.2812 -0.1241
   46CHL1  H16A 5832   1.931   0.961   9.194 -2.1403  1.2638  0.6058
   46CHL1  H16B 5833   1.969   0.792   9.224 -0.7400  0.8887 -1.5925
   46CHL1   C17 5834   1.764   0.873   9.284  0.0986 -0.6008 -0.0728
   46CHL1   H17 5835   1.725   0.774   9.317 -2.9763  1.5044  3.3020
   46CHL1   C13 5836   1.727   0.957   9.413  0.3234 -0.4723  0.0520
   46CHL1   C18 5837   1.711   1.115   9.360  0.0157  0.3077  0.0973
   46CHL1  H18A 5838   1.737   1.185   9.442  2.6406 -0.0875 -0.2935
   46CHL1  H18B 5839   1.782   1.129   9.276 -0.2839 -2.4582 -0.7254
   46CHL1  H18C 5840   1.606   1.132   9.328  0.0271 -0.6942 -0.5265
   46CHL1   C12 5841   1.605   0.917   9.499 -0.1862 -0.3693 -0.4945
   46CHL1  H12A 5842   1.512   0.925   9.438 -0.9953 -2.3680  0.3757
   46CHL1  H12B 5843   1.612   0.813   9.537  0.4470  0.1148  0.7523
   46CHL1   C11 5844   1.595   1.019   9.619 -0.5278  0.2025 -0.3934
   46CHL1  H11A 5845   1.571   1.121   9.583 -1.9553 -0.2689 -0.8482
   46CHL1  H11B 5846   1.508   0.992   9.683  0.3298  0.6973  1.0250
   46CHL1    C9 5847   1.723   1.015   9.704 -0.8416 -0.2384  0.5308
   46CHL1    H9 5848   1.722   0.910   9.740 -3.1602 -0.6902 -0.6490
   46CHL1   C10 5849   1.722   1.103   9.833 -0.7928  0.1587  0.3915
   46CHL1   C19 5850   1.687   1.250   9.785 -0.2321  0.4558  0.3349
   46CHL1  H19A 5851   1.717   1.330   9.857 -0.1855 -0.9674  1.9809
   46CHL1  H19B 5852   1.744   1.267   9.692 -3.6294  1.6283 -1.7027
   46CHL1  H19C 5853   1.581   1.253   9.753 -0.4461 -3.5162  0.1562
   46CHL1    C1 5854   1.614   1.050   9.933  0.6394 -0.6059 -0.0157
   46CHL1   H1A 5855   1.517   1.075   9.884  2.2618  1.0228 -2.6056
   46CHL1   H1B 5856   1.625   0.939   9.935 -0.8881 -0.9012 -2.8682
   46CHL1    C2 5857   1.624   1.110  10.073  1.0073 -0.3919  0.2444
   46CHL1   H2A 5858   1.543   1.063  10.133 -0.5445  1.6611 -0.0908
   46CHL1   H2B 5859   1.588   1.215  10.068 -0.6653 -0.9949 -1.6429
   46CHL1   C20 5860   1.690   0.900   9.148  0.6513 -0.1586  0.4972
   46CHL1   H20 5861   1.722   1.000   9.111  1.8611 -0.7137 -0.0085
   46CHL1   C21 5862   1.535   0.893   9.150  0.4186 -0.1719  0.2222
   46CHL1  H21A 5863   1.494   0.883   9.047  1.4069 -1.2568 -0.0854
   46CHL1  H21B 5864   1.495   0.987   9.195  0.0752  0.0600 -0.5601
   46CHL1  H21C 5865   1.509   0.801   9.207  0.9046 -0.7944 -0.5507
   46CHL1   C22 5866   1.739   0.802   9.038  0.4806 -0.9438 -0.0226
   46CHL1  H22A 5867   1.849   0.803   9.018  0.3117 -1.3541 -1.0156
   46CHL1  H22B 5868   1.710   0.703   9.078 -1.2413 -0.1714  0.7481
   46CHL1   C23 5869   1.678   0.820   8.894 -0.7492 -0.8786  0.3331
   46CHL1  H23A 5870   1.629   0.919   8.881  1.0746 -0.0834 -0.9365
   46CHL1  H23B 5871   1.770   0.823   8.832 -0.9532  1.0468  0.0776
   46CHL1   C24 5872   1.587   0.723   8.832  0.1014 -0.1563 -0.0978
   46CHL1  H24A 5873   1.632   0.622   8.831 -1.1799 -0.7446 -1.0096
   46CHL1  H24B 5874   1.487   0.715   8.881 -0.0680 -1.0131 -0.5564
   46CHL1   C25 5875   1.570   0.764   8.681 -0.6378  0.5600 -1.2055
   46CHL1   H25 5876   1.670   0.787   8.639 -0.2526 -0.5373 -0.9362
   46CHL1   C26 5877   1.535   0.635   8.605 -0.1769 -0.0715  0.4752
   46CHL1  H26A 5878   1.434   0.611   8.644 -0.7061  2.1203  0.5803
   46CHL1  H26B 5879   1.520   0.658   8.497 -3.4430 -0.1848  0.7913
   46CHL1  H26C 5880   1.602   0.548   8.623 -0.9419 -0.1869  3.0909
   46CHL1   C27 5881   1.470   0.881   8.659 -0.5426  0.2434  0.0956
   46CHL1  H27A 5882   1.371   0.855   8.702  0.3479 -1.1722  1.3882
   46CHL1  H27B 5883   1.511   0.973   8.705 -0.3051  1.6569 -2.7184
   46CHL1  H27C 5884   1.461   0.898   8.549 -1.6275  1.4087  0.3430
   47CHL1    C3 5885   3.449   3.919  10.153 -0.0120  0.2157 -0.5652
   47CHL1    H3 5886   3.473   4.024  10.178  1.1554 -0.1232 -0.2067
   47CHL1    O3 5887   3.438   3.848  10.277 -0.4901 -1.0302  0.0711
   47CHL1   H3' 5888   3.528   3.815  10.280  0.4205  1.1159 -1.5391
   47CHL1    C4 5889   3.315   3.908  10.079 -0.1932  0.0713  0.5568
   47CHL1   H4A 5890   3.274   3.804  10.072 -0.3992  0.1981 -0.1857
   47CHL1   H4B 5891   3.244   3.964  10.142 -2.8255 -1.0483 -1.2397
   47CHL1    C5 5892   3.315   3.969   9.938  0.0111  0.3767 -0.4701
   47CHL1    C6 5893   3.235   4.074   9.911 -0.0920 -0.3059  0.6473
   47CHL1    H6 5894   3.179   4.114   9.997 -0.4244  2.1501 -0.6258
   47CHL1    C7 5895   3.221   4.129   9.777 -0.2442  0.1083  0.4613
   47CHL1   H7A 5896   3.115   4.132   9.743  0.2121  0.2009 -1.0223
   47CHL1   H7B 5897   3.267   4.230   9.781  0.3767 -0.2149  2.8813
   47CHL1    C8 5898   3.303   4.057   9.666 -0.2043  0.3394 -0.3224
   47CHL1    H8 5899   3.258   3.961   9.632  0.5193 -0.3462  0.5896
   47CHL1   C14 5900   3.307   4.145   9.541  0.0011  0.3121  0.0720
   47CHL1   H14 5901   3.346   4.247   9.561 -0.6590  0.5252  0.2926
   47CHL1   C15 5902   3.164   4.166   9.479 -0.9728 -0.3245 -0.0116
   47CHL1  H15A 5903   3.109   4.070   9.480 -2.2672  0.4035  0.7350
   47CHL1  H15B 5904   3.094   4.242   9.518 -0.6381  0.4954 -0.9535
   47CHL1   C16 5905   3.188   4.205   9.334  0.0325  0.1931  0.1530
   47CHL1  H16A 5906   3.137   4.137   9.262  0.0172  0.4407 -0.0739
   47CHL1  H16B 5907   3.166   4.312   9.309  0.6462 -0.0150 -1.4295
   47CHL1   C17 5908   3.340   4.186   9.311  0.1388 -0.2240 -0.0193
   47CHL1   H17 5909   3.386   4.284   9.333 -0.3501  0.7277 -2.8523
   47CHL1   C13 5910   3.383   4.084   9.424  0.3617 -0.0204  0.6786
   47CHL1   C18 5911   3.329   3.942   9.387  0.5143 -0.1768 -0.8322
   47CHL1  H18A 5912   3.393   3.909   9.303 -1.1217 -4.6163 -0.5707
   47CHL1  H18B 5913   3.327   3.867   9.468 -2.1455 -0.2627 -0.8819
   47CHL1  H18C 5914   3.224   3.946   9.349 -0.3605  2.3106  1.4905
   47CHL1   C12 5915   3.528   4.066   9.474  0.3018 -0.1989 -0.2572
   47CHL1  H12A 5916   3.588   4.030   9.388 -0.1612  2.0916 -1.6133
   47CHL1  H12B 5917   3.566   4.168   9.496 -0.7624 -0.0804  1.1600
   47CHL1   C11 5918   3.543   3.978   9.603  0.3073 -0.1121  0.0714
   47CHL1  H11A 5919   3.523   3.873   9.572 -0.0850 -0.1187  0.3458
   47CHL1  H11B 5920   3.648   3.991   9.638  0.3627 -0.4553  0.0340
   47CHL1    C9 5921   3.443   4.020   9.719 -0.0333 -0.2552  0.4688
   47CHL1    H9 5922   3.482   4.114   9.764  0.2565  0.2366 -0.7499
   47CHL1   C10 5923   3.424   3.918   9.840  0.7925 -0.0543 -0.6717
   47CHL1   C19 5924   3.388   3.778   9.790  0.4707 -0.2050  0.3453
   47CHL1  H19A 5925   3.468   3.718   9.742 -1.0037 -1.2119 -0.9732
   47CHL1  H19B 5926   3.360   3.707   9.871  2.2897 -0.1828  1.0477
   47CHL1  H19C 5927   3.307   3.784   9.714  2.1672 -2.1980 -1.7911
   47CHL1    C1 5928   3.552   3.921   9.923 -0.7110  0.3831 -0.4263
   47CHL1   H1A 5929   3.641   3.885   9.867  0.1511  1.8348 -0.0340
   47CHL1   H1B 5930   3.587   4.025   9.937  0.9891 -0.1411 -0.4720
   47CHL1    C2 5931   3.554   3.854  10.067 -0.1376  0.7077 -1.1607
   47CHL1   H2A 5932   3.651   3.862  10.120 -0.4682  0.8002 -0.5546
   47CHL1   H2B 5933   3.534   3.746  10.050  0.9095  0.3353 -0.1322
   47CHL1   C20 5934   3.384   4.164   9.164 -0.0361  0.7029  1.1322
   47CHL1   H20 5935   3.337   4.067   9.136 -0.9938  1.0784  1.3917
   47CHL1   C21 5936   3.538   4.167   9.142  0.3401  0.2903  0.0666
   47CHL1  H21A 5937   3.583   4.089   9.207 -0.1207  1.1961  1.5234
   47CHL1  H21B 5938   3.587   4.266   9.154  2.9762 -0.8827 -0.1904
   47CHL1  H21C 5939   3.567   4.129   9.042 -1.7972  0.9742 -0.8674
   47CHL1   C22 5940   3.318   4.260   9.063  0.2785  0.6983  0.6690
   47CHL1  H22A 5941   3.216   4.216   9.056 -0.3055  2.2282 -1.1001
   47CHL1  H22B 5942   3.320   4.364   9.101  3.9616  1.1014 -0.2723
   47CHL1   C23 5943   3.368   4.264   8.914  0.5658  0.0196 -0.5406
   47CHL1  H23A 5944   3.463   4.320   8.929  1.3905 -1.7240  1.2571
   47CHL1  H23B 5945   3.374   4.158   8.884 -1.3662 -0.4000  0.3973
   47CHL1   C24 5946   3.284   4.346   8.817  0.1668 -0.1434  0.4561
   47CHL1  H24A 5947   3.177   4.315   8.813  0.2084 -0.3003  0.5396
   47CHL1  H24B 5948   3.281   4.448   8.861  0.2551  0.3717 -0.6966
   47CHL1   C25 5949   3.353   4.362   8.682  0.0667  0.2678 -0.1301
   47CHL1   H25 5950   3.406   4.270   8.649  2.0010  1.5835 -0.9156
   47CHL1   C26 5951   3.257   4.420   8.577  0.1953 -0.3922 -0.6753
   47CHL1  H26A 5952   3.217   4.517   8.613 -0.1788 -1.3632  1.6962
   47CHL1  H26B 5953   3.182   4.345   8.546  0.8652 -1.4336  0.1472
   47CHL1  H26C 5954   3.329   4.446   8.497  2.3652  0.6290  1.4592
   47CHL1   C27 5955   3.467   4.458   8.699  0.3575  0.4195 -0.1055
   47CHL1  H27A 5956   3.530   4.459   8.608  2.2087 -0.9930  1.0816
   47CHL1  H27B 5957   3.422   4.556   8.726 -1.2444 -0.4209  0.4133
   47CHL1  H27C 5958   3.535   4.428   8.782 -0.7733  0.5870  0.9003
   48CHL1    C3 5959   3.351   4.934  10.183  0.7140  0.0292 -0.6519
   48CHL1    H3 5960   3.352   5.044  10.196 -1.6822  0.1688 -1.0703
   48CHL1    O3 5961   3.349   4.870  10.312 -0.3600 -0.2141 -0.6256
   48CHL1   H3' 5962   3.281   4.911  10.366 -1.5957 -0.9406 -1.5987
   48CHL1    C4 5963   3.218   4.898  10.110 -0.0027 -0.4104 -0.2448
   48CHL1   H4A 5964   3.222   4.788  10.120 -1.8523 -0.3279  2.5835
   48CHL1   H4B 5965   3.135   4.931  10.176 -2.1317  1.7803 -3.6458
   48CHL1    C5 5966   3.207   4.958   9.974 -0.2399 -0.1309  0.1754
   48CHL1    C6 5967   3.109   5.037   9.937  0.3542  0.0804  0.4929
   48CHL1    H6 5968   3.021   5.058  10.001  1.9728  1.6024  2.3301
   48CHL1    C7 5969   3.101   5.106   9.800  0.0402  1.2370 -0.0104
   48CHL1   H7A 5970   2.999   5.081   9.762 -0.3049 -0.5009  1.8811
   48CHL1   H7B 5971   3.097   5.217   9.806  0.3462  1.2592 -0.2057
   48CHL1    C8 5972   3.205   5.051   9.700 -0.8491  0.2099 -0.4635
   48CHL1    H8 5973   3.171   4.947   9.680  1.8018 -1.7239  3.6715
   48CHL1   C14 5974   3.216   5.148   9.582  0.1493  0.4618 -0.0933
   48CHL1   H14 5975   3.264   5.235   9.632  1.6174 -0.8361  0.8791
   48CHL1   C15 5976   3.079   5.188   9.514  0.3511  0.5586 -0.0274
   48CHL1  H15A 5977   3.015   5.099   9.499 -2.9035  2.7459 -0.2780
   48CHL1  H15B 5978   3.027   5.257   9.584  1.8262  0.5102  1.1656
   48CHL1   C16 5979   3.119   5.246   9.375  0.4698  0.3062  0.2133
   48CHL1  H16A 5980   3.056   5.200   9.296  1.0227  1.7526 -1.1074
   48CHL1  H16B 5981   3.104   5.355   9.358 -1.2782  0.1602  0.6218
   48CHL1   C17 5982   3.273   5.217   9.369 -0.7542  0.5903  0.3729
   48CHL1   H17 5983   3.325   5.309   9.403  0.5751  0.9426 -2.2879
   48CHL1   C13 5984   3.300   5.102   9.469 -0.6126 -0.4276 -0.0700
   48CHL1   C18 5985   3.250   4.968   9.407  0.3724 -0.3393 -0.0571
   48CHL1  H18A 5986   3.156   4.977   9.348 -0.7163 -4.6937  0.6250
   48CHL1  H18B 5987   3.329   4.932   9.339 -1.7031 -0.7007 -2.4300
   48CHL1  H18C 5988   3.224   4.887   9.479 -3.6117 -0.5248 -1.4532
   48CHL1   C12 5989   3.439   5.094   9.542 -0.1925  0.2119  0.1035
   48CHL1  H12A 5990   3.519   5.070   9.469 -0.6786 -0.4151 -0.2414
   48CHL1  H12B 5991   3.467   5.199   9.563  1.4859 -0.0384 -0.6835
   48CHL1   C11 5992   3.454   5.014   9.662 -0.3725  0.3977 -0.3205
   48CHL1  H11A 5993   3.472   4.906   9.641  0.6607  0.1614  1.5420
   48CHL1  H11B 5994   3.553   5.025   9.711 -0.9101  0.3245  0.8062
   48CHL1    C9 5995   3.338   5.034   9.769  0.3461 -0.1126 -0.3270
   48CHL1    H9 5996   3.358   5.139   9.797 -1.0098  0.9479 -2.9343
   48CHL1   C10 5997   3.332   4.936   9.893 -0.0361  0.0155  0.3903
   48CHL1   C19 5998   3.329   4.788   9.846  1.0164  0.5705 -0.2284
   48CHL1  H19A 5999   3.340   4.716   9.930 -0.4002  0.7236  0.1141
   48CHL1  H19B 6000   3.231   4.754   9.805  1.5388 -1.3173  0.0117
   48CHL1  H19C 6001   3.392   4.776   9.756  0.8692 -1.0209 -0.1400
   48CHL1    C1 6002   3.468   4.962   9.976  0.3191  0.7306 -0.4618
   48CHL1   H1A 6003   3.559   4.931   9.921  0.1449 -0.3944 -0.1275
   48CHL1   H1B 6004   3.476   5.073   9.989 -1.0396  1.0243 -1.8292
   48CHL1    C2 6005   3.472   4.885  10.109  0.4504 -0.4687 -0.6979
   48CHL1   H2A 6006   3.567   4.912  10.159  1.0338 -1.8217 -1.0410
   48CHL1   H2B 6007   3.457   4.775  10.106 -1.4232 -0.3465  1.5944
   48CHL1   C20 6008   3.304   5.203   9.213  0.0675 -0.4194 -0.5036
   48CHL1   H20 6009   3.246   5.116   9.174  1.0441 -0.6509 -1.4764
   48CHL1   C21 6010   3.452   5.167   9.210 -0.6177 -0.4894 -0.3412
   48CHL1  H21A 6011   3.516   5.253   9.240  0.8361 -0.9130 -2.0488
   48CHL1  H21B 6012   3.479   5.140   9.106 -1.5116 -0.5480 -0.5645
   48CHL1  H21C 6013   3.487   5.079   9.270  1.9783  0.2102 -0.7163
   48CHL1   C22 6014   3.266   5.322   9.120 -0.1552 -0.0032  0.9073
   48CHL1  H22A 6015   3.303   5.286   9.022 -0.3091  0.2098  0.7716
   48CHL1  H22B 6016   3.156   5.313   9.113  0.0098 -1.9454  0.3814
   48CHL1   C23 6017   3.322   5.457   9.164 -0.4499 -0.1729  0.6654
   48CHL1  H23A 6018   3.278   5.499   9.256 -1.0551  1.2843 -0.2640
   48CHL1  H23B 6019   3.430   5.444   9.190 -0.8686 -1.6227  1.8450
   48CHL1   C24 6020   3.325   5.561   9.051  0.4713  0.2002 -0.0185
   48CHL1  H24A 6021   3.375   5.649   9.097  2.8624 -1.2511  0.2999
   48CHL1  H24B 6022   3.388   5.530   8.965 -1.1051 -0.0090 -1.1411
   48CHL1   C25 6023   3.186   5.588   8.998  0.0167 -0.5954 -0.6111
   48CHL1   H25 6024   3.138   5.489   8.988  0.8460 -0.9512 -1.1112
   48CHL1   C26 6025   3.107   5.665   9.101 -0.1724 -1.1343 -0.2944
   48CHL1  H26A 6026   3.169   5.753   9.128 -1.2510 -0.3474 -0.3267
   48CHL1  H26B 6027   3.006   5.690   9.062  0.3125 -1.6308 -1.9322
   48CHL1  H26C 6028   3.084   5.611   9.196  1.4142  0.0568  0.8267
   48CHL1   C27 6029   3.192   5.656   8.860  0.6390  0.5780 -0.2951
   48CHL1  H27A 6030   3.083   5.654   8.839  0.2374 -0.8675  1.6134
   48CHL1  H27B 6031   3.227   5.762   8.864 -2.8104  1.8036  1.3733
   48CHL1  H27C 6032   3.233   5.588   8.783 -0.1993 -0.8834  0.5031
   49CHL1    C3 6033   1.495   6.822  10.079  0.1697 -0.0005  0.3619
   49CHL1    H3 6034   1.598   6.821  10.036  0.5096 -0.0542  1.1508
   49CHL1    O3 6035   1.498   6.854  10.218  0.1475 -0.6290 -0.6161
   49CHL1   H3' 6036   1.576   6.908  10.232 -0.1505 -0.4697  0.5135
   49CHL1    C4 6037   1.416   6.932  10.005 -0.0880 -0.4926  0.0278
   49CHL1   H4A 6038   1.318   6.936  10.057 -0.6900 -0.2086 -1.0999
   49CHL1   H4B 6039   1.472   7.027  10.018  1.1714 -1.3107  0.7542
   49CHL1    C5 6040   1.399   6.894   9.854 -0.1110 -0.7418  0.4110
   49CHL1    C6 6041   1.441   6.977   9.755  0.9381  0.8044  0.5035
   49CHL1    H6 6042   1.489   7.073   9.780  0.2440  1.6745 -1.2524
   49CHL1    C7 6043   1.426   6.954   9.607  0.3846  0.4290  0.5168
   49CHL1   H7A 6044   1.386   7.049   9.563  1.8561  1.3564  1.1162
   49CHL1   H7B 6045   1.530   6.944   9.568  1.5990  2.0322  3.0856
   49CHL1    C8 6046   1.345   6.820   9.579 -0.2403 -0.4185 -0.6285
   49CHL1    H8 6047   1.240   6.852   9.593  0.1991  0.5505  0.6887
   49CHL1   C14 6048   1.358   6.769   9.438  0.1413  0.3525 -1.2276
   49CHL1   H14 6049   1.463   6.735   9.433  0.0554 -0.5339  1.6096
   49CHL1   C15 6050   1.351   6.870   9.316 -0.5100  0.0528 -0.0054
   49CHL1  H15A 6051   1.277   6.953   9.320 -2.4027 -1.5955  0.2543
   49CHL1  H15B 6052   1.449   6.923   9.318 -0.4753 -0.0114  1.9073
   49CHL1   C16 6053   1.308   6.781   9.198 -0.3774  0.2625  0.7056
   49CHL1  H16A 6054   1.210   6.813   9.156  1.3021  0.1933 -3.7985
   49CHL1  H16B 6055   1.382   6.802   9.118 -0.4009  0.8603  0.8312
   49CHL1   C17 6056   1.304   6.633   9.250  0.0912 -0.1611  1.1289
   49CHL1   H17 6057   1.406   6.590   9.239 -0.4107 -0.9768 -0.7610
   49CHL1   C13 6058   1.270   6.651   9.401  0.7819 -0.1013  0.0945
   49CHL1   C18 6059   1.119   6.690   9.410 -0.2603 -0.2838  0.5999
   49CHL1  H18A 6060   1.061   6.595   9.413 -2.8541  1.2332  1.1025
   49CHL1  H18B 6061   1.090   6.741   9.504  0.0338  0.8483  0.0932
   49CHL1  H18C 6062   1.102   6.745   9.315  4.0807 -2.3502 -1.6855
   49CHL1   C12 6063   1.297   6.532   9.499  0.0655  0.3239 -0.3882
   49CHL1  H12A 6064   1.232   6.444   9.483 -0.9873  1.2131 -1.1219
   49CHL1  H12B 6065   1.404   6.500   9.494  0.1095  0.3089  0.4411
   49CHL1   C11 6066   1.276   6.585   9.642 -1.0168  0.3012 -0.1978
   49CHL1  H11A 6067   1.170   6.612   9.659 -0.4182  1.8277  1.4024
   49CHL1  H11B 6068   1.301   6.511   9.720 -2.2639  2.6997  2.6628
   49CHL1    C9 6069   1.362   6.708   9.679 -0.0920  0.3110 -0.2572
   49CHL1    H9 6070   1.470   6.685   9.670 -0.5982 -1.7649 -1.8379
   49CHL1   C10 6071   1.337   6.755   9.826  0.7871 -0.4018 -0.3946
   49CHL1   C19 6072   1.183   6.755   9.865  0.8573 -0.1084  0.1977
   49CHL1  H19A 6073   1.156   6.787   9.968 -0.6765  1.3714 -0.6191
   49CHL1  H19B 6074   1.127   6.808   9.785  0.4657 -1.3787 -0.4041
   49CHL1  H19C 6075   1.157   6.648   9.851 -0.0808  0.3228 -1.7981
   49CHL1    C1 6076   1.424   6.660   9.910  0.1700 -0.4627  0.2922
   49CHL1   H1A 6077   1.386   6.556   9.905  0.2215 -0.6236  2.3004
   49CHL1   H1B 6078   1.524   6.661   9.864 -0.1287  0.9927 -0.3864
   49CHL1    C2 6079   1.436   6.687  10.060  0.1704  0.6140 -0.0576
   49CHL1   H2A 6080   1.504   6.609  10.098  0.6707 -0.6775 -3.3170
   49CHL1   H2B 6081   1.337   6.678  10.109  0.3200  1.5182  0.4392
   49CHL1   C20 6082   1.218   6.546   9.150 -0.0760 -0.6245 -0.3570
   49CHL1   H20 6083   1.112   6.579   9.159 -0.3071 -0.9149 -1.8487
   49CHL1   C21 6084   1.243   6.401   9.191 -0.6836 -0.4880  0.6583
   49CHL1  H21A 6085   1.207   6.380   9.294 -0.2925  0.7277  1.0568
   49CHL1  H21B 6086   1.350   6.373   9.177 -1.0329 -1.8339  0.5575
   49CHL1  H21C 6087   1.182   6.335   9.126 -3.2603 -0.7701  3.1658
   49CHL1   C22 6088   1.239   6.565   8.997 -0.4104 -0.2190  0.4106
   49CHL1  H22A 6089   1.175   6.495   8.939 -2.5568  0.8421  1.3590
   49CHL1  H22B 6090   1.201   6.664   8.965  0.6207 -0.4048 -1.4927
   49CHL1   C23 6091   1.385   6.550   8.943  0.0108 -0.2018 -0.8001
   49CHL1  H23A 6092   1.444   6.631   8.991 -2.0479  0.4402  0.8139
   49CHL1  H23B 6093   1.410   6.448   8.977 -1.1623 -0.8391 -1.7710
   49CHL1   C24 6094   1.406   6.555   8.790  0.0785 -0.2825 -0.5007
   49CHL1  H24A 6095   1.328   6.487   8.751 -0.2582  0.1760 -0.6330
   49CHL1  H24B 6096   1.377   6.661   8.773 -1.5986  0.1026  3.4786
   49CHL1   C25 6097   1.544   6.528   8.731  0.0903  0.2557  0.1901
   49CHL1   H25 6098   1.588   6.455   8.801  0.8299  2.4279  2.1349
   49CHL1   C26 6099   1.541   6.461   8.591 -0.4244 -0.0667  0.1500
   49CHL1  H26A 6100   1.478   6.370   8.583  0.7932 -0.8316 -1.5729
   49CHL1  H26B 6101   1.500   6.533   8.517  0.4939 -0.4305 -0.7420
   49CHL1  H26C 6102   1.646   6.440   8.560 -0.9161 -0.1565 -1.5452
   49CHL1   C27 6103   1.646   6.643   8.742  0.3237 -0.1482 -0.9047
   49CHL1  H27A 6104   1.599   6.737   8.707 -0.6521 -0.4175 -0.3652
   49CHL1  H27B 6105   1.673   6.662   8.848 -1.6579 -1.4425 -0.1041
   49CHL1  H27C 6106   1.739   6.618   8.687  0.2994 -0.3653 -0.8485
   50CHL1    C3 6107   3.628   0.793  10.075 -0.1427 -1.0455 -0.2184
   50CHL1    H3 6108   3.697   0.735  10.011 -0.6077 -0.4060 -1.3162
   50CHL1    O3 6109   3.676   0.791  10.214 -0.4800  0.3085 -0.1685
   50CHL1   H3' 6110   3.772   0.788  10.207 -0.5146  0.5094 -0.7979
   50CHL1    C4 6111   3.642   0.938  10.026 -0.3206 -0.4465 -0.0415
   50CHL1   H4A 6112   3.567   0.999  10.081  0.4365 -0.0202  0.5483
   50CHL1   H4B 6113   3.743   0.980  10.045 -0.9621  1.3443 -0.4136
   50CHL1    C5 6114   3.594   0.944   9.876 -0.5271 -0.0273 -0.6878
   50CHL1    C6 6115   3.666   1.005   9.782 -0.8356 -0.2746 -0.0576
   50CHL1    H6 6116   3.760   1.056   9.808  0.9972 -2.2645 -2.2998
   50CHL1    C7 6117   3.630   1.019   9.642  0.1452 -0.3363  0.5523
   50CHL1   H7A 6118   3.633   1.122   9.601 -1.0234 -1.9456 -4.1947
   50CHL1   H7B 6119   3.701   0.961   9.581  1.7291  1.1575  0.9016
   50CHL1    C8 6120   3.486   0.968   9.601 -0.0415 -0.7635 -0.1321
   50CHL1    H8 6121   3.419   1.056   9.611  0.8544  0.4336 -3.4332
   50CHL1   C14 6122   3.485   0.931   9.452  0.1914  0.0545  1.0786
   50CHL1   H14 6123   3.534   0.832   9.441 -1.0672 -0.5920  1.0060
   50CHL1   C15 6124   3.547   1.013   9.340 -0.3743 -0.1456 -0.2844
   50CHL1  H15A 6125   3.547   1.123   9.357 -1.3539 -0.4255  1.7371
   50CHL1  H15B 6126   3.652   0.976   9.336 -0.4637 -0.4380  0.1202
   50CHL1   C16 6127   3.462   0.971   9.211  0.5991  0.6235  0.8621
   50CHL1  H16A 6128   3.426   1.067   9.166 -0.4001 -0.3279 -0.4391
   50CHL1  H16B 6129   3.535   0.921   9.144  2.5530 -0.0083  3.2900
   50CHL1   C17 6130   3.342   0.877   9.266 -0.5440 -0.3227 -0.1273
   50CHL1   H17 6131   3.383   0.774   9.275  1.3137  0.4810  1.5526
   50CHL1   C13 6132   3.335   0.910   9.413 -0.2234 -0.1059 -1.0632
   50CHL1   C18 6133   3.252   1.048   9.413 -0.1621  0.1983 -0.0580
   50CHL1  H18A 6134   3.284   1.114   9.330  0.7779 -1.1030 -0.7805
   50CHL1  H18B 6135   3.142   1.032   9.407 -0.0067 -1.0563  0.1581
   50CHL1  H18C 6136   3.282   1.111   9.499  0.1146  0.7658 -0.5665
   50CHL1   C12 6137   3.267   0.813   9.508  0.4475 -0.1064 -0.5666
   50CHL1  H12A 6138   3.158   0.814   9.487  0.4725  1.0752 -0.7503
   50CHL1  H12B 6139   3.307   0.712   9.486 -1.7665 -1.1275 -0.2615
   50CHL1   C11 6140   3.282   0.837   9.658 -0.1735 -0.3089  0.1878
   50CHL1  H11A 6141   3.225   0.929   9.684 -1.4425 -1.0084 -0.0331
   50CHL1  H11B 6142   3.237   0.749   9.709 -0.5931 -0.7501 -0.9169
   50CHL1    C9 6143   3.429   0.855   9.691  0.2050 -0.1214  0.3823
   50CHL1    H9 6144   3.471   0.762   9.649 -0.0473  0.5350 -1.4262
   50CHL1   C10 6145   3.457   0.873   9.843 -0.1690 -0.6141  0.1903
   50CHL1   C19 6146   3.351   0.976   9.895 -0.4216  0.3989  0.3615
   50CHL1  H19A 6147   3.350   1.075   9.845  1.0500  0.5824  0.6518
   50CHL1  H19B 6148   3.249   0.934   9.885  0.0451 -1.3478  2.3178
   50CHL1  H19C 6149   3.366   0.994  10.004  0.0368 -0.6971  0.4878
   50CHL1    C1 6150   3.446   0.738   9.916  0.4883 -0.7746 -0.4364
   50CHL1   H1A 6151   3.340   0.705   9.909  0.3781 -0.1582 -2.8739
   50CHL1   H1B 6152   3.493   0.651   9.866 -1.4652 -2.1586  0.0132
   50CHL1    C2 6153   3.489   0.738  10.063 -0.0587  0.4704 -0.1210
   50CHL1   H2A 6154   3.492   0.634  10.102  1.1011  1.1042  1.5668
   50CHL1   H2B 6155   3.433   0.805  10.131  1.4475  1.4684  0.1682
   50CHL1   C20 6156   3.227   0.879   9.172  0.1496 -0.8182 -0.0717
   50CHL1   H20 6157   3.176   0.978   9.174 -0.7079 -1.0713 -3.2886
   50CHL1   C21 6158   3.124   0.770   9.202  0.1259  0.3069 -0.7908
   50CHL1  H21A 6159   3.075   0.799   9.297 -0.5044  0.6520 -1.2118
   50CHL1  H21B 6160   3.182   0.675   9.210  2.1319  1.5076 -0.4624
   50CHL1  H21C 6161   3.031   0.765   9.141  0.1282 -0.2856 -0.7561
   50CHL1   C22 6162   3.280   0.859   9.020  0.3246 -0.5206  0.4420
   50CHL1  H22A 6163   3.333   0.954   8.997 -1.8946  0.2075 -2.3218
   50CHL1  H22B 6164   3.340   0.766   9.027 -0.1397 -0.8431  0.2433
   50CHL1   C23 6165   3.172   0.849   8.914 -0.5983  0.6701 -0.1704
   50CHL1  H23A 6166   3.118   0.753   8.920  0.6638 -0.0611  5.3762
   50CHL1  H23B 6167   3.103   0.932   8.943 -0.2493  0.4009  1.5196
   50CHL1   C24 6168   3.234   0.864   8.771 -0.0863 -0.7685 -0.0501
   50CHL1  H24A 6169   3.299   0.954   8.760  0.1596 -1.0331 -0.8461
   50CHL1  H24B 6170   3.303   0.778   8.768  1.8959  0.7460 -0.0971
   50CHL1   C25 6171   3.134   0.860   8.659  0.4022  0.2853 -0.4791
   50CHL1   H25 6172   3.105   0.754   8.641  1.5443 -0.2290  0.5966
   50CHL1   C26 6173   3.021   0.960   8.685 -0.1859  0.2396  0.3890
   50CHL1  H26A 6174   2.974   0.979   8.587  1.3024 -1.9412 -0.8338
   50CHL1  H26B 6175   2.942   0.923   8.753  1.6018 -0.6424  2.1106
   50CHL1  H26C 6176   3.066   1.046   8.739  1.4965  0.8413 -1.8286
   50CHL1   C27 6177   3.209   0.909   8.528  0.4498  0.5946  0.7354
   50CHL1  H27A 6178   3.137   0.917   8.444  0.0965  2.1801  1.1473
   50CHL1  H27B 6179   3.243   1.015   8.534  1.5288  0.3739 -0.8723
   50CHL1  H27C 6180   3.294   0.842   8.505 -1.0084 -1.1229  0.0940
   51CHL1    C3 6181   1.815   3.334  10.146  0.0846 -0.2250 -0.3954
   51CHL1    H3 6182   1.757   3.429  10.148 -0.4030 -0.5364  0.7794
   51CHL1    O3 6183   1.871   3.304  10.276  0.5170  0.0425  0.8892
   51CHL1   H3' 6184   1.802   3.326  10.339 -1.2349 -0.7263 -0.6748
   51CHL1    C4 6185   1.724   3.220  10.104 -0.5589  0.6400 -0.0329
   51CHL1   H4A 6186   1.773   3.122  10.126  0.6895  0.4290 -3.1711
   51CHL1   H4B 6187   1.637   3.222  10.173 -0.6612 -0.0110 -0.1307
   51CHL1    C5 6188   1.690   3.230   9.956  0.3526 -0.3155 -0.2594
   51CHL1    C6 6189   1.559   3.220   9.920  0.3106  0.4737  0.1818
   51CHL1    H6 6190   1.493   3.191  10.003  0.4399 -3.2225 -0.8696
   51CHL1    C7 6191   1.518   3.241   9.773  0.3175  0.8781  0.0138
   51CHL1   H7A 6192   1.425   3.182   9.758  1.4173 -1.7833  2.6322
   51CHL1   H7B 6193   1.485   3.347   9.771  2.3978  1.5863  0.4322
   51CHL1    C8 6194   1.633   3.208   9.673  0.2063  0.5569 -0.0948
   51CHL1    H8 6195   1.657   3.099   9.671 -0.0838  0.4743  0.5536
   51CHL1   C14 6196   1.591   3.250   9.537  0.0517 -0.5098  0.2963
   51CHL1   H14 6197   1.575   3.360   9.534 -1.7763 -0.7504 -0.5540
   51CHL1   C15 6198   1.457   3.192   9.484  0.2650  0.2876 -0.6457
   51CHL1  H15A 6199   1.452   3.087   9.521  1.3831  0.2814 -0.4660
   51CHL1  H15B 6200   1.379   3.259   9.525 -0.6983 -2.6499  2.8091
   51CHL1   C16 6201   1.479   3.202   9.330  0.3328  0.1195 -0.2862
   51CHL1  H16A 6202   1.477   3.100   9.284 -1.9250  0.1955 -0.4612
   51CHL1  H16B 6203   1.400   3.255   9.274  0.9656  0.2616 -1.0722
   51CHL1   C17 6204   1.614   3.281   9.305  0.4264  0.4561 -0.7784
   51CHL1   H17 6205   1.588   3.388   9.317  1.1430  0.4599  1.1100
   51CHL1   C13 6206   1.697   3.237   9.429 -0.0213 -0.7264 -0.0459
   51CHL1   C18 6207   1.754   3.088   9.418  0.3096 -0.5134  0.2772
   51CHL1  H18A 6208   1.835   3.094   9.343 -0.1514 -0.0219 -0.1901
   51CHL1  H18B 6209   1.801   3.050   9.512  1.4246 -0.6016 -0.3039
   51CHL1  H18C 6210   1.669   3.025   9.384 -1.4432  1.1211  1.3438
   51CHL1   C12 6211   1.800   3.338   9.468 -0.4438  0.0137  0.4392
   51CHL1  H12A 6212   1.870   3.328   9.383 -1.5893 -0.2938 -0.4906
   51CHL1  H12B 6213   1.770   3.445   9.465  2.8136  1.0381 -0.4319
   51CHL1   C11 6214   1.863   3.308   9.600  0.3330 -0.0480  0.4821
   51CHL1  H11A 6215   1.925   3.216   9.591  1.5701  0.4956  2.6942
   51CHL1  H11B 6216   1.931   3.390   9.631 -0.0616  1.2950 -1.9903
   51CHL1    C9 6217   1.755   3.285   9.711  0.3306  0.2580 -0.7824
   51CHL1    H9 6218   1.723   3.390   9.724 -1.9863 -0.4773  0.0301
   51CHL1   C10 6219   1.804   3.250   9.857 -0.4827  0.3635 -0.0276
   51CHL1   C19 6220   1.897   3.125   9.850  0.1854 -1.0894  0.6929
   51CHL1  H19A 6221   1.936   3.090   9.948  0.9362  0.2211  0.8779
   51CHL1  H19B 6222   1.842   3.046   9.793  3.1548 -0.7235 -3.0172
   51CHL1  H19C 6223   1.985   3.152   9.789 -0.4346 -2.0424 -0.6785
   51CHL1    C1 6224   1.896   3.363   9.915 -0.4817  0.6733 -0.7195
   51CHL1   H1A 6225   1.997   3.359   9.870 -1.3782  0.1011 -2.8109
   51CHL1   H1B 6226   1.853   3.464   9.898 -0.8394  0.7959  0.8078
   51CHL1    C2 6227   1.939   3.344  10.062  0.8558 -0.1645 -0.0039
   51CHL1   H2A 6228   2.006   3.428  10.091  0.2363 -0.6925  3.4102
   51CHL1   H2B 6229   2.004   3.254  10.070 -1.7103 -2.3220 -1.8119
   51CHL1   C20 6230   1.681   3.263   9.169 -0.4953  0.3404  0.2220
   51CHL1   H20 6231   1.752   3.178   9.178  0.9097  1.5860  1.8998
   51CHL1   C21 6232   1.760   3.389   9.133 -0.2597 -0.6878  1.1447
   51CHL1  H21A 6233   1.829   3.389   9.046  1.0683  0.5133  2.1420
   51CHL1  H21B 6234   1.825   3.430   9.214  0.4038 -0.8968  0.7212
   51CHL1  H21C 6235   1.686   3.472   9.122 -1.1169 -1.4515  1.0290
   51CHL1   C22 6236   1.594   3.225   9.052  0.6235 -0.1333  0.5375
   51CHL1  H22A 6237   1.563   3.120   9.071  0.6349 -0.6508 -1.9664
   51CHL1  H22B 6238   1.501   3.285   9.051  0.5539 -0.2435  0.3642
   51CHL1   C23 6239   1.646   3.228   8.906  0.3755  0.1562 -0.7272
   51CHL1  H23A 6240   1.668   3.331   8.872 -0.3823  0.7704  0.5534
   51CHL1  H23B 6241   1.742   3.174   8.912  0.2949 -0.2142 -2.4669
   51CHL1   C24 6242   1.548   3.167   8.806 -0.5342 -0.4601  0.0817
   51CHL1  H24A 6243   1.511   3.073   8.851  1.5398 -1.4672 -0.2167
   51CHL1  H24B 6244   1.469   3.243   8.787 -2.3144 -2.0402  0.8135
   51CHL1   C25 6245   1.612   3.138   8.666  0.4242  0.0172  0.4082
   51CHL1   H25 6246   1.696   3.067   8.679  0.3050  0.1576  2.2300
   51CHL1   C26 6247   1.519   3.074   8.566  0.9977 -0.5824  0.2856
   51CHL1  H26A 6248   1.565   3.045   8.470 -2.1056  1.9186 -2.1542
   51CHL1  H26B 6249   1.482   2.978   8.610  1.1705 -0.3896  0.8669
   51CHL1  H26C 6250   1.428   3.134   8.548  0.9454 -0.6190  0.4209
   51CHL1   C27 6251   1.668   3.268   8.598 -0.1247 -0.2332 -0.0001
   51CHL1  H27A 6252   1.687   3.247   8.490 -1.5689 -1.0569 -0.1263
   51CHL1  H27B 6253   1.587   3.343   8.592 -2.6904 -2.8732 -0.9661
   51CHL1  H27C 6254   1.764   3.300   8.644 -0.2407 -1.0041  0.7919
   52CHL1    C3 6255   3.441   3.230   9.719  0.1405  0.3748  0.8132
   52CHL1    H3 6256   3.523   3.178   9.664 -0.8575 -0.9045  0.4625
   52CHL1    O3 6257   3.461   3.204   9.855 -0.1297  0.0520  0.2409
   52CHL1   H3' 6258   3.385   3.233   9.907  0.0697 -2.5196  2.1148
   52CHL1    C4 6259   3.436   3.383   9.703 -0.9132  0.0600 -0.1982
   52CHL1   H4A 6260   3.346   3.417   9.759 -0.9089 -0.2848  0.0230
   52CHL1   H4B 6261   3.531   3.421   9.748  0.2636 -2.2941 -0.5301
   52CHL1    C5 6262   3.413   3.404   9.552  0.6062  0.2491  0.6012
   52CHL1    C6 6263   3.503   3.463   9.471 -0.1263 -0.0570 -0.4687
   52CHL1    H6 6264   3.590   3.513   9.515  0.0986 -0.8202 -0.0366
   52CHL1    C7 6265   3.484   3.485   9.318 -0.2078 -0.5023  0.1624
   52CHL1   H7A 6266   3.505   3.593   9.304 -0.8797 -0.4295 -0.3449
   52CHL1   H7B 6267   3.553   3.415   9.266 -1.2037 -0.7798 -0.8226
   52CHL1    C8 6268   3.340   3.473   9.276  0.3104 -0.1449  0.4614
   52CHL1    H8 6269   3.285   3.562   9.312 -1.9964 -1.7792  1.1294
   52CHL1   C14 6270   3.343   3.470   9.120  0.1426 -0.4821 -0.1017
   52CHL1   H14 6271   3.401   3.377   9.101  0.5817 -0.1956 -0.1838
   52CHL1   C15 6272   3.406   3.580   9.039  0.2053  0.0910 -0.1104
   52CHL1  H15A 6273   3.369   3.678   9.075  1.8025  1.3019 -1.6465
   52CHL1  H15B 6274   3.517   3.579   9.038  0.2157 -0.0440  0.7842
   52CHL1   C16 6275   3.356   3.555   8.899  0.8275  0.1522 -0.1067
   52CHL1  H16A 6276   3.331   3.658   8.866  0.5078  0.2353  0.3844
   52CHL1  H16B 6277   3.434   3.515   8.830  1.0358  1.3484 -0.5948
   52CHL1   C17 6278   3.242   3.447   8.911 -0.6951 -0.2826  0.6782
   52CHL1   H17 6279   3.299   3.352   8.908 -0.6017 -0.3112  2.3419
   52CHL1   C13 6280   3.202   3.451   9.058  0.3379 -0.1943 -0.7641
   52CHL1   C18 6281   3.112   3.575   9.094 -0.6257 -0.0749  0.1204
   52CHL1  H18A 6282   3.015   3.569   9.041  0.4474 -1.4595 -1.7953
   52CHL1  H18B 6283   3.099   3.585   9.204 -0.0514  0.0355  0.1788
   52CHL1  H18C 6284   3.163   3.665   9.052 -0.5739 -0.1189  0.0894
   52CHL1   C12 6285   3.144   3.320   9.119 -0.4706  0.2910 -0.8707
   52CHL1  H12A 6286   3.037   3.307   9.091 -0.1584 -0.3207 -1.8182
   52CHL1  H12B 6287   3.206   3.228   9.105  0.4868  0.6482  0.7651
   52CHL1   C11 6288   3.137   3.330   9.273  0.7615  0.0128 -0.1747
   52CHL1  H11A 6289   3.077   3.415   9.312  0.8337  1.4018 -2.8664
   52CHL1  H11B 6290   3.092   3.230   9.294 -0.1898  0.1306 -1.5767
   52CHL1    C9 6291   3.276   3.351   9.338 -0.1037 -0.4728 -0.6453
   52CHL1    H9 6292   3.341   3.269   9.299 -0.3108 -0.2017 -1.5900
   52CHL1   C10 6293   3.285   3.346   9.493 -0.3951  1.2078  0.0347
   52CHL1   C19 6294   3.174   3.432   9.551  0.2002 -0.1692 -0.0488
   52CHL1  H19A 6295   3.165   3.412   9.660  0.8937  0.6595  0.1735
   52CHL1  H19B 6296   3.191   3.540   9.530 -0.0437  0.0107  0.6291
   52CHL1  H19C 6297   3.072   3.409   9.513  0.0896  0.9483 -0.4855
   52CHL1    C1 6298   3.272   3.193   9.532  0.2599 -0.1106  0.5039
   52CHL1   H1A 6299   3.173   3.150   9.505  0.4153 -1.8869  2.4639
   52CHL1   H1B 6300   3.347   3.135   9.475 -0.3089 -0.5722  0.2207
   52CHL1    C2 6301   3.304   3.162   9.678 -0.9351  0.1588  0.7551
   52CHL1   H2A 6302   3.312   3.052   9.684 -0.1671  0.2499  1.6095
   52CHL1   H2B 6303   3.226   3.209   9.742 -0.5734 -0.1635  1.4473
   52CHL1   C20 6304   3.145   3.460   8.792  0.6986 -0.3123 -0.0793
   52CHL1   H20 6305   3.104   3.563   8.804  0.4366 -0.5966  1.9261
   52CHL1   C21 6306   3.016   3.375   8.812 -0.7246 -0.4644 -0.1419
   52CHL1  H21A 6307   3.035   3.266   8.807 -0.8103 -0.5343  0.9644
   52CHL1  H21B 6308   2.945   3.397   8.729 -0.9688 -0.5021  0.0599
   52CHL1  H21C 6309   2.984   3.408   8.913  0.5286  2.0394 -0.4746
   52CHL1   C22 6310   3.211   3.439   8.656 -0.7016  0.2295  0.3346
   52CHL1  H22A 6311   3.144   3.442   8.568  0.4050 -0.5684 -0.5632
   52CHL1  H22B 6312   3.275   3.530   8.654 -2.0905  1.2310 -0.9023
   52CHL1   C23 6313   3.293   3.318   8.644 -0.9498  0.4942 -0.2901
   52CHL1  H23A 6314   3.377   3.324   8.717  0.8870  0.3743 -2.3079
   52CHL1  H23B 6315   3.249   3.219   8.670 -0.3022  0.4712  0.8053
   52CHL1   C24 6316   3.357   3.308   8.505 -0.2298 -0.5682 -0.3427
   52CHL1  H24A 6317   3.292   3.266   8.426  1.4538  0.7725 -2.5450
   52CHL1  H24B 6318   3.382   3.411   8.472  0.3435 -0.1159  1.4001
   52CHL1   C25 6319   3.486   3.228   8.496  0.6892 -0.3108  0.6833
   52CHL1   H25 6320   3.569   3.287   8.541  2.1651 -1.1535 -0.7752
   52CHL1   C26 6321   3.479   3.087   8.566  1.2024  0.3208  0.1284
   52CHL1  H26A 6322   3.564   3.018   8.546 -0.4016 -1.2989 -1.5229
   52CHL1  H26B 6323   3.472   3.106   8.675  0.5785 -0.7422  0.2869
   52CHL1  H26C 6324   3.387   3.038   8.527  1.3803  0.3793 -0.3807
   52CHL1   C27 6325   3.521   3.205   8.346  0.1063 -0.1758  0.2304
   52CHL1  H27A 6326   3.623   3.162   8.342  0.5281  0.7529  0.6636
   52CHL1  H27B 6327   3.444   3.132   8.313 -1.7239  1.3293  0.9848
   52CHL1  H27C 6328   3.520   3.290   8.274 -1.7259 -0.8933 -0.6685
   53CHL1    C3 6329   4.409   3.462  10.125 -0.2512 -0.7210 -0.0423
   53CHL1    H3 6330   4.354   3.370  10.156 -3.2373  1.4631  1.6236
   53CHL1    O3 6331   4.419   3.549  10.237  0.6512  0.1288  0.4193
   53CHL1   H3' 6332   4.476   3.622  10.211 -0.5163  0.9741  0.1334
   53CHL1    C4 6333   4.557   3.426  10.072 -0.0041  0.0639 -0.3415
   53CHL1   H4A 6334   4.621   3.514  10.050  0.4643  0.0684  0.9676
   53CHL1   H4B 6335   4.595   3.387  10.169 -1.9554  3.0639  1.8155
   53CHL1    C5 6336   4.570   3.339   9.949  0.0387 -0.3968 -0.5063
   53CHL1    C6 6337   4.634   3.224   9.948  0.5665  0.5494  0.2230
   53CHL1    H6 6338   4.675   3.193  10.045  0.1929 -4.9379 -1.0726
   53CHL1    C7 6339   4.631   3.121   9.833  0.3679  0.2319  0.1519
   53CHL1   H7A 6340   4.731   3.075   9.813 -0.0240 -0.5905  0.0143
   53CHL1   H7B 6341   4.557   3.040   9.853 -0.0195 -1.2171 -5.4952
   53CHL1    C8 6342   4.572   3.190   9.707  0.4743  0.4670  0.0577
   53CHL1    H8 6343   4.652   3.263   9.679  0.9349 -0.0377  0.0298
   53CHL1   C14 6344   4.543   3.085   9.602 -0.3090 -0.0614 -0.4287
   53CHL1   H14 6345   4.464   3.016   9.637 -0.9467  0.5508 -0.6371
   53CHL1   C15 6346   4.647   2.984   9.570 -0.1104 -0.4126  0.4289
   53CHL1  H15A 6347   4.737   3.043   9.544 -1.6513  1.5427 -0.7520
   53CHL1  H15B 6348   4.668   2.903   9.643 -1.3529 -1.4886 -0.3597
   53CHL1   C16 6349   4.596   2.927   9.434  0.0075  0.1726 -0.8906
   53CHL1  H16A 6350   4.686   2.920   9.370  1.0861 -2.9333  0.7513
   53CHL1  H16B 6351   4.558   2.823   9.440  0.5528  0.0060 -0.0699
   53CHL1   C17 6352   4.490   3.023   9.382  0.2079  0.4282 -0.2227
   53CHL1   H17 6353   4.394   2.977   9.411 -0.7193  2.2604 -0.2480
   53CHL1   C13 6354   4.490   3.142   9.472  0.1834  0.3963  0.2087
   53CHL1   C18 6355   4.588   3.242   9.414 -0.3073  0.7946 -0.5990
   53CHL1  H18A 6356   4.688   3.197   9.397 -1.4969 -1.9541 -0.8032
   53CHL1  H18B 6357   4.552   3.279   9.316  1.3538 -0.1194 -1.5871
   53CHL1  H18C 6358   4.604   3.329   9.482 -0.0082 -0.7017  1.3588
   53CHL1   C12 6359   4.351   3.208   9.498 -0.0468 -0.3094 -1.1357
   53CHL1  H12A 6360   4.301   3.249   9.407  0.1644 -2.7337 -2.4222
   53CHL1  H12B 6361   4.280   3.130   9.533 -2.6446  1.8963 -1.1287
   53CHL1   C11 6362   4.363   3.312   9.608  0.5705 -0.1308 -0.0217
   53CHL1  H11A 6363   4.423   3.391   9.558 -1.1026  2.3093  1.5474
   53CHL1  H11B 6364   4.261   3.353   9.630  1.4715  0.8352  2.8170
   53CHL1    C9 6365   4.444   3.269   9.738  0.3795 -0.6567  0.3118
   53CHL1    H9 6366   4.378   3.199   9.792 -3.3612  0.5836 -2.2562
   53CHL1   C10 6367   4.470   3.388   9.838 -0.3811 -0.1892 -0.5650
   53CHL1   C19 6368   4.534   3.498   9.754  0.1050 -0.5815 -0.0304
   53CHL1  H19A 6369   4.623   3.468   9.694 -0.2286  0.1729 -0.9293
   53CHL1  H19B 6370   4.466   3.543   9.678  1.0813 -2.6660 -2.2883
   53CHL1  H19C 6371   4.568   3.582   9.819  1.0065 -1.6369  0.9011
   53CHL1    C1 6372   4.335   3.438   9.886 -0.3141 -0.0132 -0.0017
   53CHL1   H1A 6373   4.282   3.486   9.801 -1.5681  0.2788  0.9254
   53CHL1   H1B 6374   4.270   3.352   9.914 -0.7361  0.4664  0.5120
   53CHL1    C2 6375   4.338   3.526  10.013  0.5022  0.0822 -0.4697
   53CHL1   H2A 6376   4.231   3.548  10.032  0.9001  2.2276 -0.4368
   53CHL1   H2B 6377   4.383   3.624   9.986  0.8366 -0.0797 -0.5080
   53CHL1   C20 6378   4.479   3.031   9.228 -0.3740  0.3426  0.2280
   53CHL1   H20 6379   4.403   3.107   9.201 -2.7942 -2.2309 -0.7085
   53CHL1   C21 6380   4.421   2.892   9.183  0.3237 -0.2403  0.7079
   53CHL1  H21A 6381   4.317   2.885   9.222  0.6227  2.2297  2.1124
   53CHL1  H21B 6382   4.466   2.799   9.223 -3.9966 -2.3381  1.3209
   53CHL1  H21C 6383   4.402   2.895   9.073 -0.0555  2.8159  0.7656
   53CHL1   C22 6384   4.621   3.040   9.155  0.2595 -0.9026  0.0801
   53CHL1  H22A 6385   4.690   3.116   9.198  0.3161 -0.2847 -1.0642
   53CHL1  H22B 6386   4.670   2.941   9.158  1.6501 -0.4337 -3.1781
   53CHL1   C23 6387   4.598   3.076   9.006  0.2763 -1.2793 -0.0480
   53CHL1  H23A 6388   4.543   2.993   8.958 -1.0357 -0.8633  0.6850
   53CHL1  H23B 6389   4.535   3.167   9.000  1.8380 -0.2234 -1.6411
   53CHL1   C24 6390   4.739   3.094   8.938  0.4941 -0.5810 -0.2642
   53CHL1  H24A 6391   4.797   3.165   9.002  0.1603 -0.1734 -0.4056
   53CHL1  H24B 6392   4.796   2.999   8.931  1.5248  0.1194 -1.8000
   53CHL1   C25 6393   4.741   3.142   8.791 -0.0071 -0.1291  0.0448
   53CHL1   H25 6394   4.706   3.247   8.794  0.6296  0.0981 -0.1343
   53CHL1   C26 6395   4.883   3.133   8.731  0.6770  0.9514 -0.0076
   53CHL1  H26A 6396   4.894   3.187   8.634  1.7638  1.9091  0.6281
   53CHL1  H26B 6397   4.951   3.187   8.799  0.6164  0.6216  0.3163
   53CHL1  H26C 6398   4.920   3.028   8.728  1.4494  1.1420  1.6850
   53CHL1   C27 6399   4.651   3.073   8.693 -0.4732 -0.1466 -0.0532
   53CHL1  H27A 6400   4.548   3.060   8.733 -0.3354 -0.4813  0.1990
   53CHL1  H27B 6401   4.635   3.135   8.603  1.0357 -0.0262 -0.2623
   53CHL1  H27C 6402   4.691   2.975   8.660 -0.2806 -0.1233  0.1109
   54CHL1    C3 6403   4.545   4.714  10.060 -0.8936 -0.6628 -0.6664
   54CHL1    H3 6404   4.633   4.780  10.041 -0.4540 -0.9953  0.2073
   54CHL1    O3 6405   4.537   4.686  10.200  0.1832 -0.4656 -0.4574
   54CHL1   H3' 6406   4.450   4.646  10.213  0.6625 -1.0634  1.2364
   54CHL1    C4 6407   4.402   4.774  10.002  0.4020  0.6936  1.0031
   54CHL1   H4A 6408   4.322   4.702  10.030  0.1007 -0.1173 -1.6798
   54CHL1   H4B 6409   4.399   4.872  10.054  4.7235  1.8344 -0.4883
   54CHL1    C5 6410   4.407   4.784   9.849 -0.2360 -0.7015 -0.2619
   54CHL1    C6 6411   4.384   4.899   9.781 -0.1213 -0.5539  0.0322
   54CHL1    H6 6412   4.371   4.989   9.843 -1.9612 -2.1769  2.2128
   54CHL1    C7 6413   4.378   4.906   9.631 -0.1408  0.0283 -0.4542
   54CHL1   H7A 6414   4.299   4.973   9.590 -1.0698 -0.1903  0.8966
   54CHL1   H7B 6415   4.471   4.951   9.592  0.2886  0.4374  0.9737
   54CHL1    C8 6416   4.356   4.767   9.560  0.1547 -0.8051 -0.3782
   54CHL1    H8 6417   4.251   4.735   9.575  0.2229  0.0359  2.4360
   54CHL1   C14 6418   4.395   4.781   9.408 -0.1689  0.1965 -0.7656
   54CHL1   H14 6419   4.501   4.809   9.419  0.3972 -2.1337  0.6091
   54CHL1   C15 6420   4.328   4.893   9.327  0.2011  0.2546 -0.0341
   54CHL1  H15A 6421   4.224   4.926   9.350 -0.5517 -1.4585 -0.7630
   54CHL1  H15B 6422   4.381   4.988   9.347  1.6253 -0.3149 -0.9465
   54CHL1   C16 6423   4.345   4.854   9.183 -0.0336  0.3372  0.0740
   54CHL1  H16A 6424   4.252   4.844   9.124  0.1686 -0.9706 -0.0590
   54CHL1  H16B 6425   4.420   4.922   9.137 -1.1216  2.1596  0.8955
   54CHL1   C17 6426   4.413   4.707   9.184  0.7323 -0.2691 -0.6571
   54CHL1   H17 6427   4.523   4.723   9.175  0.6794 -0.1177 -1.0274
   54CHL1   C13 6428   4.387   4.652   9.323 -0.3811  0.7052 -0.1494
   54CHL1   C18 6429   4.238   4.604   9.325  0.0432  1.1314 -0.0534
   54CHL1  H18A 6430   4.198   4.585   9.427 -1.7855  0.8263 -0.7922
   54CHL1  H18B 6431   4.179   4.694   9.297  1.0161  1.1302 -2.2966
   54CHL1  H18C 6432   4.229   4.514   9.261 -0.8491  0.1762  1.3599
   54CHL1   C12 6433   4.481   4.546   9.390 -0.4985 -0.1400  0.1531
   54CHL1  H12A 6434   4.487   4.445   9.345  0.2781 -0.2564  0.5039
   54CHL1  H12B 6435   4.578   4.594   9.367 -0.2837 -1.7195 -2.6662
   54CHL1   C11 6436   4.468   4.531   9.545  0.2352 -0.0875  0.6654
   54CHL1  H11A 6437   4.374   4.472   9.562 -0.3602  0.7199  0.2111
   54CHL1  H11B 6438   4.547   4.463   9.584 -1.1621 -2.3961 -0.2843
   54CHL1    C9 6439   4.459   4.667   9.622 -0.0210 -0.1340 -0.2527
   54CHL1    H9 6440   4.557   4.715   9.601 -0.6542  1.1702 -0.3293
   54CHL1   C10 6441   4.442   4.656   9.780  0.9855 -0.6948  1.1947
   54CHL1   C19 6442   4.338   4.545   9.802 -0.6445 -0.5552 -0.4602
   54CHL1  H19A 6443   4.357   4.448   9.751  0.1924 -0.5258 -0.2070
   54CHL1  H19B 6444   4.332   4.521   9.910  1.1177  0.2633 -0.1536
   54CHL1  H19C 6445   4.236   4.577   9.770 -0.9351  0.0212  0.9956
   54CHL1    C1 6446   4.580   4.609   9.833  0.4949  0.1335 -0.2170
   54CHL1   H1A 6447   4.619   4.518   9.783 -0.3952  1.0401 -2.7271
   54CHL1   H1B 6448   4.656   4.685   9.805  2.1588 -1.9012 -1.5130
   54CHL1    C2 6449   4.581   4.580   9.986  0.0991 -0.1483 -0.6492
   54CHL1   H2A 6450   4.680   4.554  10.029  0.8252  1.1142 -1.4962
   54CHL1   H2B 6451   4.516   4.497  10.020 -1.4193  1.6331  1.1339
   54CHL1   C20 6452   4.377   4.618   9.062 -0.8646 -0.2776 -0.2883
   54CHL1   H20 6453   4.268   4.597   9.057 -0.5983 -2.0662  0.5904
   54CHL1   C21 6454   4.452   4.484   9.078  0.4844 -0.0126 -0.2736
   54CHL1  H21A 6455   4.396   4.409   9.138  0.6406 -1.5395 -1.9468
   54CHL1  H21B 6456   4.550   4.498   9.129  0.6536  1.2223 -0.8959
   54CHL1  H21C 6457   4.473   4.446   8.975 -0.6087  2.0210 -1.3043
   54CHL1   C22 6458   4.426   4.682   8.931 -0.3407 -0.4187  0.5413
   54CHL1  H22A 6459   4.395   4.789   8.925  0.6832 -0.2095 -1.7639
   54CHL1  H22B 6460   4.535   4.699   8.917 -0.8742  5.6444  0.8674
   54CHL1   C23 6461   4.360   4.619   8.806  0.2250  0.7217  0.0268
   54CHL1  H23A 6462   4.377   4.511   8.787 -1.9146  0.3626 -0.1827
   54CHL1  H23B 6463   4.253   4.648   8.816 -0.5168 -1.2356 -1.5188
   54CHL1   C24 6464   4.383   4.699   8.675  0.6455  0.0572 -1.3957
   54CHL1  H24A 6465   4.348   4.803   8.690 -2.7154 -0.7179 -2.9425
   54CHL1  H24B 6466   4.494   4.704   8.662  0.7722  0.8927 -0.1249
   54CHL1   C25 6467   4.311   4.642   8.552 -0.1072  0.2809  0.6591
   54CHL1   H25 6468   4.200   4.645   8.559 -0.2676 -1.2444 -0.5698
   54CHL1   C26 6469   4.348   4.719   8.427 -0.2470  0.0926  0.2951
   54CHL1  H26A 6470   4.450   4.690   8.395  0.9701  2.7576  1.4425
   54CHL1  H26B 6471   4.266   4.703   8.353 -1.7172  1.0912  1.6336
   54CHL1  H26C 6472   4.352   4.827   8.453  1.3674 -0.2227  1.5084
   54CHL1   C27 6473   4.342   4.499   8.503  0.2720  0.3159 -0.7152
   54CHL1  H27A 6474   4.451   4.487   8.521  0.1917  1.1881  0.4689
   54CHL1  H27B 6475   4.294   4.425   8.570  0.8155 -1.0375 -1.7668
   54CHL1  H27C 6476   4.317   4.477   8.397 -1.6727 -1.0352 -0.0239
   55CHL1    C3 6477   3.069   1.338   9.955 -0.4071 -0.5947 -0.1678
   55CHL1    H3 6478   3.176   1.353   9.929 -0.5959  0.1638 -0.5363
   55CHL1    O3 6479   3.065   1.333  10.093 -0.1275  0.1244 -0.1041
   55CHL1   H3' 6480   2.972   1.345  10.116  0.1502 -0.7175  1.5962
   55CHL1    C4 6481   2.985   1.451   9.908 -0.0030 -0.4598  0.3211
   55CHL1   H4A 6482   2.882   1.436   9.948  0.3359  2.1031  2.3928
   55CHL1   H4B 6483   3.018   1.545   9.957 -1.4737  0.1875  0.1171
   55CHL1    C5 6484   2.980   1.464   9.753 -0.0721 -0.4741 -0.1031
   55CHL1    C6 6485   3.020   1.578   9.686 -0.1733  0.0662 -0.6041
   55CHL1    H6 6486   3.063   1.661   9.744 -0.6198 -0.4429  0.4840
   55CHL1    C7 6487   3.019   1.585   9.534  0.0138  0.2210  0.0729
   55CHL1   H7A 6488   3.002   1.687   9.492 -0.1986 -0.4027 -1.4244
   55CHL1   H7B 6489   3.124   1.566   9.504  0.4257  0.5921  1.2304
   55CHL1    C8 6490   2.928   1.468   9.470 -0.0530  0.0720  0.0787
   55CHL1    H8 6491   2.825   1.507   9.486 -0.3250 -0.5075 -0.2473
   55CHL1   C14 6492   2.949   1.458   9.326  0.1793 -0.4521  0.1978
   55CHL1   H14 6493   3.055   1.424   9.322  0.7720  1.0008  2.0402
   55CHL1   C15 6494   2.939   1.590   9.246  0.2036  0.3120  0.6777
   55CHL1  H15A 6495   2.851   1.648   9.279 -0.0333  0.4393 -0.1618
   55CHL1  H15B 6496   3.026   1.654   9.273  0.6488 -1.0050  2.6023
   55CHL1   C16 6497   2.934   1.550   9.097  0.0733  0.0273 -0.6398
   55CHL1  H16A 6498   2.843   1.598   9.056  0.7540  0.4461 -1.6968
   55CHL1  H16B 6499   3.026   1.595   9.053  1.3040 -1.7355 -0.0009
   55CHL1   C17 6500   2.924   1.388   9.097 -0.0164 -0.4659 -0.7627
   55CHL1   H17 6501   3.028   1.351   9.101  0.2554  0.3024 -0.5230
   55CHL1   C13 6502   2.876   1.355   9.241  0.3614 -0.0350 -0.0490
   55CHL1   C18 6503   2.720   1.379   9.252 -0.4890 -0.3301 -0.0905
   55CHL1  H18A 6504   2.685   1.481   9.227 -0.9816 -0.3323  0.5730
   55CHL1  H18B 6505   2.655   1.317   9.187  0.5906 -1.9583  0.3281
   55CHL1  H18C 6506   2.694   1.368   9.359 -0.2427  1.3026  0.1683
   55CHL1   C12 6507   2.905   1.213   9.307 -0.3634  0.1143 -0.5739
   55CHL1  H12A 6508   2.831   1.141   9.267  1.2019 -1.7234 -0.3062
   55CHL1  H12B 6509   3.012   1.191   9.287 -0.5766 -3.4738  1.3576
   55CHL1   C11 6510   2.871   1.216   9.461  0.0031 -0.1615  0.3090
   55CHL1  H11A 6511   2.760   1.213   9.475  0.0390 -0.2540  0.5901
   55CHL1  H11B 6512   2.905   1.118   9.500  2.3941 -0.2431 -1.7445
   55CHL1    C9 6513   2.951   1.335   9.534  0.2740  0.0380 -0.4466
   55CHL1    H9 6514   3.055   1.307   9.507 -0.6660 -0.3932 -4.2715
   55CHL1   C10 6515   2.931   1.332   9.686  0.2882 -0.1464 -1.1224
   55CHL1   C19 6516   2.771   1.327   9.715 -0.3557 -0.1125  0.1086
   55CHL1  H19A 6517   2.743   1.338   9.822 -2.5428  1.2251 -0.5380
   55CHL1  H19B 6518   2.732   1.414   9.658  2.5985  1.4301  0.2119
   55CHL1  H19C 6519   2.720   1.234   9.685 -1.8655  0.4690  0.7863
   55CHL1    C1 6520   3.011   1.204   9.742  0.2024  0.1755  0.0038
   55CHL1   H1A 6521   2.978   1.107   9.698 -0.7770 -0.1375  1.3755
   55CHL1   H1B 6522   3.117   1.221   9.714  0.0523 -0.8814 -1.3327
   55CHL1    C2 6523   3.023   1.205   9.898 -0.6129  0.5065 -0.1453
   55CHL1   H2A 6524   3.096   1.123   9.916  0.7300  1.4836 -0.9640
   55CHL1   H2B 6525   2.928   1.172   9.946 -0.4415 -1.6420 -1.1702
   55CHL1   C20 6526   2.847   1.330   8.974  0.2243  1.1026  0.2925
   55CHL1   H20 6527   2.753   1.389   8.968 -0.2833  0.3842  0.9557
   55CHL1   C21 6528   2.827   1.183   8.990 -0.2055 -0.1566  0.0858
   55CHL1  H21A 6529   2.811   1.130   8.893 -0.3267 -0.4165  0.2459
   55CHL1  H21B 6530   2.735   1.157   9.045 -0.1587  1.2871  0.8913
   55CHL1  H21C 6531   2.918   1.132   9.029 -0.0195  0.4792  0.4892
   55CHL1   C22 6532   2.922   1.358   8.838 -0.2495  0.0952  0.3695
   55CHL1  H22A 6533   2.935   1.469   8.838 -1.8997  0.3146  0.9407
   55CHL1  H22B 6534   3.026   1.319   8.828 -0.4617 -0.8052  1.5435
   55CHL1   C23 6535   2.840   1.318   8.712 -0.2911 -0.2252  0.1325
   55CHL1  H23A 6536   2.829   1.208   8.706  2.1214 -0.4818 -0.2821
   55CHL1  H23B 6537   2.748   1.378   8.732  0.0919  0.7569 -0.9698
   55CHL1   C24 6538   2.893   1.358   8.570 -0.0409  0.5313 -0.4291
   55CHL1  H24A 6539   2.901   1.469   8.577  0.6923  0.4482  0.1043
   55CHL1  H24B 6540   2.994   1.315   8.555 -0.3484  0.1216 -1.3716
   55CHL1   C25 6541   2.803   1.323   8.451 -0.1454 -0.3680 -0.2599
   55CHL1   H25 6542   2.698   1.355   8.468 -0.8612 -3.4677  1.9722
   55CHL1   C26 6543   2.868   1.386   8.326 -0.1210 -0.2104 -0.5251
   55CHL1  H26A 6544   2.969   1.339   8.317  0.5063 -0.2360  4.2528
   55CHL1  H26B 6545   2.799   1.376   8.240 -2.1837  0.2023  1.0215
   55CHL1  H26C 6546   2.888   1.495   8.322 -0.4415 -0.1791 -1.5026
   55CHL1   C27 6547   2.794   1.178   8.422 -0.1875 -0.6261 -0.0633
   55CHL1  H27A 6548   2.894   1.132   8.434 -0.1575 -0.4844  0.2539
   55CHL1  H27B 6549   2.738   1.131   8.506  2.9080 -1.6069  1.6007
   55CHL1  H27C 6550   2.744   1.157   8.325  2.5506  1.1080 -2.0083
   56CHL1    C3 6551   2.045   0.041  10.047  0.4926 -0.0378 -1.2247
   56CHL1    H3 6552   2.050  -0.070  10.044 -3.3407 -0.4198  0.4191
   56CHL1    O3 6553   2.042   0.076  10.181  0.0805 -0.2905 -0.0211
   56CHL1   H3' 6554   2.019   0.169  10.185  1.8007  0.2198 -0.9956
   56CHL1    C4 6555   2.175   0.094   9.974  0.1324 -0.7849  0.2459
   56CHL1   H4A 6556   2.171   0.202   9.998 -1.3948 -0.3762 -1.5876
   56CHL1   H4B 6557   2.264   0.050  10.023  1.9669  0.2742 -1.9387
   56CHL1    C5 6558   2.183   0.080   9.825 -0.0090 -0.0011 -0.2683
   56CHL1    C6 6559   2.295   0.032   9.775 -0.3072  0.0637 -0.0587
   56CHL1    H6 6560   2.379   0.010   9.842 -0.2244  1.0430  0.1772
   56CHL1    C7 6561   2.309  -0.003   9.626  0.0213  0.2391  0.0657
   56CHL1   H7A 6562   2.402   0.046   9.590  0.4085 -0.3988  0.1875
   56CHL1   H7B 6563   2.309  -0.114   9.616 -1.5392  0.0363  1.8162
   56CHL1    C8 6564   2.193   0.052   9.540  0.2802 -0.8088 -1.0959
   56CHL1    H8 6565   2.221   0.157   9.515  0.8916 -0.4471  0.9579
   56CHL1   C14 6566   2.196  -0.019   9.405  0.5964  0.8903  0.1383
   56CHL1   H14 6567   2.171  -0.124   9.433  0.7841  1.2974  1.9078
   56CHL1   C15 6568   2.320  -0.013   9.322 -1.0275 -0.3903 -0.2321
   56CHL1  H15A 6569   2.365   0.084   9.293 -1.0474 -0.1257  0.6106
   56CHL1  H15B 6570   2.401  -0.075   9.365 -2.5319 -1.2429  1.5161
   56CHL1   C16 6571   2.271  -0.068   9.184 -0.8395  0.8386  0.3156
   56CHL1  H16A 6572   2.301   0.006   9.107  0.3156 -0.1025 -0.1607
   56CHL1  H16B 6573   2.322  -0.161   9.151 -0.1806  1.0110  0.8403
   56CHL1   C17 6574   2.108  -0.074   9.183 -0.1843  0.6841  0.2180
   56CHL1   H17 6575   2.078  -0.172   9.226  1.1285  0.1911  0.0543
   56CHL1   C13 6576   2.077   0.018   9.311  0.0066  0.0326  0.7060
   56CHL1   C18 6577   2.094   0.172   9.269 -0.1388  0.4367  0.1925
   56CHL1  H18A 6578   2.180   0.176   9.200 -0.8770  3.7569 -0.6921
   56CHL1  H18B 6579   1.998   0.186   9.214 -0.0030 -0.7212 -0.3695
   56CHL1  H18C 6580   2.110   0.241   9.354  1.2512  0.7304 -0.2964
   56CHL1   C12 6581   1.934   0.006   9.381  0.0026  0.0183  0.2768
   56CHL1  H12A 6582   1.860   0.049   9.310 -0.9932 -1.4262  0.4007
   56CHL1  H12B 6583   1.911  -0.101   9.403 -0.3761  0.0258 -0.0760
   56CHL1   C11 6584   1.944   0.094   9.514 -0.4086 -0.1925  0.5367
   56CHL1  H11A 6585   1.952   0.198   9.478 -0.3665 -0.3091  0.2082
   56CHL1  H11B 6586   1.843   0.079   9.557 -0.4754 -0.6633  0.2209
   56CHL1    C9 6587   2.056   0.045   9.608  0.0909 -0.0422 -0.0988
   56CHL1    H9 6588   2.028  -0.062   9.623  1.4295 -0.5120 -0.8086
   56CHL1   C10 6589   2.052   0.103   9.747  0.0175  0.1368 -0.2157
   56CHL1   C19 6590   2.058   0.261   9.722 -0.2159  0.2176  0.3355
   56CHL1  H19A 6591   2.137   0.300   9.655  0.4549 -0.7118  0.5626
   56CHL1  H19B 6592   1.965   0.301   9.677  0.4419 -0.1168 -1.3837
   56CHL1  H19C 6593   2.075   0.307   9.822 -0.7053 -1.1274  1.0774
   56CHL1    C1 6594   1.924   0.056   9.824 -1.0520 -0.5423  0.1611
   56CHL1   H1A 6595   1.830   0.092   9.778 -1.1333 -1.3988 -0.3670
   56CHL1   H1B 6596   1.924  -0.055   9.817 -3.0408 -0.5892  0.4222
   56CHL1    C2 6597   1.921   0.092   9.972  0.5286  0.7042  0.3263
   56CHL1   H2A 6598   1.828   0.050  10.018  0.0553  0.4309 -0.8504
   56CHL1   H2B 6599   1.928   0.202   9.985  1.1439  0.7514 -0.3467
   56CHL1   C20 6600   2.046  -0.044   9.050  0.6351 -0.0636 -0.4272
   56CHL1   H20 6601   2.068   0.058   9.013  0.6365 -0.2671 -1.0044
   56CHL1   C21 6602   1.896  -0.072   9.057 -0.4103  0.0153  0.1845
   56CHL1  H21A 6603   1.875  -0.165   9.113  0.2325 -0.6979 -0.7354
   56CHL1  H21B 6604   1.846  -0.084   8.959 -0.1264 -0.7661  0.1272
   56CHL1  H21C 6605   1.851   0.014   9.112 -0.3609  0.2277 -0.1010
   56CHL1   C22 6606   2.110  -0.144   8.949  0.6535  0.3250 -0.3020
   56CHL1  H22A 6607   2.216  -0.119   8.931  0.2990  1.1525 -1.3435
   56CHL1  H22B 6608   2.112  -0.238   9.010  2.2871  1.1230  0.9334
   56CHL1   C23 6609   2.045  -0.161   8.811  0.3703 -0.2124  0.2853
   56CHL1  H23A 6610   1.947  -0.213   8.819  0.9195 -1.4132 -0.3680
   56CHL1  H23B 6611   2.024  -0.059   8.773  0.4834 -1.4190 -3.4842
   56CHL1   C24 6612   2.122  -0.241   8.706  0.4549 -0.7573 -0.3297
   56CHL1  H24A 6613   2.203  -0.175   8.669  1.4582 -2.2419 -0.8892
   56CHL1  H24B 6614   2.166  -0.334   8.750 -0.2597 -0.5346  0.8944
   56CHL1   C25 6615   2.038  -0.288   8.581  0.3594  0.4765 -0.6566
   56CHL1   H25 6616   1.961  -0.352   8.629  0.2977  0.8526 -0.2436
   56CHL1   C26 6617   1.988  -0.165   8.506  0.2879  0.6113 -0.5010
   56CHL1  H26A 6618   2.070  -0.094   8.479  0.8051 -0.1870 -1.0749
   56CHL1  H26B 6619   1.924  -0.195   8.421 -0.6967  0.1169  0.4028
   56CHL1  H26C 6620   1.919  -0.106   8.569  0.8071  1.9766 -1.1483
   56CHL1   C27 6621   2.136  -0.375   8.496 -0.7295 -0.3650  0.2425
   56CHL1  H27A 6622   2.083  -0.400   8.402  0.4968  0.2713 -0.6537
   56CHL1  H27B 6623   2.218  -0.314   8.453 -2.0920  1.7051  0.4009
   56CHL1  H27C 6624   2.177  -0.463   8.550 -0.2256  0.5210  1.3469
   57CHL1    C3 6625   3.947   1.494  10.204 -0.9216  0.1349  0.1387
   57CHL1    H3 6626   3.849   1.454  10.237 -0.4502 -0.6621  0.5970
   57CHL1    O3 6627   4.036   1.492  10.314 -0.4433 -0.1846 -0.2596
   57CHL1   H3' 6628   4.118   1.521  10.273 -1.0019  0.1981 -1.1173
   57CHL1    C4 6629   4.010   1.403  10.095 -0.5977  0.2512  0.6241
   57CHL1   H4A 6630   4.121   1.416  10.101 -0.4930  0.5038 -1.2322
   57CHL1   H4B 6631   3.996   1.296  10.120 -0.6453  0.2579  0.6263
   57CHL1    C5 6632   3.965   1.425   9.956 -0.0795 -0.3897 -0.0762
   57CHL1    C6 6633   3.935   1.326   9.874 -0.5997 -0.0365 -0.4666
   57CHL1    H6 6634   3.944   1.224   9.915  1.6549  0.3572  0.1646
   57CHL1    C7 6635   3.904   1.352   9.732  0.2974  0.3461 -0.3741
   57CHL1   H7A 6636   3.954   1.277   9.667  1.9743  0.5745  0.5986
   57CHL1   H7B 6637   3.797   1.323   9.721 -0.0297  0.9693  0.9463
   57CHL1    C8 6638   3.929   1.500   9.678  1.0493  0.7423 -0.9572
   57CHL1    H8 6639   4.037   1.497   9.653  1.3824 -1.0434  0.4773
   57CHL1   C14 6640   3.849   1.532   9.554 -0.0893 -0.7213 -0.4424
   57CHL1   H14 6641   3.743   1.542   9.584 -0.3661 -3.1408 -0.4186
   57CHL1   C15 6642   3.854   1.419   9.451 -0.1550 -0.7022 -0.1253
   57CHL1  H15A 6643   3.961   1.393   9.432 -0.4254 -1.3918 -0.7751
   57CHL1  H15B 6644   3.795   1.328   9.474  0.0633 -0.9190 -0.3989
   57CHL1   C16 6645   3.806   1.480   9.321  0.0906 -0.5874  0.2795
   57CHL1  H16A 6646   3.891   1.470   9.251 -0.4063 -2.0783 -0.1531
   57CHL1  H16B 6647   3.722   1.433   9.265  1.3403  0.1591 -2.3717
   57CHL1   C17 6648   3.787   1.635   9.351  0.2614  0.3592 -0.3171
   57CHL1   H17 6649   3.685   1.652   9.391 -0.4740 -1.0228 -1.5070
   57CHL1   C13 6650   3.875   1.666   9.479  0.7784 -0.2114 -0.3864
   57CHL1   C18 6651   4.017   1.674   9.451 -0.4184 -0.5320 -0.0150
   57CHL1  H18A 6652   4.051   1.767   9.401 -1.1296 -0.3850 -0.2240
   57CHL1  H18B 6653   4.083   1.673   9.541 -1.0331  0.6754  0.4804
   57CHL1  H18C 6654   4.058   1.593   9.387 -1.5103 -1.3423  0.2929
   57CHL1   C12 6655   3.823   1.778   9.582  0.2126  0.5543 -0.1550
   57CHL1  H12A 6656   3.857   1.879   9.548  0.1252  0.5180 -0.3531
   57CHL1  H12B 6657   3.713   1.776   9.594 -0.1783  1.3617 -2.7523
   57CHL1   C11 6658   3.898   1.754   9.723 -0.3310 -0.2957 -0.3314
   57CHL1  H11A 6659   4.007   1.758   9.698 -0.0185  0.8570  1.1360
   57CHL1  H11B 6660   3.876   1.834   9.797  0.4161  1.4751 -1.9276
   57CHL1    C9 6661   3.887   1.607   9.778  0.9431  0.2118  0.7845
   57CHL1    H9 6662   3.777   1.594   9.782  0.7735 -0.3472 -2.6284
   57CHL1   C10 6663   3.958   1.574   9.910 -0.0531  0.2735 -0.2125
   57CHL1   C19 6664   4.104   1.627   9.908 -0.1001  0.1716  0.0900
   57CHL1  H19A 6665   4.092   1.736   9.893 -1.1510  0.4929  2.7514
   57CHL1  H19B 6666   4.161   1.619  10.003  1.6579 -0.0855 -0.9274
   57CHL1  H19C 6667   4.163   1.585   9.824  0.9149  2.8916 -0.6730
   57CHL1    C1 6668   3.872   1.646  10.015 -0.0644  0.2337 -0.0802
   57CHL1   H1A 6669   3.864   1.756  10.007 -0.6552  0.2419  0.5627
   57CHL1   H1B 6670   3.771   1.608   9.991 -0.2844  2.4769 -3.3669
   57CHL1    C2 6671   3.923   1.632  10.156 -0.5317 -0.2517  0.7174
   57CHL1   H2A 6672   3.860   1.685  10.231  0.9829  0.0818  1.7857
   57CHL1   H2B 6673   4.023   1.681  10.156  0.8000 -2.7860 -0.5080
   57CHL1   C20 6674   3.811   1.724   9.229  0.8555  0.1318 -0.0225
   57CHL1   H20 6675   3.918   1.714   9.198  0.2779 -1.2366 -1.7190
   57CHL1   C21 6676   3.793   1.875   9.259 -0.2064 -0.4697 -0.2894
   57CHL1  H21A 6677   3.861   1.916   9.336 -0.3013 -0.0856 -0.4070
   57CHL1  H21B 6678   3.691   1.897   9.299 -0.7124 -1.0273 -1.2211
   57CHL1  H21C 6679   3.803   1.930   9.163  2.5263  0.9514  0.7219
   57CHL1   C22 6680   3.728   1.679   9.100  0.0300 -0.3868 -0.1053
   57CHL1  H22A 6681   3.752   1.572   9.081  2.7597  0.1156  0.0659
   57CHL1  H22B 6682   3.619   1.688   9.119 -0.2535  1.5456 -2.3506
   57CHL1   C23 6683   3.742   1.758   8.967 -0.1448  0.4080 -0.2841
   57CHL1  H23A 6684   3.705   1.863   8.968  0.0931  0.5162  1.7646
   57CHL1  H23B 6685   3.850   1.770   8.944 -0.2567  0.4830 -0.7961
   57CHL1   C24 6686   3.669   1.686   8.856 -0.5576 -0.2152  0.1120
   57CHL1  H24A 6687   3.737   1.601   8.834 -0.6964 -0.6354  1.2495
   57CHL1  H24B 6688   3.576   1.642   8.897 -1.8827 -0.6024 -3.0192
   57CHL1   C25 6689   3.641   1.762   8.728  0.4359 -0.2055  0.0852
   57CHL1   H25 6690   3.560   1.838   8.736  1.4090  0.9750 -0.8372
   57CHL1   C26 6691   3.768   1.846   8.698 -0.6460 -0.2135  0.0341
   57CHL1  H26A 6692   3.788   1.920   8.778  1.7443 -1.3224  0.5287
   57CHL1  H26B 6693   3.860   1.789   8.678  1.3466  2.0234  2.1646
   57CHL1  H26C 6694   3.748   1.901   8.603 -1.2679  0.2339  0.4117
   57CHL1   C27 6695   3.595   1.672   8.612 -0.2494 -0.2399 -0.7346
   57CHL1  H27A 6696   3.554   1.736   8.531 -0.4540 -0.7780 -1.0685
   57CHL1  H27B 6697   3.679   1.613   8.570 -0.7352 -3.4537  2.3182
   57CHL1  H27C 6698   3.513   1.602   8.640  0.1853  0.4323  2.6183
   58CHL1    C3 6699   0.221   0.759  10.041  0.6708  0.3779  0.3805
   58CHL1    H3 6700   0.244   0.655  10.010 -0.4853  0.3964 -0.6272
   58CHL1    O3 6701   0.262   0.785  10.179  0.2315 -0.1475  0.2623
   58CHL1   H3' 6702   0.188   0.763  10.236 -1.1710 -4.0969 -2.6011
   58CHL1    C4 6703   0.297   0.844   9.938  0.5488  0.4372  0.0973
   58CHL1   H4A 6704   0.277   0.952   9.955  1.0222  0.7639 -1.2836
   58CHL1   H4B 6705   0.404   0.834   9.968  0.8535  2.0713 -0.3113
   58CHL1    C5 6706   0.263   0.805   9.796 -0.8585  0.5476  0.4788
   58CHL1    C6 6707   0.351   0.752   9.715  0.2999 -0.5812 -0.0675
   58CHL1    H6 6708   0.451   0.736   9.759 -1.1039 -2.9872  2.6927
   58CHL1    C7 6709   0.330   0.720   9.569 -0.3442  0.4255 -0.5022
   58CHL1   H7A 6710   0.404   0.780   9.512  1.2354 -0.0914  0.9106
   58CHL1   H7B 6711   0.343   0.610   9.557  0.7387  0.4104  0.5025
   58CHL1    C8 6712   0.186   0.770   9.524  0.0675 -0.0260 -0.0808
   58CHL1    H8 6713   0.187   0.880   9.510  1.0178 -0.1546 -1.2053
   58CHL1   C14 6714   0.152   0.700   9.401  0.8050  0.1638 -0.2601
   58CHL1   H14 6715   0.149   0.593   9.430  0.1393  0.2411 -0.0247
   58CHL1   C15 6716   0.252   0.706   9.283  0.6683 -0.5391  0.0149
   58CHL1  H15A 6717   0.289   0.810   9.277 -1.3727  0.4860  3.0702
   58CHL1  H15B 6718   0.342   0.643   9.301  0.1293 -1.4928 -0.5555
   58CHL1   C16 6719   0.168   0.648   9.162  0.0852  0.1454 -0.1360
   58CHL1  H16A 6720   0.181   0.707   9.069  0.6677  1.6183  0.8533
   58CHL1  H16B 6721   0.207   0.545   9.144 -0.0181 -0.0429  0.6931
   58CHL1   C17 6722   0.019   0.646   9.201 -0.4784 -0.1122  0.0638
   58CHL1   H17 6723  -0.003   0.542   9.231 -1.7170  0.7742  2.4632
   58CHL1   C13 6724   0.010   0.722   9.340 -0.4736  0.0787 -0.1434
   58CHL1   C18 6725  -0.010   0.869   9.299  0.2008  0.3245 -0.6078
   58CHL1  H18A 6726  -0.113   0.879   9.259 -0.9186 -3.2665  0.9732
   58CHL1  H18B 6727  -0.006   0.932   9.391  0.5375 -1.8443  0.9506
   58CHL1  H18C 6728   0.069   0.895   9.225  0.1560 -2.4693 -1.7629
   58CHL1   C12 6729  -0.094   0.680   9.442 -0.7205 -0.5537  0.5833
   58CHL1  H12A 6730  -0.195   0.710   9.407  0.2928  1.4251 -0.8363
   58CHL1  H12B 6731  -0.077   0.572   9.464 -1.6509 -0.6447  0.8831
   58CHL1   C11 6732  -0.070   0.757   9.578 -0.4253 -0.2962 -0.0056
   58CHL1  H11A 6733  -0.100   0.863   9.561 -1.2304 -0.6023 -0.5538
   58CHL1  H11B 6734  -0.148   0.737   9.654  2.2369  0.0733  3.0280
   58CHL1    C9 6735   0.075   0.738   9.628  0.9769 -0.3380  0.2454
   58CHL1    H9 6736   0.083   0.630   9.654  1.3292 -0.5891 -0.8733
   58CHL1   C10 6737   0.115   0.805   9.764  0.0442 -0.8056 -0.0983
   58CHL1   C19 6738   0.063   0.951   9.756  0.4793 -0.5052 -0.3267
   58CHL1  H19A 6739  -0.048   0.959   9.756  0.5763  1.2609 -0.3908
   58CHL1  H19B 6740   0.097   1.017   9.839  1.5692  1.4380 -2.2171
   58CHL1  H19C 6741   0.099   0.990   9.658  1.2945 -0.3546  0.0240
   58CHL1    C1 6742   0.041   0.725   9.878 -0.6584 -0.1913  0.3658
   58CHL1   H1A 6743  -0.070   0.720   9.867 -0.8186  1.4498  0.8845
   58CHL1   H1B 6744   0.078   0.621   9.883 -0.7365 -0.1789  1.2598
   58CHL1    C2 6745   0.075   0.772  10.024  0.1533  0.2823 -0.0227
   58CHL1   H2A 6746   0.036   0.709  10.106 -1.0699  0.3775 -0.5159
   58CHL1   H2B 6747   0.033   0.875  10.032 -3.3245 -0.9259 -1.2008
   58CHL1   C20 6748  -0.077   0.682   9.080  0.0781 -0.0596  0.5269
   58CHL1   H20 6749  -0.072   0.789   9.051  0.9818 -0.1826  0.1959
   58CHL1   C21 6750  -0.221   0.656   9.122 -0.3138 -0.1288 -0.3700
   58CHL1  H21A 6751  -0.294   0.661   9.039  0.3642  0.4208 -0.9522
   58CHL1  H21B 6752  -0.256   0.729   9.197 -0.3568  1.3158 -1.7264
   58CHL1  H21C 6753  -0.225   0.552   9.159 -1.6301 -0.8260 -2.3074
   58CHL1   C22 6754  -0.051   0.591   8.954 -0.3343 -0.3330 -0.1685
   58CHL1  H22A 6755   0.041   0.618   8.897  0.0693 -1.6811 -0.1842
   58CHL1  H22B 6756  -0.036   0.488   8.991 -0.2147  0.7095  2.9791
   58CHL1   C23 6757  -0.152   0.604   8.839  0.1474  0.1947 -0.5458
   58CHL1  H23A 6758  -0.122   0.524   8.769  2.5181  0.0084  0.5906
   58CHL1  H23B 6759  -0.253   0.571   8.873 -0.0667  0.8007 -0.5795
   58CHL1   C24 6760  -0.141   0.740   8.765  0.7069  0.0664  0.9635
   58CHL1  H24A 6761  -0.122   0.825   8.833 -1.5734  3.0541 -1.8394
   58CHL1  H24B 6762  -0.061   0.723   8.690  1.0510 -2.2484  1.7609
   58CHL1   C25 6763  -0.278   0.775   8.684  0.3521  0.0127 -0.1575
   58CHL1   H25 6764  -0.268   0.881   8.654 -0.8882  0.2289  0.1407
   58CHL1   C26 6765  -0.300   0.680   8.560 -0.2455  0.1702 -0.1127
   58CHL1  H26A 6766  -0.386   0.715   8.499 -0.4914 -0.9671 -0.4424
   58CHL1  H26B 6767  -0.206   0.683   8.501  0.0240  0.9454  0.3408
   58CHL1  H26C 6768  -0.322   0.580   8.601 -1.7967  0.5064 -0.0450
   58CHL1   C27 6769  -0.412   0.780   8.763 -0.0030 -0.3500  0.0979
   58CHL1  H27A 6770  -0.476   0.830   8.688  2.0770  2.3546 -0.0396
   58CHL1  H27B 6771  -0.445   0.683   8.806 -1.3170 -0.6553 -1.4931
   58CHL1  H27C 6772  -0.409   0.852   8.848 -2.2055 -0.4122  0.2910
   59CHL1    C3 6773   5.991   6.817  10.381  0.1398 -0.5549  0.1907
   59CHL1    H3 6774   6.030   6.915  10.345 -4.4321  2.7947  3.2111
   59CHL1    O3 6775   6.012   6.823  10.523  0.6198 -0.1125  0.7101
   59CHL1   H3' 6776   5.991   6.913  10.548  0.2031  0.3876 -1.2490
   59CHL1    C4 6777   5.831   6.819  10.351 -0.3913 -0.7286 -0.4162
   59CHL1   H4A 6778   5.786   6.742  10.418 -3.1098  1.1065  0.0549
   59CHL1   H4B 6779   5.788   6.914  10.391 -1.6067 -1.2660 -0.4042
   59CHL1    C5 6780   5.797   6.811  10.204 -0.8381 -0.7407 -0.3931
   59CHL1    C6 6781   5.729   6.913  10.141 -0.5867 -0.0725 -0.2091
   59CHL1    H6 6782   5.696   6.993  10.210 -0.3839 -1.5292  1.6828
   59CHL1    C7 6783   5.707   6.932   9.991  0.2748  0.5247 -0.6614
   59CHL1   H7A 6784   5.606   6.978   9.976 -1.1143 -1.6675  1.2459
   59CHL1   H7B 6785   5.789   6.996   9.952  0.5111  1.0421  0.6069
   59CHL1    C8 6786   5.709   6.788   9.932  0.2234 -0.7072  0.3145
   59CHL1    H8 6787   5.618   6.734   9.965 -0.3525 -0.3961 -0.7186
   59CHL1   C14 6788   5.708   6.804   9.783 -0.7688 -0.5243  0.1236
   59CHL1   H14 6789   5.802   6.855   9.753 -0.8517 -0.7295 -0.4989
   59CHL1   C15 6790   5.600   6.888   9.703  0.3320 -0.2832  0.1802
   59CHL1  H15A 6791   5.496   6.871   9.738 -0.5903  1.4466 -1.4913
   59CHL1  H15B 6792   5.622   6.996   9.720  2.8414 -1.0979  2.8467
   59CHL1   C16 6793   5.615   6.850   9.552  0.0303 -0.1255 -0.1831
   59CHL1  H16A 6794   5.512   6.823   9.523 -0.4580  0.1692  1.2233
   59CHL1  H16B 6795   5.635   6.936   9.485 -3.1252  1.4800  0.7521
   59CHL1   C17 6796   5.697   6.728   9.555 -0.3224  0.4407  0.9634
   59CHL1   H17 6797   5.792   6.776   9.523 -1.3660  0.8743 -1.7886
   59CHL1   C13 6798   5.710   6.674   9.699 -0.1154  0.8513  0.3334
   59CHL1   C18 6799   5.589   6.582   9.726 -0.1134  0.2896 -0.3494
   59CHL1  H18A 6800   5.604   6.482   9.681  0.1431 -0.5672  1.5139
   59CHL1  H18B 6801   5.578   6.566   9.836  3.7495 -3.6046 -0.2733
   59CHL1  H18C 6802   5.495   6.621   9.682  2.2994  4.0797 -2.6784
   59CHL1   C12 6803   5.838   6.604   9.738 -0.6083 -0.3233 -0.0647
   59CHL1  H12A 6804   5.849   6.505   9.688 -0.7700 -0.2626 -0.2189
   59CHL1  H12B 6805   5.922   6.672   9.712  0.7090 -1.6079  0.6887
   59CHL1   C11 6806   5.847   6.584   9.893  0.1857 -0.0902  0.2861
   59CHL1  H11A 6807   5.771   6.506   9.914 -0.6433  0.5563 -0.2508
   59CHL1  H11B 6808   5.943   6.531   9.910  0.2027  0.5815  2.5884
   59CHL1    C9 6809   5.835   6.712   9.976 -0.2021  0.0105  0.4805
   59CHL1    H9 6810   5.924   6.766   9.937  0.0300 -0.4497  0.3669
   59CHL1   C10 6811   5.855   6.690  10.130  0.1713  0.4194 -0.4393
   59CHL1   C19 6812   5.775   6.572  10.183 -0.5612  0.2753 -0.5480
   59CHL1  H19A 6813   5.670   6.582  10.148 -0.4824 -2.5114 -1.8772
   59CHL1  H19B 6814   5.811   6.479  10.133  1.7035  0.1350  1.1439
   59CHL1  H19C 6815   5.791   6.555  10.292  3.7339 -1.1781 -1.1901
   59CHL1    C1 6816   6.005   6.672  10.160  0.4733 -0.4911  1.1435
   59CHL1   H1A 6817   6.044   6.578  10.114  0.1586  0.8129 -2.0016
   59CHL1   H1B 6818   6.050   6.759  10.108  1.6084 -0.3034  2.3761
   59CHL1    C2 6819   6.048   6.686  10.315 -0.2778  0.2697  0.2800
   59CHL1   H2A 6820   6.157   6.682  10.336 -0.5860  0.7823  2.1770
   59CHL1   H2B 6821   6.000   6.594  10.354  1.4297 -0.7951 -0.0218
   59CHL1   C20 6822   5.678   6.631   9.427  0.0642 -0.1540  0.1943
   59CHL1   H20 6823   5.586   6.578   9.458  0.6216 -0.2471  1.7945
   59CHL1   C21 6824   5.786   6.526   9.421  0.0301  0.6312  0.2493
   59CHL1  H21A 6825   5.757   6.439   9.483  0.1928 -0.8556 -1.6584
   59CHL1  H21B 6826   5.886   6.547   9.466  0.4530 -1.1174  0.2254
   59CHL1  H21C 6827   5.811   6.497   9.316  1.2533 -4.0644  1.5643
   59CHL1   C22 6828   5.655   6.702   9.294 -0.6549  0.1295 -0.0083
   59CHL1  H22A 6829   5.583   6.786   9.305 -1.5464 -0.9733  4.3992
   59CHL1  H22B 6830   5.756   6.744   9.271 -1.4877  1.2527 -1.9040
   59CHL1   C23 6831   5.621   6.619   9.172 -0.4442  0.1147  0.3290
   59CHL1  H23A 6832   5.701   6.547   9.144 -2.2335 -1.9649  0.2773
   59CHL1  H23B 6833   5.533   6.554   9.188 -1.0463  0.9802  0.6180
   59CHL1   C24 6834   5.601   6.713   9.048  0.6928  0.0853  0.5400
   59CHL1  H24A 6835   5.513   6.776   9.072 -0.3066 -1.8965  2.3403
   59CHL1  H24B 6836   5.689   6.779   9.027  0.0659  0.8813  0.3778
   59CHL1   C25 6837   5.580   6.633   8.918 -0.1015  0.3264  0.1627
   59CHL1   H25 6838   5.678   6.593   8.885  0.1597 -0.3765  1.6991
   59CHL1   C26 6839   5.493   6.515   8.941  0.0483 -0.1326 -0.6688
   59CHL1  H26A 6840   5.536   6.434   9.004 -0.8201 -0.8463 -0.9693
   59CHL1  H26B 6841   5.390   6.545   8.969 -0.1017 -1.6428  0.5253
   59CHL1  H26C 6842   5.469   6.467   8.844  0.3164  0.5462 -1.0778
   59CHL1   C27 6843   5.512   6.730   8.817  0.1025  0.7087 -0.8267
   59CHL1  H27A 6844   5.575   6.820   8.833  2.5863 -1.3339  1.7127
   59CHL1  H27B 6845   5.522   6.690   8.714  1.6646 -2.4806  0.4469
   59CHL1  H27C 6846   5.406   6.751   8.845 -0.8283 -1.6479 -2.3184
   60CHL1    C3 6847   0.254   5.143  10.075  0.8694 -0.6335  0.4649
   60CHL1    H3 6848   0.241   5.033  10.068  0.3497 -0.4805 -2.0227
   60CHL1    O3 6849   0.249   5.185  10.214 -0.2406  0.3664  0.8241
   60CHL1   H3' 6850   0.277   5.277  10.219 -0.5050  0.4067  1.7285
   60CHL1    C4 6851   0.393   5.172  10.017  0.2640  0.1383 -0.4228
   60CHL1   H4A 6852   0.406   5.283  10.017 -1.5405  0.3854 -1.0737
   60CHL1   H4B 6853   0.468   5.136  10.090 -0.8215 -1.7803 -0.1825
   60CHL1    C5 6854   0.400   5.123   9.875  0.7851 -0.1605 -0.3096
   60CHL1    C6 6855   0.482   5.027   9.839 -0.0359  0.3598  0.3367
   60CHL1    H6 6856   0.557   5.003   9.914 -1.3507  2.3514  2.4469
   60CHL1    C7 6857   0.502   4.978   9.691 -0.5858 -0.2752 -0.5743
   60CHL1   H7A 6858   0.611   4.979   9.670 -0.4417  1.8056 -0.0184
   60CHL1   H7B 6859   0.457   4.877   9.687  0.6696 -0.8486 -0.4556
   60CHL1    C8 6860   0.428   5.074   9.597  0.5029 -0.4575  0.3041
   60CHL1    H8 6861   0.496   5.162   9.591  0.6148 -0.5694 -0.1262
   60CHL1   C14 6862   0.427   5.009   9.453  0.1843 -0.0763 -0.4015
   60CHL1   H14 6863   0.375   4.912   9.466  0.1297 -0.3930 -2.6722
   60CHL1   C15 6864   0.574   4.975   9.399  0.2214 -0.3863  0.2243
   60CHL1  H15A 6865   0.645   5.060   9.393 -1.2022  0.7382 -2.2083
   60CHL1  H15B 6866   0.609   4.888   9.458 -2.2582 -0.7148  1.3328
   60CHL1   C16 6867   0.539   4.947   9.251  0.2234  0.0430  0.1501
   60CHL1  H16A 6868   0.607   5.009   9.189  2.3427 -1.8560  0.4454
   60CHL1  H16B 6869   0.543   4.840   9.222  0.8537  0.9215 -3.5394
   60CHL1   C17 6870   0.387   4.998   9.228 -0.4606 -0.3751  0.7206
   60CHL1   H17 6871   0.322   4.911   9.250 -1.7571  0.4041  0.0821
   60CHL1   C13 6872   0.361   5.089   9.351 -0.6362 -0.2682  0.1084
   60CHL1   C18 6873   0.441   5.223   9.325 -0.0333  0.0326 -0.6280
   60CHL1  H18A 6874   0.385   5.291   9.258  2.2298  2.0983 -0.5590
   60CHL1  H18B 6875   0.459   5.283   9.417 -0.4563  0.2701 -0.7001
   60CHL1  H18C 6876   0.544   5.203   9.288  0.9604 -0.3843  2.1451
   60CHL1   C12 6877   0.222   5.109   9.388  0.8800  0.0699 -0.7274
   60CHL1  H12A 6878   0.160   5.172   9.321  1.1257  1.2094  0.0898
   60CHL1  H12B 6879   0.173   5.009   9.391  1.0007  0.0257  0.9294
   60CHL1   C11 6880   0.209   5.180   9.523 -0.0653 -0.4893  0.6944
   60CHL1  H11A 6881   0.249   5.283   9.518  0.9085 -0.8978 -0.2217
   60CHL1  H11B 6882   0.101   5.199   9.543 -0.2227 -0.1841 -0.4242
   60CHL1    C9 6883   0.289   5.105   9.641  0.3776 -0.1556  0.3930
   60CHL1    H9 6884   0.238   5.008   9.658  2.6882 -1.4138  0.5615
   60CHL1   C10 6885   0.291   5.169   9.781 -0.3598 -0.1275  0.2695
   60CHL1   C19 6886   0.320   5.323   9.760  0.0345  0.0948 -1.0906
   60CHL1  H19A 6887   0.418   5.327   9.707 -0.0292 -0.6445 -1.2722
   60CHL1  H19B 6888   0.247   5.373   9.692  0.7230  2.3977 -0.2514
   60CHL1  H19C 6889   0.314   5.380   9.855 -0.7896 -0.3482 -0.8713
   60CHL1    C1 6890   0.145   5.161   9.847 -0.2080 -0.5873  0.4000
   60CHL1   H1A 6891   0.082   5.216   9.774 -1.1401 -0.6368  1.1575
   60CHL1   H1B 6892   0.116   5.054   9.844 -0.3892 -0.5147 -0.5693
   60CHL1    C2 6893   0.132   5.202   9.996 -0.3674 -0.4760  0.1347
   60CHL1   H2A 6894   0.039   5.167  10.047 -0.9071  1.1845  0.3587
   60CHL1   H2B 6895   0.132   5.312  10.015 -0.0112 -0.6979  1.5028
   60CHL1   C20 6896   0.376   5.052   9.077 -0.5236 -0.0632 -0.6491
   60CHL1   H20 6897   0.448   5.137   9.070  0.9441 -1.2129 -0.0537
   60CHL1   C21 6898   0.242   5.128   9.056  0.0649 -0.4419 -0.3373
   60CHL1  H21A 6899   0.238   5.203   9.138  2.0036 -0.9439  0.2722
   60CHL1  H21B 6900   0.152   5.064   9.056 -0.9972  1.0085 -0.5686
   60CHL1  H21C 6901   0.247   5.179   8.958  0.6258 -0.5065 -0.3449
   60CHL1   C22 6902   0.388   4.946   8.963  0.3150 -0.2675 -0.3158
   60CHL1  H22A 6903   0.492   4.905   8.969  1.0752  1.4938 -0.8991
   60CHL1  H22B 6904   0.319   4.859   8.975  1.1206 -1.1451 -1.6645
   60CHL1   C23 6905   0.372   4.988   8.820  0.1906  0.4389  0.0954
   60CHL1  H23A 6906   0.381   4.903   8.749  0.0361  1.2612 -0.9393
   60CHL1  H23B 6907   0.264   5.015   8.818  0.2490  0.7630 -2.2277
   60CHL1   C24 6908   0.457   5.110   8.786  0.4033 -0.0405  0.0587
   60CHL1  H24A 6909   0.424   5.191   8.855  0.1400 -1.7812  2.0414
   60CHL1  H24B 6910   0.565   5.093   8.802  1.4392  5.0184  0.3026
   60CHL1   C25 6911   0.445   5.147   8.636  0.1432 -0.1204  0.2207
   60CHL1   H25 6912   0.497   5.244   8.620  0.9318 -0.7537 -1.2191
   60CHL1   C26 6913   0.522   5.052   8.544 -0.3559  0.1709 -0.3831
   60CHL1  H26A 6914   0.546   5.088   8.441  2.4337 -2.8640 -0.9356
   60CHL1  H26B 6915   0.610   5.015   8.600  0.0339  4.6876  2.4448
   60CHL1  H26C 6916   0.463   4.959   8.527 -1.6435  1.2362 -2.1562
   60CHL1   C27 6917   0.301   5.163   8.575  0.4904  0.0530  0.2101
   60CHL1  H27A 6918   0.300   5.190   8.467  2.2032  0.2948  0.2341
   60CHL1  H27B 6919   0.243   5.069   8.585 -2.3424  1.6639  0.2341
   60CHL1  H27C 6920   0.249   5.246   8.628  0.8289 -0.8940  2.1122
   61CHL1    C3 6921   2.393   6.338  10.320  0.2084  0.7000 -0.0554
   61CHL1    H3 6922   2.471   6.411  10.286 -1.1862  1.0153 -2.9008
   61CHL1    O3 6923   2.401   6.337  10.467 -0.4536 -0.3156  0.6337
   61CHL1   H3' 6924   2.359   6.253  10.485  0.7032 -1.2162 -0.7154
   61CHL1    C4 6925   2.257   6.369  10.263  0.5186  0.0091  0.3813
   61CHL1   H4A 6926   2.188   6.287  10.292 -0.2883  0.1269 -1.1152
   61CHL1   H4B 6927   2.228   6.469  10.302  0.2047 -0.8236  2.4428
   61CHL1    C5 6928   2.269   6.370  10.106 -0.4604  1.0249 -0.3990
   61CHL1    C6 6929   2.238   6.485  10.038 -0.3295 -0.5924 -0.7649
   61CHL1    H6 6930   2.202   6.570  10.098  3.6641  2.1806 -1.8997
   61CHL1    C7 6931   2.235   6.496   9.890 -0.3505  0.2789 -0.6119
   61CHL1   H7A 6932   2.132   6.534   9.873 -1.0932 -1.1812  0.4261
   61CHL1   H7B 6933   2.315   6.565   9.855  0.4957 -0.1244  0.4523
   61CHL1    C8 6934   2.251   6.360   9.819 -0.3232 -0.6433 -0.4887
   61CHL1    H8 6935   2.157   6.303   9.831 -1.4106  1.1821  0.1216
   61CHL1   C14 6936   2.286   6.371   9.673  0.1559 -0.1887 -0.1773
   61CHL1   H14 6937   2.382   6.427   9.677 -0.1800  0.4982 -1.2983
   61CHL1   C15 6938   2.199   6.457   9.581  0.3429  0.2542 -0.0132
   61CHL1  H15A 6939   2.095   6.417   9.582  0.3496  0.0740 -2.1508
   61CHL1  H15B 6940   2.191   6.561   9.620 -1.7553  0.4356 -0.8031
   61CHL1   C16 6941   2.246   6.428   9.442 -0.0020 -0.1169 -0.3794
   61CHL1  H16A 6942   2.162   6.422   9.369 -0.2663  1.5546 -0.2631
   61CHL1  H16B 6943   2.310   6.512   9.406  0.0635  0.9012  1.9675
   61CHL1   C17 6944   2.333   6.297   9.453 -0.6597 -0.2705  0.5188
   61CHL1   H17 6945   2.433   6.345   9.462 -1.1417  0.4454  2.5730
   61CHL1   C13 6946   2.317   6.239   9.600  0.0387 -0.2067  1.0093
   61CHL1   C18 6947   2.192   6.147   9.610  0.2909  0.5109  0.0409
   61CHL1  H18A 6948   2.167   6.118   9.715 -0.6516  2.4248  0.3983
   61CHL1  H18B 6949   2.097   6.190   9.570 -2.7637 -3.2123  2.5271
   61CHL1  H18C 6950   2.208   6.059   9.545 -0.8498  1.8761 -2.2228
   61CHL1   C12 6951   2.444   6.182   9.660 -0.1056  0.1202 -0.2231
   61CHL1  H12A 6952   2.487   6.089   9.617  0.7397  0.2035  0.4231
   61CHL1  H12B 6953   2.529   6.253   9.650  0.4209 -0.4229  0.3472
   61CHL1   C11 6954   2.419   6.157   9.811 -0.7473  0.0175 -0.6639
   61CHL1  H11A 6955   2.352   6.069   9.815  0.0417 -0.5976 -0.7119
   61CHL1  H11B 6956   2.519   6.147   9.859  0.2407  1.5969 -2.2683
   61CHL1    C9 6957   2.364   6.279   9.885  0.5751  0.5403  0.0460
   61CHL1    H9 6958   2.455   6.342   9.887  2.3491 -1.9269  0.2476
   61CHL1   C10 6959   2.327   6.250  10.033  0.5512  0.5992 -0.0285
   61CHL1   C19 6960   2.217   6.138  10.041  0.5028  0.7190 -0.2066
   61CHL1  H19A 6961   2.188   6.107  10.143  0.6186  0.4967 -0.2408
   61CHL1  H19B 6962   2.129   6.168   9.981 -0.2239 -1.2363 -0.1715
   61CHL1  H19C 6963   2.257   6.047   9.992  0.7341  1.1895 -0.9274
   61CHL1    C1 6964   2.449   6.197  10.110 -0.6659  0.1727  0.0330
   61CHL1   H1A 6965   2.463   6.089  10.087 -1.6130 -0.4558  2.1735
   61CHL1   H1B 6966   2.544   6.236  10.067  0.1549 -0.5736  1.1103
   61CHL1    C2 6967   2.444   6.198  10.263 -0.5389  0.1546  0.5002
   61CHL1   H2A 6968   2.545   6.182  10.307 -0.4410 -1.3856 -0.2330
   61CHL1   H2B 6969   2.377   6.115  10.296  1.3837 -1.2186  1.1223
   61CHL1   C20 6970   2.318   6.195   9.336  0.1841  0.3336 -0.2113
   61CHL1   H20 6971   2.212   6.159   9.339  0.7204 -1.3149 -0.1920
   61CHL1   C21 6972   2.417   6.079   9.359 -0.8311  0.5312  0.3803
   61CHL1  H21A 6973   2.427   6.016   9.268  0.9667 -1.6880  2.0160
   61CHL1  H21B 6974   2.397   6.010   9.444  1.2307 -1.1371 -0.4042
   61CHL1  H21C 6975   2.519   6.117   9.379  0.1195 -0.2725 -2.3858
   61CHL1   C22 6976   2.335   6.255   9.188  0.0482 -0.2191 -0.2012
   61CHL1  H22A 6977   2.301   6.181   9.112  0.0685  1.5062 -1.9719
   61CHL1  H22B 6978   2.253   6.329   9.183  1.1804  0.9754 -2.5618
   61CHL1   C23 6979   2.477   6.312   9.154 -0.1843  0.5534  0.1192
   61CHL1  H23A 6980   2.509   6.379   9.236 -1.1806 -0.4705  1.4059
   61CHL1  H23B 6981   2.546   6.225   9.157  0.4836  0.9406 -2.2415
   61CHL1   C24 6982   2.479   6.381   9.021  0.3751  0.5406 -0.2260
   61CHL1  H24A 6983   2.471   6.313   8.934 -0.2055  1.4915 -0.9297
   61CHL1  H24B 6984   2.385   6.438   9.035 -1.0921 -1.6245 -0.9235
   61CHL1   C25 6985   2.602   6.473   9.008  0.5246 -0.4449 -0.7510
   61CHL1   H25 6986   2.605   6.529   9.104  0.7582  1.8814 -2.0180
   61CHL1   C26 6987   2.722   6.384   9.004 -0.2717 -0.3824  0.5656
   61CHL1  H26A 6988   2.816   6.440   8.986  1.5822 -3.5520 -0.5236
   61CHL1  H26B 6989   2.743   6.319   9.091 -2.0329  0.3175  1.5750
   61CHL1  H26C 6990   2.709   6.318   8.915 -1.4037 -1.2435  1.3307
   61CHL1   C27 6991   2.594   6.578   8.893 -0.1131  0.6235 -0.3265
   61CHL1  H27A 6992   2.583   6.515   8.802  2.6629 -0.7448  0.1836
   61CHL1  H27B 6993   2.500   6.636   8.905 -0.5555  0.3812 -2.2884
   61CHL1  H27C 6994   2.684   6.643   8.884  0.9383 -0.8163 -0.6171
   62CHL1    C3 6995   5.038   2.837  10.052 -0.2320  0.0298  0.3793
   62CHL1    H3 6996   5.131   2.890  10.022  0.9173 -0.8137  2.2961
   62CHL1    O3 6997   4.986   2.897  10.170 -0.6102 -0.2283  0.2565
   62CHL1   H3' 6998   4.910   2.846  10.196 -1.1778  0.7579  0.5970
   62CHL1    C4 6999   4.926   2.851   9.946 -0.1330 -0.1487 -0.7698
   62CHL1   H4A 7000   4.829   2.814   9.988  0.0553  0.3708  0.1367
   62CHL1   H4B 7001   4.915   2.960   9.931  0.4546  0.4847  2.6285
   62CHL1    C5 7002   4.965   2.781   9.816  0.0723 -0.0248 -0.1438
   62CHL1    C6 7003   4.959   2.845   9.692 -0.4833  0.3070  0.0238
   62CHL1    H6 7004   4.936   2.953   9.690 -1.0836  0.1994 -2.9821
   62CHL1    C7 7005   4.964   2.770   9.558  0.7516 -0.3403  0.1578
   62CHL1   H7A 7006   4.871   2.794   9.503  0.9629  1.6815  0.6211
   62CHL1   H7B 7007   5.049   2.819   9.507 -1.6413  2.3120 -1.5638
   62CHL1    C8 7008   4.976   2.616   9.575  0.3967  0.1394  0.2059
   62CHL1    H8 7009   4.870   2.585   9.578 -0.4328  2.6614 -0.6868
   62CHL1   C14 7010   5.033   2.559   9.451  0.9995 -0.2451  0.2505
   62CHL1   H14 7011   5.139   2.592   9.449  0.2049  2.5195  0.3417
   62CHL1   C15 7012   4.988   2.610   9.309  0.3261  0.3589  0.6094
   62CHL1  H15A 7013   4.878   2.620   9.300  0.3219 -1.1767 -2.2436
   62CHL1  H15B 7014   5.032   2.708   9.282  0.8769  0.9756  3.3903
   62CHL1   C16 7015   5.043   2.498   9.225 -0.6565  0.1517  0.7907
   62CHL1  H16A 7016   4.961   2.454   9.165  0.1335  0.4505 -0.5449
   62CHL1  H16B 7017   5.116   2.542   9.153  0.6701 -1.6172  0.9920
   62CHL1   C17 7018   5.102   2.379   9.319  0.4265 -0.1178  0.0302
   62CHL1   H17 7019   5.209   2.401   9.337  0.3448 -1.0710  2.0258
   62CHL1   C13 7020   5.037   2.407   9.459  0.2789  0.4525  0.2214
   62CHL1   C18 7021   4.888   2.353   9.456 -0.0525 -0.5813  0.4886
   62CHL1  H18A 7022   4.832   2.379   9.364  1.4477 -0.6506 -0.4763
   62CHL1  H18B 7023   4.897   2.242   9.460  0.1558 -0.5514  0.8719
   62CHL1  H18C 7024   4.825   2.381   9.544  1.0278 -0.0402  1.1040
   62CHL1   C12 7025   5.123   2.361   9.582  0.0207 -0.4780 -0.0120
   62CHL1  H12A 7026   5.130   2.250   9.585  2.3508 -0.3670  0.4308
   62CHL1  H12B 7027   5.222   2.410   9.568 -0.5041  1.2717  1.8026
   62CHL1   C11 7028   5.080   2.423   9.710  0.8952 -0.2228 -0.4155
   62CHL1  H11A 7029   4.991   2.360   9.733  0.8180  0.0059 -0.0729
   62CHL1  H11B 7030   5.144   2.393   9.796  0.6694 -2.7817 -1.0646
   62CHL1    C9 7031   5.054   2.576   9.703 -0.5659 -0.2998  0.7263
   62CHL1    H9 7032   5.148   2.633   9.693 -0.9583  0.3130  0.4813
   62CHL1   C10 7033   4.990   2.634   9.835 -0.7206  0.1218  0.5670
   62CHL1   C19 7034   4.855   2.558   9.861 -1.0581  0.4038  0.0673
   62CHL1  H19A 7035   4.857   2.448   9.878 -0.1818 -0.0128 -2.3901
   62CHL1  H19B 7036   4.805   2.597   9.952 -0.1699  1.9271 -0.0754
   62CHL1  H19C 7037   4.777   2.568   9.784 -1.1371 -1.5210 -0.1494
   62CHL1    C1 7038   5.101   2.616   9.949  0.1439  0.0356  0.4618
   62CHL1   H1A 7039   5.115   2.511   9.980  0.9583  0.2521  0.8411
   62CHL1   H1B 7040   5.197   2.656   9.911  0.6781 -1.1455  0.5477
   62CHL1    C2 7041   5.066   2.689  10.077  0.0119 -0.2601 -0.2220
   62CHL1   H2A 7042   5.160   2.686  10.137 -0.4736 -0.4857  0.5378
   62CHL1   H2B 7043   4.981   2.639  10.128 -0.2795 -1.0682 -1.4752
   62CHL1   C20 7044   5.091   2.238   9.255 -0.6240  0.0732  0.1489
   62CHL1   H20 7045   4.989   2.216   9.217 -0.0644  0.9709 -2.0680
   62CHL1   C21 7046   5.143   2.126   9.344 -0.5468  0.7528 -0.4712
   62CHL1  H21A 7047   5.245   2.142   9.387 -0.6257 -1.3056  0.6269
   62CHL1  H21B 7048   5.155   2.032   9.288 -2.5711  0.5459 -0.6050
   62CHL1  H21C 7049   5.076   2.111   9.431  2.6956  0.2097  2.1758
   62CHL1   C22 7050   5.174   2.240   9.123 -0.1522  0.7733 -0.2941
   62CHL1  H22A 7051   5.135   2.157   9.060 -3.9069  1.9093  0.3031
   62CHL1  H22B 7052   5.140   2.329   9.066  0.1060  0.0789 -1.5682
   62CHL1   C23 7053   5.330   2.239   9.119  0.1626  0.3835 -0.9660
   62CHL1  H23A 7054   5.371   2.326   9.174 -0.6377 -0.7119  1.5068
   62CHL1  H23B 7055   5.358   2.147   9.175  2.6657  1.0125 -1.0754
   62CHL1   C24 7056   5.388   2.230   8.972 -0.2134  0.6030 -0.0811
   62CHL1  H24A 7057   5.326   2.158   8.913  1.8531 -1.5457  0.2229
   62CHL1  H24B 7058   5.362   2.326   8.924 -1.3126 -0.7734 -2.4126
   62CHL1   C25 7059   5.539   2.206   8.957  0.0167 -0.1835 -0.3175
   62CHL1   H25 7060   5.595   2.279   9.019 -2.2932 -1.2943  3.3992
   62CHL1   C26 7061   5.579   2.074   8.994  0.2211  1.2697  0.3173
   62CHL1  H26A 7062   5.678   2.055   8.947 -0.7390 -1.0358 -0.9455
   62CHL1  H26B 7063   5.584   2.050   9.103  2.3846  0.8932  0.1766
   62CHL1  H26C 7064   5.525   1.992   8.941  1.1961 -0.3567  1.7079
   62CHL1   C27 7065   5.578   2.226   8.810 -1.0149  0.2452 -0.4559
   62CHL1  H27A 7066   5.555   2.332   8.783 -1.6017  0.7256  1.6627
   62CHL1  H27B 7067   5.686   2.207   8.794 -0.6748  2.4772 -1.1668
   62CHL1  H27C 7068   5.526   2.154   8.744 -0.3863 -2.6313  1.9736
   63CHL1    C3 7069   6.110   2.823  10.232 -0.3489 -0.5303  0.2327
   63CHL1    H3 7070   6.049   2.915  10.223 -0.5111 -0.7539 -1.3435
   63CHL1    O3 7071   6.098   2.784  10.365 -0.1166 -0.0295 -0.9138
   63CHL1   H3' 7072   6.155   2.706  10.363 -2.1669 -1.6717  0.4081
   63CHL1    C4 7073   6.037   2.714  10.147 -0.1415 -0.9346  0.6353
   63CHL1   H4A 7074   6.094   2.619  10.159  0.2366 -0.4679  2.9283
   63CHL1   H4B 7075   5.937   2.709  10.195 -0.4709 -0.4456  0.0257
   63CHL1    C5 7076   6.025   2.758  10.001 -0.0002  0.2237 -0.2243
   63CHL1    C6 7077   5.905   2.772   9.938  0.1598  0.7591  0.7609
   63CHL1    H6 7078   5.808   2.746   9.983  0.8681 -3.0935  0.3810
   63CHL1    C7 7079   5.892   2.809   9.796  0.5024 -0.0792  0.5323
   63CHL1   H7A 7080   5.808   2.750   9.752 -2.1490  3.0254  1.0475
   63CHL1   H7B 7081   5.862   2.915   9.782 -0.8945 -0.5307 -0.1027
   63CHL1    C8 7082   6.021   2.791   9.717 -0.3588  0.0702 -0.0931
   63CHL1    H8 7083   6.034   2.681   9.707  1.8271  0.3605 -1.0368
   63CHL1   C14 7084   6.010   2.852   9.578  0.2476  0.0091 -0.2446
   63CHL1   H14 7085   5.987   2.959   9.597 -1.6240 -0.5354  0.8406
   63CHL1   C15 7086   5.888   2.817   9.491 -0.1702  0.7347  0.2160
   63CHL1  H15A 7087   5.878   2.707   9.483  0.2500  0.5514  1.8332
   63CHL1  H15B 7088   5.793   2.855   9.535 -2.4038 -2.5236 -1.4034
   63CHL1   C16 7089   5.928   2.870   9.356  0.0011  0.1050  0.4919
   63CHL1  H16A 7090   5.913   2.801   9.269  2.4336  0.5693 -0.3693
   63CHL1  H16B 7091   5.878   2.963   9.322 -2.3818 -1.9621 -2.2355
   63CHL1   C17 7092   6.091   2.903   9.359  0.9174  0.1494 -0.0780
   63CHL1   H17 7093   6.086   3.011   9.385 -0.0745  0.3430 -0.9943
   63CHL1   C13 7094   6.135   2.836   9.492  0.0952 -0.3638  0.0148
   63CHL1   C18 7095   6.181   2.690   9.468 -0.6148  0.5670 -0.1151
   63CHL1  H18A 7096   6.196   2.629   9.560  2.9320 -0.2078 -1.0693
   63CHL1  H18B 7097   6.105   2.639   9.405 -0.6239  1.8316 -1.1802
   63CHL1  H18C 7098   6.283   2.687   9.426 -0.3040 -2.0715  0.6570
   63CHL1   C12 7099   6.250   2.921   9.564  0.2434 -0.0029 -0.5718
   63CHL1  H12A 7100   6.343   2.923   9.503  0.1971  2.9386 -0.6680
   63CHL1  H12B 7101   6.217   3.027   9.565 -0.5787 -0.2461  0.7050
   63CHL1   C11 7102   6.271   2.865   9.707 -0.4847 -0.8819  0.3604
   63CHL1  H11A 7103   6.316   2.763   9.700 -0.2335 -0.6573 -2.9616
   63CHL1  H11B 7104   6.341   2.935   9.758 -0.4874  0.9280 -1.9357
   63CHL1    C9 7105   6.140   2.854   9.792 -0.5746  0.2097 -0.7973
   63CHL1    H9 7106   6.101   2.957   9.805  1.1282  0.7464  0.4394
   63CHL1   C10 7107   6.155   2.793   9.938  0.2133 -1.0091 -0.1185
   63CHL1   C19 7108   6.232   2.661   9.920  0.2139  0.2369  0.4402
   63CHL1  H19A 7109   6.339   2.686   9.908  0.0884  1.2725  1.3253
   63CHL1  H19B 7110   6.220   2.592  10.007 -1.8009  1.8134  1.5050
   63CHL1  H19C 7111   6.188   2.606   9.835 -2.1360  0.6935  1.2790
   63CHL1    C1 7112   6.236   2.893  10.027  0.9729  0.6932  0.7856
   63CHL1   H1A 7113   6.344   2.897  10.000  0.9662 -0.5932  0.5273
   63CHL1   H1B 7114   6.186   2.991  10.011 -1.7956 -0.7265  0.0379
   63CHL1    C2 7115   6.251   2.845  10.175  0.6745 -0.1341  0.2210
   63CHL1   H2A 7116   6.309   2.926  10.223  1.1911 -0.7588  0.6717
   63CHL1   H2B 7117   6.312   2.752  10.183 -0.5053 -0.8605  1.0261
   63CHL1   C20 7118   6.160   2.874   9.229 -0.0140  0.4250 -0.0710
   63CHL1   H20 7119   6.138   2.768   9.203 -0.6683  0.3410  0.7629
   63CHL1   C21 7120   6.316   2.909   9.228 -0.9770  0.9229 -0.0306
   63CHL1  H21A 7121   6.337   3.014   9.258  0.5928  1.3490 -2.4192
   63CHL1  H21B 7122   6.364   2.894   9.129  0.2040  2.3129  0.2938
   63CHL1  H21C 7123   6.374   2.844   9.298  1.3738  0.3182 -2.4026
   63CHL1   C22 7124   6.087   2.962   9.124  0.4584  0.0999 -0.2961
   63CHL1  H22A 7125   5.978   2.940   9.130 -0.0897  2.7472  0.5731
   63CHL1  H22B 7126   6.092   3.066   9.163  0.7281  0.5555 -1.5002
   63CHL1   C23 7127   6.113   2.949   8.976  0.2362  0.3396  0.2533
   63CHL1  H23A 7128   6.220   2.976   8.964  0.3300  0.1859  0.7178
   63CHL1  H23B 7129   6.094   2.842   8.954  1.2106 -0.5461  3.2459
   63CHL1   C24 7130   6.029   3.034   8.883  0.2649 -0.2404 -0.0208
   63CHL1  H24A 7131   5.924   3.023   8.918  1.0891  0.3015  2.8736
   63CHL1  H24B 7132   6.052   3.142   8.896 -2.3721  0.5045 -0.8695
   63CHL1   C25 7133   6.038   3.000   8.732  0.6689 -0.7622  0.1547
   63CHL1   H25 7134   6.145   3.019   8.710  1.1318 -2.1944  1.0170
   63CHL1   C26 7135   5.998   2.858   8.695  0.1809 -0.0314  0.2501
   63CHL1  H26A 7136   5.912   2.814   8.750  0.1731 -1.2134 -0.6568
   63CHL1  H26B 7137   5.957   2.870   8.592 -4.1401 -2.9084  1.3353
   63CHL1  H26C 7138   6.079   2.782   8.698 -1.0637 -1.3962  1.3735
   63CHL1   C27 7139   5.956   3.109   8.656 -0.0748 -0.5194  0.5233
   63CHL1  H27A 7140   5.998   3.211   8.667  1.1103 -1.0089  0.6298
   63CHL1  H27B 7141   5.957   3.080   8.549 -0.8807 -0.8130  0.5869
   63CHL1  H27C 7142   5.852   3.106   8.694  0.2593 -1.6625  1.3737
   64CHL1    C3 7143   6.067   3.251  10.082  0.8120 -0.3410  0.2144
   64CHL1    H3 7144   6.159   3.209  10.037 -0.4246 -0.4850 -2.3384
   64CHL1    O3 7145   6.056   3.216  10.220  0.5399 -0.0882 -0.3802
   64CHL1   H3' 7146   5.968   3.240  10.247  0.0354 -2.9082  0.8163
   64CHL1    C4 7147   6.057   3.397  10.061 -0.0724  0.6566 -0.0243
   64CHL1   H4A 7148   5.966   3.427  10.116 -1.3336 -1.2997 -0.9507
   64CHL1   H4B 7149   6.150   3.439  10.105  1.0822 -1.7055 -0.0340
   64CHL1    C5 7150   6.044   3.440   9.918 -0.4990 -0.0919  0.4742
   64CHL1    C6 7151   6.122   3.528   9.861 -0.4443 -0.1009 -0.1545
   64CHL1    H6 7152   6.207   3.569   9.917  0.1680 -0.0103 -1.1323
   64CHL1    C7 7153   6.130   3.579   9.722 -0.1785 -0.2077  0.1366
   64CHL1   H7A 7154   6.129   3.690   9.714 -0.5386 -0.3019 -1.5247
   64CHL1   H7B 7155   6.222   3.542   9.673  1.2285  1.4173  1.4397
   64CHL1    C8 7156   6.015   3.528   9.632 -0.0842  0.5135 -0.1130
   64CHL1    H8 7157   5.921   3.585   9.650 -1.9071 -2.1538 -0.6795
   64CHL1   C14 7158   6.057   3.524   9.490 -0.2176  0.2655 -0.0519
   64CHL1   H14 7159   6.135   3.445   9.482  0.4735  0.8406  0.8596
   64CHL1   C15 7160   6.120   3.652   9.430 -0.2895 -0.7915 -0.4176
   64CHL1  H15A 7161   6.064   3.737   9.475  1.8973  0.5791 -0.1321
   64CHL1  H15B 7162   6.227   3.662   9.457  0.0647  0.5480 -2.1591
   64CHL1   C16 7163   6.105   3.640   9.281  0.7208 -0.4682 -0.0875
   64CHL1  H16A 7164   6.054   3.732   9.246  1.3537 -0.5577 -1.3060
   64CHL1  H16B 7165   6.203   3.643   9.230  1.3784  0.3764  1.2031
   64CHL1   C17 7166   6.022   3.508   9.249 -0.5844  0.0524 -0.1823
   64CHL1   H17 7167   6.095   3.424   9.256 -1.5380 -0.8739 -0.9246
   64CHL1   C13 7168   5.955   3.488   9.384  0.1679  0.1176  0.5428
   64CHL1   C18 7169   5.826   3.583   9.392  0.0817  0.1126 -0.0852
   64CHL1  H18A 7170   5.771   3.552   9.483 -0.9797  0.1945 -0.6795
   64CHL1  H18B 7171   5.858   3.689   9.395  2.2020 -0.4347 -1.1471
   64CHL1  H18C 7172   5.750   3.564   9.313  0.2767 -2.3086  0.2415
   64CHL1   C12 7173   5.916   3.341   9.424 -0.3489 -0.0813  0.1266
   64CHL1  H12A 7174   5.849   3.288   9.353  0.1395 -1.3343  0.5642
   64CHL1  H12B 7175   6.013   3.288   9.410 -0.5522  0.0246 -1.9585
   64CHL1   C11 7176   5.881   3.322   9.580 -0.5863 -0.5601 -0.5324
   64CHL1  H11A 7177   5.775   3.356   9.592 -0.7737  0.0514 -3.3165
   64CHL1  H11B 7178   5.877   3.212   9.597  0.7558 -0.5910 -0.3551
   64CHL1    C9 7179   5.979   3.384   9.678  0.2669 -0.4799  0.2293
   64CHL1    H9 7180   6.075   3.329   9.675  0.1758 -0.6940  0.9590
   64CHL1   C10 7181   5.943   3.361   9.830  0.1737  0.5795 -0.2412
   64CHL1   C19 7182   5.798   3.404   9.856 -0.1214 -0.3628 -0.6198
   64CHL1  H19A 7183   5.785   3.503   9.809  0.6426 -0.1149 -0.3274
   64CHL1  H19B 7184   5.723   3.327   9.828 -1.4894  0.9643 -0.6635
   64CHL1  H19C 7185   5.776   3.420   9.964  1.7288  1.4554 -0.4506
   64CHL1    C1 7186   5.957   3.209   9.865  0.2131  0.1016  0.5484
   64CHL1   H1A 7187   5.869   3.160   9.818  0.2163  0.6164 -0.0105
   64CHL1   H1B 7188   6.048   3.166   9.818 -1.4027 -2.5720 -0.3317
   64CHL1    C2 7189   5.950   3.178  10.006  0.4603 -0.8403  0.5181
   64CHL1   H2A 7190   5.954   3.070  10.032  0.5035 -0.2802  3.1331
   64CHL1   H2B 7191   5.852   3.220  10.038  0.0389  0.5892 -2.3178
   64CHL1   C20 7192   5.941   3.511   9.118 -0.7262  0.5883  0.2199
   64CHL1   H20 7193   5.867   3.594   9.124  0.3862  1.4964  2.8684
   64CHL1   C21 7194   5.870   3.377   9.091 -0.2477  0.4183  0.2376
   64CHL1  H21A 7195   5.785   3.347   9.157  1.6004 -1.4306  1.9010
   64CHL1  H21B 7196   5.940   3.291   9.101 -2.0040 -1.3694 -1.8308
   64CHL1  H21C 7197   5.826   3.378   8.989  0.1119 -0.8171  0.0631
   64CHL1   C22 7198   6.025   3.549   8.992 -0.5009  0.2292  0.3225
   64CHL1  H22A 7199   5.960   3.539   8.902  0.2758 -0.1649 -0.2153
   64CHL1  H22B 7200   6.066   3.652   9.001 -0.9841  0.2903  2.0204
   64CHL1   C23 7201   6.140   3.448   8.966  0.3045 -0.3981  0.1823
   64CHL1  H23A 7202   6.214   3.449   9.050  1.5042 -1.5524 -0.8212
   64CHL1  H23B 7203   6.104   3.344   8.957 -0.5663  0.0452 -1.7752
   64CHL1   C24 7204   6.221   3.476   8.841  0.1158 -0.1188 -0.3206
   64CHL1  H24A 7205   6.154   3.444   8.759  2.5474 -0.1921 -2.3931
   64CHL1  H24B 7206   6.227   3.587   8.842  0.2462 -0.1281 -0.1213
   64CHL1   C25 7207   6.353   3.403   8.828  0.1407  0.4381  0.2451
   64CHL1   H25 7208   6.424   3.451   8.899 -0.5321 -0.1444  1.3526
   64CHL1   C26 7209   6.343   3.251   8.854  0.3286 -0.2942 -0.0623
   64CHL1  H26A 7210   6.249   3.220   8.804 -0.3991  1.2824  0.2804
   64CHL1  H26B 7211   6.433   3.194   8.821  0.3955  0.0625 -0.5059
   64CHL1  H26C 7212   6.337   3.245   8.965 -1.2431  0.7078 -0.0616
   64CHL1   C27 7213   6.394   3.427   8.680  0.3185  0.7110  1.2919
   64CHL1  H27A 7214   6.326   3.389   8.602 -0.4099  1.1676  1.6953
   64CHL1  H27B 7215   6.401   3.536   8.661  0.9575  0.3073 -1.0204
   64CHL1  H27C 7216   6.493   3.380   8.665 -0.2486  0.0766 -0.6926
   65CHL1    C3 7217   6.521   6.411  10.273  0.1864  0.0082  0.3645
   65CHL1    H3 7218   6.586   6.496  10.247 -0.6054  0.5882  0.2365
   65CHL1    O3 7219   6.522   6.399  10.414 -0.2345 -0.4825 -0.1990
   65CHL1   H3' 7220   6.482   6.314  10.433  0.8193 -0.7671  0.9069
   65CHL1    C4 7221   6.373   6.440  10.239 -0.1711  0.3625 -0.5400
   65CHL1   H4A 7222   6.308   6.368  10.292  1.5595 -1.9326 -1.3693
   65CHL1   H4B 7223   6.343   6.535  10.288 -2.0246 -0.1822 -0.5798
   65CHL1    C5 7224   6.352   6.437  10.085 -0.0813  0.4577 -0.2170
   65CHL1    C6 7225   6.299   6.546  10.024 -0.3767  0.1012  0.1569
   65CHL1    H6 7226   6.262   6.628  10.087  1.1184 -0.2863  1.5956
   65CHL1    C7 7227   6.266   6.550   9.875  0.7532 -0.8684 -0.1543
   65CHL1   H7A 7228   6.166   6.592   9.854  0.8122 -0.7523 -0.2035
   65CHL1   H7B 7229   6.331   6.613   9.811 -1.6068  0.4302 -1.3829
   65CHL1    C8 7230   6.273   6.405   9.813  0.6263 -0.8971  0.4648
   65CHL1    H8 7231   6.176   6.353   9.830  0.8002 -0.8089  1.9014
   65CHL1   C14 7232   6.284   6.423   9.662  0.3874  0.5387 -0.0628
   65CHL1   H14 7233   6.364   6.497   9.638 -0.2788  1.2422 -0.1451
   65CHL1   C15 7234   6.166   6.478   9.589  0.0664 -0.1157  0.0074
   65CHL1  H15A 7235   6.074   6.439   9.637 -1.7518  2.3534 -1.2175
   65CHL1  H15B 7236   6.151   6.587   9.597 -2.9313 -0.0186 -3.9076
   65CHL1   C16 7237   6.184   6.434   9.447  0.2436  0.2853  0.0509
   65CHL1  H16A 7238   6.094   6.373   9.425  1.4200 -0.7528 -2.3390
   65CHL1  H16B 7239   6.189   6.521   9.379  1.3645 -0.8120 -1.3545
   65CHL1   C17 7240   6.313   6.352   9.435 -0.5753  0.1026 -0.6434
   65CHL1   H17 7241   6.399   6.422   9.426 -0.5705 -0.0805 -2.3489
   65CHL1   C13 7242   6.320   6.296   9.578  0.4042 -0.6213 -0.0874
   65CHL1   C18 7243   6.212   6.196   9.593 -0.2925 -0.0456 -0.3300
   65CHL1  H18A 7244   6.118   6.200   9.534 -0.7009 -2.0406  0.1332
   65CHL1  H18B 7245   6.247   6.097   9.556 -0.4175 -0.2580  0.1151
   65CHL1  H18C 7246   6.184   6.177   9.699  1.4572 -0.9462  0.0017
   65CHL1   C12 7247   6.455   6.248   9.628  0.2825  0.5171  0.1775
   65CHL1  H12A 7248   6.473   6.152   9.575  0.3046  1.1592 -1.0064
   65CHL1  H12B 7249   6.531   6.325   9.603 -1.9406  2.6980 -0.2520
   65CHL1   C11 7250   6.437   6.217   9.781 -0.0487  0.4656  0.2056
   65CHL1  H11A 7251   6.373   6.129   9.804  0.6654  0.1360  1.0196
   65CHL1  H11B 7252   6.535   6.172   9.810 -0.3025 -0.7926 -0.8156
   65CHL1    C9 7253   6.403   6.341   9.865 -0.1074  0.9022  0.0414
   65CHL1    H9 7254   6.489   6.409   9.848  3.5826 -3.2239  0.4548
   65CHL1   C10 7255   6.399   6.314  10.015 -0.1921 -0.2312  0.1936
   65CHL1   C19 7256   6.293   6.196  10.052 -0.1774  0.0019  0.1456
   65CHL1  H19A 7257   6.307   6.111   9.981 -0.2052 -1.2034  1.5451
   65CHL1  H19B 7258   6.301   6.155  10.155 -1.0294 -1.1349 -0.2233
   65CHL1  H19C 7259   6.192   6.242  10.045 -1.1271 -1.9141  0.6462
   65CHL1    C1 7260   6.544   6.272  10.069  0.2981 -0.4355  0.5526
   65CHL1   H1A 7261   6.587   6.177  10.030 -0.2935  1.2893 -5.1386
   65CHL1   H1B 7262   6.616   6.347  10.030 -0.8951 -0.7765 -2.5198
   65CHL1    C2 7263   6.559   6.275  10.222 -0.2429  0.4354  0.2838
   65CHL1   H2A 7264   6.662   6.249  10.255 -0.7538 -0.6349  1.0962
   65CHL1   H2B 7265   6.493   6.198  10.267  1.4675 -1.6115 -0.5419
   65CHL1   C20 7266   6.330   6.247   9.316 -0.2474  0.0648 -0.7051
   65CHL1   H20 7267   6.377   6.155   9.357 -1.8633 -0.9021 -0.9234
   65CHL1   C21 7268   6.437   6.307   9.227  0.9420 -0.0621 -0.4651
   65CHL1  H21A 7269   6.532   6.323   9.281  0.4448  0.4596  0.2863
   65CHL1  H21B 7270   6.414   6.404   9.178  1.9740  0.9666  1.0453
   65CHL1  H21C 7271   6.466   6.238   9.144  1.6007  1.9740 -2.0135
   65CHL1   C22 7272   6.204   6.210   9.240  0.4699  0.9959  0.1288
   65CHL1  H22A 7273   6.138   6.157   9.312  0.2270  0.7811 -0.2470
   65CHL1  H22B 7274   6.166   6.310   9.213  1.4276  1.5711  0.8656
   65CHL1   C23 7275   6.223   6.114   9.120 -0.1901 -0.3316 -0.8090
   65CHL1  H23A 7276   6.124   6.116   9.070 -0.8980  1.9320  0.5264
   65CHL1  H23B 7277   6.290   6.167   9.048  0.6182  0.0548  0.1982
   65CHL1   C24 7278   6.290   5.983   9.150  0.1101  0.4718 -0.9215
   65CHL1  H24A 7279   6.379   5.981   9.217  1.0396 -2.4146 -2.0737
   65CHL1  H24B 7280   6.211   5.927   9.204  0.0125 -0.2561 -1.7938
   65CHL1   C25 7281   6.321   5.899   9.033  0.0497 -0.3041  0.6537
   65CHL1   H25 7282   6.402   5.944   8.971  1.3995 -0.6347  2.1253
   65CHL1   C26 7283   6.366   5.763   9.080 -0.0034 -0.1119 -0.4868
   65CHL1  H26A 7284   6.284   5.711   9.134  0.3085 -2.3410 -2.0333
   65CHL1  H26B 7285   6.408   5.701   8.998  0.9605 -3.1628  2.1063
   65CHL1  H26C 7286   6.447   5.771   9.155  1.6582 -0.8390 -2.1120
   65CHL1   C27 7287   6.194   5.871   8.951 -0.0092  0.3244 -0.2192
   65CHL1  H27A 7288   6.160   5.956   8.888 -0.0941 -0.2565 -0.9627
   65CHL1  H27B 7289   6.209   5.789   8.879 -0.6761  2.3408 -2.8104
   65CHL1  H27C 7290   6.113   5.849   9.024 -0.6312 -0.5768 -1.1714
   66CHL1    C3 7291   5.498   5.342  10.475  0.4413 -0.5885 -0.9013
   66CHL1    H3 7292   5.582   5.399  10.432  2.6352 -2.6633  0.3990
   66CHL1    O3 7293   5.515   5.337  10.612  0.6848  0.3296  0.0155
   66CHL1   H3' 7294   5.590   5.279  10.628 -0.9759 -1.5802  1.4887
   66CHL1    C4 7295   5.367   5.407  10.437  0.1736 -0.8093 -0.3646
   66CHL1   H4A 7296   5.287   5.348  10.487 -1.7677  1.0547 -1.1032
   66CHL1   H4B 7297   5.361   5.507  10.485 -0.1911 -1.4822  1.0575
   66CHL1    C5 7298   5.349   5.419  10.289 -0.0010 -0.0736  1.1169
   66CHL1    C6 7299   5.317   5.537  10.231  0.0464  0.0571 -0.6116
   66CHL1    H6 7300   5.305   5.623  10.298  0.9390  1.2204 -1.8875
   66CHL1    C7 7301   5.273   5.549  10.086 -0.1162  0.3381 -0.5338
   66CHL1   H7A 7302   5.180   5.609  10.083 -0.4772 -0.1008  0.9734
   66CHL1   H7B 7303   5.353   5.612  10.040  0.8124  0.0229  0.6044
   66CHL1    C8 7304   5.259   5.408  10.015  0.7049 -0.9912 -0.5433
   66CHL1    H8 7305   5.155   5.372  10.033  0.5612  0.1391  1.1258
   66CHL1   C14 7306   5.264   5.428   9.861 -0.4497 -0.0245  0.0734
   66CHL1   H14 7307   5.368   5.454   9.831 -0.5016 -0.4353 -0.4828
   66CHL1   C15 7308   5.173   5.531   9.796 -0.6808  0.4072  0.3276
   66CHL1  H15A 7309   5.082   5.532   9.860 -0.1087  2.5727  1.1969
   66CHL1  H15B 7310   5.221   5.631   9.794  1.7104 -0.6594 -1.7198
   66CHL1   C16 7311   5.163   5.481   9.650  0.3025  1.2011 -0.0201
   66CHL1  H16A 7312   5.060   5.445   9.630  1.1377 -1.6843  0.3588
   66CHL1  H16B 7313   5.193   5.551   9.569 -0.3999 -0.3998 -1.7441
   66CHL1   C17 7314   5.243   5.341   9.641 -0.5883  0.4400 -0.0738
   66CHL1   H17 7315   5.350   5.370   9.628 -0.2766 -0.1273  1.1259
   66CHL1   C13 7316   5.236   5.294   9.788  0.3745  0.2915 -0.3310
   66CHL1   C18 7317   5.096   5.228   9.813  0.1676 -0.4025 -0.2443
   66CHL1  H18A 7318   5.011   5.296   9.793 -0.3517 -1.1737 -0.7569
   66CHL1  H18B 7319   5.071   5.135   9.757 -1.2230  0.0823 -0.4706
   66CHL1  H18C 7320   5.083   5.193   9.918 -2.3959 -0.7595 -0.6225
   66CHL1   C12 7321   5.354   5.204   9.827 -0.9992  0.0247  0.7681
   66CHL1  H12A 7322   5.351   5.117   9.758 -1.6037  0.4260  0.2695
   66CHL1  H12B 7323   5.446   5.259   9.799 -0.9850 -0.1955  0.3763
   66CHL1   C11 7324   5.360   5.174   9.974 -0.1305 -0.1115  0.2491
   66CHL1  H11A 7325   5.268   5.122  10.007 -1.8613  0.9796 -2.5370
   66CHL1  H11B 7326   5.445   5.109  10.005  0.1082  0.1110  0.0670
   66CHL1    C9 7327   5.366   5.307  10.063 -0.3856  0.4196 -0.9096
   66CHL1    H9 7328   5.464   5.357  10.048  1.3089 -2.1121  0.7641
   66CHL1   C10 7329   5.359   5.281  10.219 -0.4067 -0.4208  0.1092
   66CHL1   C19 7330   5.241   5.186  10.251 -0.0326  0.1601 -0.1523
   66CHL1  H19A 7331   5.272   5.082  10.231 -0.4998 -0.2469  1.1890
   66CHL1  H19B 7332   5.215   5.193  10.358  2.1613 -0.8662  0.4991
   66CHL1  H19C 7333   5.152   5.217  10.192 -0.1667 -0.8099 -0.4645
   66CHL1    C1 7334   5.492   5.221  10.264 -0.2169 -0.3055  0.0110
   66CHL1   H1A 7335   5.507   5.119  10.223 -0.4937 -1.7846  3.2389
   66CHL1   H1B 7336   5.578   5.283  10.232 -1.1534 -0.0143 -2.0987
   66CHL1    C2 7337   5.509   5.203  10.417 -0.0358  0.1211  0.3970
   66CHL1   H2A 7338   5.608   5.158  10.434 -0.5236 -1.2149 -0.1845
   66CHL1   H2B 7339   5.431   5.135  10.456 -3.2570  3.2494  0.0377
   66CHL1   C20 7340   5.193   5.254   9.522 -0.0206  0.2561 -1.1670
   66CHL1   H20 7341   5.086   5.227   9.529  0.0724 -0.1672 -1.3286
   66CHL1   C21 7342   5.278   5.129   9.524  0.3353  0.3940 -0.5274
   66CHL1  H21A 7343   5.240   5.047   9.588  2.9513  0.3385  1.0993
   66CHL1  H21B 7344   5.386   5.147   9.547  0.6902 -1.9050 -0.1876
   66CHL1  H21C 7345   5.266   5.082   9.424  0.3317 -0.8779  0.0624
   66CHL1   C22 7346   5.201   5.325   9.383  0.1628 -0.0211 -0.0934
   66CHL1  H22A 7347   5.153   5.426   9.389 -0.4026 -0.3342  0.9600
   66CHL1  H22B 7348   5.302   5.338   9.340 -0.1483  2.9267 -0.1782
   66CHL1   C23 7349   5.113   5.251   9.280 -0.1847  0.8102  0.9762
   66CHL1  H23A 7350   5.156   5.150   9.260 -1.5994  0.0280  1.7592
   66CHL1  H23B 7351   5.008   5.243   9.314 -0.7059 -2.3520 -0.9921
   66CHL1   C24 7352   5.111   5.322   9.139  0.2960  0.1499 -0.1640
   66CHL1  H24A 7353   5.059   5.419   9.151 -0.8297 -0.6310  1.7710
   66CHL1  H24B 7354   5.211   5.363   9.111  0.6099  0.9206  1.9058
   66CHL1   C25 7355   5.041   5.251   9.028  0.7441 -0.4451  0.1042
   66CHL1   H25 7356   4.934   5.250   9.057  1.2369 -0.6370  2.0563
   66CHL1   C26 7357   5.042   5.339   8.902 -0.5034 -0.0815 -0.3068
   66CHL1  H26A 7358   5.008   5.442   8.926  0.7357 -0.1336  1.9934
   66CHL1  H26B 7359   5.148   5.334   8.870 -0.2139 -1.5786  0.7483
   66CHL1  H26C 7360   4.988   5.283   8.823  0.2971 -4.1913  1.7634
   66CHL1   C27 7361   5.090   5.106   9.012  0.0273  0.1325  0.2171
   66CHL1  H27A 7362   5.029   5.064   8.930 -1.7361  2.6259  0.1135
   66CHL1  H27B 7363   5.200   5.106   8.995 -0.0645  3.0581 -1.0815
   66CHL1  H27C 7364   5.067   5.043   9.101  0.0597  0.4115  0.4246
   67CHL1    C3 7365   1.303   5.675  10.215  0.6427 -0.5678  0.5175
   67CHL1    H3 7366   1.352   5.577  10.201  0.8046 -0.3945 -0.1751
   67CHL1    O3 7367   1.286   5.710  10.354 -0.0046  0.3109  0.4131
   67CHL1   H3' 7368   1.221   5.780  10.361 -1.0124 -0.1700 -2.6132
   67CHL1    C4 7369   1.387   5.782  10.143 -0.4117 -0.7055 -0.5474
   67CHL1   H4A 7370   1.345   5.884  10.161  3.7131  1.2657 -1.0303
   67CHL1   H4B 7371   1.484   5.779  10.197  0.5993  2.4509 -1.9885
   67CHL1    C5 7372   1.401   5.760  10.000  0.4507 -0.0358  1.0788
   67CHL1    C6 7373   1.519   5.752   9.942 -0.7160 -1.1888  0.9973
   67CHL1    H6 7374   1.611   5.760  10.001  0.3287 -0.5761 -0.6473
   67CHL1    C7 7375   1.537   5.719   9.795  0.1423 -0.7391  0.2033
   67CHL1   H7A 7376   1.613   5.784   9.745  0.4233 -0.8380  0.4971
   67CHL1   H7B 7377   1.575   5.615   9.799  0.9135 -0.4896 -0.3994
   67CHL1    C8 7378   1.404   5.733   9.713 -0.1855  0.1654  0.6658
   67CHL1    H8 7379   1.390   5.843   9.704 -1.0551 -0.1194 -3.0007
   67CHL1   C14 7380   1.414   5.659   9.582  0.0996 -0.1988  0.0982
   67CHL1   H14 7381   1.428   5.550   9.602 -0.0011 -1.2628 -4.5181
   67CHL1   C15 7382   1.533   5.691   9.497 -0.4662  0.8361 -0.0926
   67CHL1  H15A 7383   1.550   5.800   9.505  2.1538  0.4265  1.2684
   67CHL1  H15B 7384   1.627   5.645   9.536  0.4727  2.3301 -0.5227
   67CHL1   C16 7385   1.491   5.654   9.357 -0.0145 -0.4763  0.4657
   67CHL1  H16A 7386   1.504   5.736   9.284  0.3290 -0.2099  0.8201
   67CHL1  H16B 7387   1.553   5.573   9.313 -0.6529 -1.1422  0.7732
   67CHL1   C17 7388   1.349   5.601   9.359 -0.2864  0.0422 -0.2502
   67CHL1   H17 7389   1.365   5.492   9.376 -1.6112  0.0078  0.9910
   67CHL1   C13 7390   1.294   5.666   9.491  0.3129  0.4253  0.2764
   67CHL1   C18 7391   1.253   5.815   9.458 -0.2544  0.6447  0.2654
   67CHL1  H18A 7392   1.320   5.862   9.383  0.4155 -2.0577 -0.9482
   67CHL1  H18B 7393   1.150   5.801   9.418  0.0439  0.4851 -0.4698
   67CHL1  H18C 7394   1.257   5.874   9.552  0.4348 -1.9740  1.9886
   67CHL1   C12 7395   1.175   5.597   9.566 -0.3143 -0.2122 -1.0405
   67CHL1  H12A 7396   1.081   5.597   9.506 -0.5959  1.0155 -0.6194
   67CHL1  H12B 7397   1.211   5.494   9.591  0.4629  0.4789  0.8777
   67CHL1   C11 7398   1.160   5.661   9.704  0.2881 -0.7565  0.3368
   67CHL1  H11A 7399   1.107   5.755   9.679  2.2748  0.1470 -0.6968
   67CHL1  H11B 7400   1.081   5.618   9.769  2.4045 -1.8526  2.2896
   67CHL1    C9 7401   1.290   5.672   9.792 -0.4734  0.3737  0.1986
   67CHL1    H9 7402   1.325   5.571   9.821 -1.5381 -0.7264 -2.0969
   67CHL1   C10 7403   1.266   5.738   9.932 -0.2483  0.0643 -0.0698
   67CHL1   C19 7404   1.209   5.887   9.913 -0.3283  0.5154 -0.3797
   67CHL1  H19A 7405   1.285   5.947   9.859 -1.3326  1.4648 -0.7704
   67CHL1  H19B 7406   1.108   5.881   9.866 -0.6611 -0.5115  0.4180
   67CHL1  H19C 7407   1.197   5.945  10.007  0.5740  2.0903 -1.1924
   67CHL1    C1 7408   1.162   5.650  10.017 -0.1424  0.5692  0.4991
   67CHL1   H1A 7409   1.068   5.678   9.966 -0.7581 -1.7181  0.2491
   67CHL1   H1B 7410   1.181   5.541  10.003 -0.2084  0.2986  2.2875
   67CHL1    C2 7411   1.164   5.673  10.162 -0.0105 -0.4771 -0.1871
   67CHL1   H2A 7412   1.112   5.586  10.207 -1.6292  0.3140 -0.4876
   67CHL1   H2B 7413   1.108   5.761  10.199 -2.0504 -2.1342  0.8663
   67CHL1   C20 7414   1.267   5.616   9.226  1.2593  0.1862 -0.8758
   67CHL1   H20 7415   1.252   5.723   9.198 -2.2410  0.3014  0.8036
   67CHL1   C21 7416   1.132   5.541   9.241 -0.6634 -0.7645 -0.1840
   67CHL1  H21A 7417   1.057   5.606   9.291  0.1433  0.4525 -0.5227
   67CHL1  H21B 7418   1.150   5.448   9.300  0.0932  0.3714  1.4501
   67CHL1  H21C 7419   1.085   5.521   9.143 -3.1558 -0.2285  0.8282
   67CHL1   C22 7420   1.346   5.551   9.104  0.2368 -0.3556  0.1378
   67CHL1  H22A 7421   1.451   5.585   9.113 -0.8911  3.0652  2.3119
   67CHL1  H22B 7422   1.333   5.441   9.106 -1.2459 -0.2009  2.0362
   67CHL1   C23 7423   1.285   5.614   8.980 -0.0501 -0.2701  0.2140
   67CHL1  H23A 7424   1.176   5.595   8.965 -0.2010  0.7717 -0.1223
   67CHL1  H23B 7425   1.283   5.724   8.995  1.4371  0.1443 -2.1057
   67CHL1   C24 7426   1.363   5.582   8.857 -0.1863  0.2099 -1.0343
   67CHL1  H24A 7427   1.465   5.628   8.851 -0.3674  0.5493 -1.7266
   67CHL1  H24B 7428   1.376   5.472   8.853  1.0740  0.2174  1.3361
   67CHL1   C25 7429   1.299   5.613   8.716  0.0149 -0.1193 -0.1928
   67CHL1   H25 7430   1.288   5.724   8.711 -1.0574 -0.0906  1.7962
   67CHL1   C26 7431   1.398   5.571   8.604 -0.4193 -0.5275 -0.3597
   67CHL1  H26A 7432   1.412   5.461   8.601 -1.6492 -0.7291  0.8737
   67CHL1  H26B 7433   1.366   5.606   8.503  1.2684 -0.1728 -0.8169
   67CHL1  H26C 7434   1.488   5.631   8.629  0.1785 -1.6699  0.3060
   67CHL1   C27 7435   1.165   5.530   8.707  0.5650  0.1865  0.6114
   67CHL1  H27A 7436   1.083   5.572   8.769  0.4150 -0.6234  0.9770
   67CHL1  H27B 7437   1.129   5.547   8.603  1.2441  2.1727  0.6629
   67CHL1  H27C 7438   1.180   5.423   8.733  2.2986  0.3989  0.6131
   68CHL1    C3 7439   0.747   0.039  10.231 -0.3009  0.2814  0.4384
   68CHL1    H3 7440   0.668   0.116  10.217  0.4571  0.9664 -0.1783
   68CHL1    O3 7441   0.767   0.054  10.367 -0.1161  0.5780 -0.5203
   68CHL1   H3' 7442   0.849   0.014  10.397 -0.2352  1.8157  1.6538
   68CHL1    C4 7443   0.680  -0.093  10.194  0.5543 -0.3493  0.0790
   68CHL1   H4A 7444   0.743  -0.183  10.209  1.8919  0.6659  0.7797
   68CHL1   H4B 7445   0.593  -0.105  10.262  1.0611 -0.4972  0.7106
   68CHL1    C5 7446   0.636  -0.087  10.048 -0.1745 -0.0017 -0.3259
   68CHL1    C6 7447   0.508  -0.097  10.016  0.6469 -0.3462 -0.7569
   68CHL1    H6 7448   0.437  -0.124  10.096  0.5354  0.9083 -0.3964
   68CHL1    C7 7449   0.459  -0.102   9.875 -0.5062 -0.5346 -0.2224
   68CHL1   H7A 7450   0.384  -0.180   9.850 -2.4634  1.3404 -0.5001
   68CHL1   H7B 7451   0.403  -0.008   9.853 -1.9115 -1.5331 -1.0865
   68CHL1    C8 7452   0.575  -0.111   9.767  0.0503  0.4849 -0.1467
   68CHL1    H8 7453   0.612  -0.215   9.778 -0.8929  0.1406 -0.2221
   68CHL1   C14 7454   0.526  -0.060   9.633 -0.5505 -0.0672  0.6422
   68CHL1   H14 7455   0.502   0.048   9.639 -0.5937 -0.1189  1.5900
   68CHL1   C15 7456   0.394  -0.119   9.591 -0.9096 -0.1341 -0.3087
   68CHL1  H15A 7457   0.383  -0.226   9.621  1.8464  0.0055  1.5566
   68CHL1  H15B 7458   0.307  -0.067   9.635  0.4859 -0.4425  3.1294
   68CHL1   C16 7459   0.387  -0.093   9.441  0.3573  0.4154  0.9473
   68CHL1  H16A 7460   0.379  -0.192   9.390 -1.7933  0.4875  1.0671
   68CHL1  H16B 7461   0.303  -0.026   9.416  0.5161 -0.1134 -1.1994
   68CHL1   C17 7462   0.525  -0.034   9.406 -0.2580  0.1124  0.2956
   68CHL1   H17 7463   0.517   0.076   9.417 -0.9822  0.3384 -1.9410
   68CHL1   C13 7464   0.622  -0.080   9.517  0.2098 -0.7350  0.3553
   68CHL1   C18 7465   0.668  -0.224   9.500 -0.2222  0.1786  0.0315
   68CHL1  H18A 7466   0.760  -0.229   9.437  1.3726 -3.5562  2.2548
   68CHL1  H18B 7467   0.711  -0.275   9.590  2.6469 -0.9501 -1.8367
   68CHL1  H18C 7468   0.591  -0.292   9.458  1.4539 -1.3091 -0.7480
   68CHL1   C12 7469   0.743   0.014   9.554  0.5882  0.2728 -0.5972
   68CHL1  H12A 7470   0.822   0.008   9.476  1.8899 -1.9046  0.7788
   68CHL1  H12B 7471   0.713   0.121   9.565 -0.2289  0.4816 -3.7854
   68CHL1   C11 7472   0.799  -0.023   9.695  0.0403 -0.8426  0.7202
   68CHL1  H11A 7473   0.831  -0.129   9.686  0.9609 -0.6155  1.1828
   68CHL1  H11B 7474   0.886   0.037   9.730  1.4254 -1.7504 -1.0157
   68CHL1    C9 7475   0.694  -0.018   9.804  0.6650  0.4367  0.5757
   68CHL1    H9 7476   0.660   0.088   9.806  0.2650  0.3338 -0.2694
   68CHL1   C10 7477   0.748  -0.042   9.948  0.3729  0.3445  0.4041
   68CHL1   C19 7478   0.848  -0.156   9.938  0.2571 -0.5442 -0.5997
   68CHL1  H19A 7479   0.795  -0.239   9.887 -0.8065 -0.7979  0.8553
   68CHL1  H19B 7480   0.934  -0.114   9.881 -1.1666 -0.2496 -2.6512
   68CHL1  H19C 7481   0.878  -0.182  10.042 -2.3890  0.9789  0.6487
   68CHL1    C1 7482   0.834   0.079  10.005 -0.8057 -0.0395 -0.0078
   68CHL1   H1A 7483   0.925   0.088   9.941 -0.2677 -1.2897  0.5340
   68CHL1   H1B 7484   0.765   0.164   9.985 -3.8573 -2.3957 -0.3055
   68CHL1    C2 7485   0.866   0.079  10.152 -0.2714 -0.0891  0.3720
   68CHL1   H2A 7486   0.898   0.184  10.168 -2.8915  0.9016 -0.3816
   68CHL1   H2B 7487   0.955   0.013  10.166  1.7207  2.1671 -0.9520
   68CHL1   C20 7488   0.572  -0.063   9.259  0.0238  0.2587  1.0392
   68CHL1   H20 7489   0.581  -0.172   9.235 -1.1300  0.8036 -2.4990
   68CHL1   C21 7490   0.699   0.008   9.229 -1.0220 -0.4981 -0.5084
   68CHL1  H21A 7491   0.729   0.024   9.123 -1.9468 -0.2015 -0.7351
   68CHL1  H21B 7492   0.783  -0.048   9.276 -1.2598 -1.4696 -1.2151
   68CHL1  H21C 7493   0.711   0.104   9.284 -1.0504 -0.6230 -0.2839
   68CHL1   C22 7494   0.463  -0.016   9.159 -0.3179  0.4834  0.0917
   68CHL1  H22A 7495   0.367  -0.061   9.192 -0.7349  1.2072 -0.0963
   68CHL1  H22B 7496   0.456   0.095   9.156  1.9018  0.6630  0.2704
   68CHL1   C23 7497   0.483  -0.064   9.008  0.1728  0.8272 -0.2579
   68CHL1  H23A 7498   0.565  -0.003   8.964  0.0551  1.3370  0.2113
   68CHL1  H23B 7499   0.518  -0.170   9.007 -0.3271  0.6571 -0.1387
   68CHL1   C24 7500   0.358  -0.051   8.919  0.5171  0.3483  0.6389
   68CHL1  H24A 7501   0.286  -0.120   8.967  3.3174 -2.2483  1.4337
   68CHL1  H24B 7502   0.319   0.053   8.927  1.2569  0.6333  0.6509
   68CHL1   C25 7503   0.373  -0.092   8.770 -0.4394  0.1746 -0.0041
   68CHL1   H25 7504   0.432  -0.186   8.772  0.6483  0.8065 -1.1958
   68CHL1   C26 7505   0.247  -0.113   8.692 -0.5831 -0.3550 -0.0158
   68CHL1  H26A 7506   0.173  -0.029   8.693 -1.6042 -1.2322  0.0405
   68CHL1  H26B 7507   0.279  -0.118   8.586 -0.5227  0.7513 -0.0648
   68CHL1  H26C 7508   0.196  -0.207   8.723 -2.5834  1.1822  1.7413
   68CHL1   C27 7509   0.469   0.007   8.697 -0.0170 -0.4964 -0.7288
   68CHL1  H27A 7510   0.565   0.008   8.752 -1.0204  0.1024  1.0985
   68CHL1  H27B 7511   0.476  -0.023   8.590 -1.2226 -0.2277 -0.9030
   68CHL1  H27C 7512   0.423   0.108   8.699 -1.9561 -1.3417 -0.6080
   69CHL1    C3 7513   6.490   4.641   6.809 -0.2482  0.8882 -0.4510
   69CHL1    H3 7514   6.521   4.746   6.827  1.6719 -0.1523  3.5154
   69CHL1    O3 7515   6.420   4.628   6.683  0.3900 -0.0891  0.3988
   69CHL1   H3' 7516   6.431   4.536   6.658 -0.0182 -0.6422  2.1092
   69CHL1    C4 7517   6.623   4.558   6.813  0.3200  0.2893  0.6956
   69CHL1   H4A 7518   6.587   4.453   6.805  0.2035  0.4493 -1.4921
   69CHL1   H4B 7519   6.680   4.572   6.718 -2.5071 -0.7806 -1.2973
   69CHL1    C5 7520   6.708   4.571   6.938  0.6094 -0.3807 -0.0501
   69CHL1    C6 7521   6.831   4.626   6.942 -0.1169  0.3026 -0.1878
   69CHL1    H6 7522   6.875   4.669   6.851 -1.9185  2.8896  0.0312
   69CHL1    C7 7523   6.909   4.649   7.069  0.5384 -0.4984  0.0559
   69CHL1   H7A 7524   7.013   4.609   7.072 -0.1495 -2.3122  1.7859
   69CHL1   H7B 7525   6.910   4.758   7.091  1.4479 -0.4220 -0.3198
   69CHL1    C8 7526   6.840   4.588   7.187  0.4987  0.6033  0.6783
   69CHL1    H8 7527   6.877   4.483   7.191 -0.8767  0.0209 -0.8897
   69CHL1   C14 7528   6.884   4.663   7.318  0.3240  0.3684 -0.3726
   69CHL1   H14 7529   6.843   4.766   7.306  2.2265  0.9481 -2.4667
   69CHL1   C15 7530   7.032   4.676   7.342 -0.4278  0.3079  0.5265
   69CHL1  H15A 7531   7.084   4.584   7.310  0.7577  1.8447 -2.3594
   69CHL1  H15B 7532   7.069   4.747   7.265 -1.3007 -1.2577 -1.4372
   69CHL1   C16 7533   7.043   4.707   7.490 -0.8652 -0.1455  0.4783
   69CHL1  H16A 7534   7.113   4.631   7.532  1.6169  1.5694 -0.2915
   69CHL1  H16B 7535   7.086   4.809   7.497  1.2714 -0.2512 -5.5057
   69CHL1   C17 7536   6.904   4.691   7.554 -0.6523 -0.6536  0.8688
   69CHL1   H17 7537   6.845   4.783   7.530  0.2750 -0.7714 -2.2886
   69CHL1   C13 7538   6.833   4.602   7.453  0.0927  0.6710 -0.2957
   69CHL1   C18 7539   6.888   4.451   7.472 -0.0568  0.0571  0.3584
   69CHL1  H18A 7540   6.997   4.457   7.494  0.0792  0.4154 -0.3923
   69CHL1  H18B 7541   6.835   4.412   7.562 -1.6762  0.2431 -0.4734
   69CHL1  H18C 7542   6.855   4.397   7.381 -1.3051  2.7149 -0.8545
   69CHL1   C12 7543   6.682   4.601   7.450 -0.5249 -0.2415 -0.3983
   69CHL1  H12A 7544   6.646   4.537   7.533 -0.1651  1.7087  1.3407
   69CHL1  H12B 7545   6.642   4.701   7.476  1.8986  0.2607  1.7892
   69CHL1   C11 7546   6.623   4.537   7.318 -0.3403  0.3464 -0.7118
   69CHL1  H11A 7547   6.646   4.428   7.317 -0.4366  0.2317  2.2396
   69CHL1  H11B 7548   6.512   4.546   7.324 -0.1550  1.9408  2.2766
   69CHL1    C9 7549   6.684   4.590   7.188  0.3667 -0.3124 -0.1173
   69CHL1    H9 7550   6.653   4.697   7.186 -0.3711 -0.5264 -1.9171
   69CHL1   C10 7551   6.617   4.525   7.060 -0.2919  0.4705 -0.2000
   69CHL1   C19 7552   6.623   4.370   7.070  0.0783  0.2862 -0.4024
   69CHL1  H19A 7553   6.549   4.341   7.148 -0.9143  0.0975 -1.3895
   69CHL1  H19B 7554   6.585   4.322   6.977 -0.9446  1.2405 -0.4917
   69CHL1  H19C 7555   6.719   4.323   7.101  1.3047  1.0394 -2.8248
   69CHL1    C1 7556   6.472   4.586   7.052  0.2253 -0.0047 -0.1752
   69CHL1   H1A 7557   6.403   4.544   7.128  0.4216  1.6180  0.9431
   69CHL1   H1B 7558   6.488   4.695   7.065 -1.4718  0.5316 -2.0656
   69CHL1    C2 7559   6.402   4.585   6.914 -0.4154  1.2510  0.4405
   69CHL1   H2A 7560   6.319   4.660   6.917 -0.4246  1.2743 -0.1696
   69CHL1   H2B 7561   6.353   4.485   6.906 -1.5915  1.7743  0.8106
   69CHL1   C20 7562   6.897   4.655   7.707  0.1194  0.4017 -0.2571
   69CHL1   H20 7563   6.803   4.600   7.728 -0.7450  2.2323  1.0307
   69CHL1   C21 7564   6.888   4.792   7.778  0.1392  0.4527  0.2781
   69CHL1  H21A 7565   6.979   4.854   7.759  2.1115 -2.3757 -0.1538
   69CHL1  H21B 7566   6.883   4.782   7.889  2.8505  1.7691  0.6127
   69CHL1  H21C 7567   6.801   4.845   7.736 -0.4552 -0.6637  0.0643
   69CHL1   C22 7568   7.015   4.577   7.768  1.1284  0.5618 -0.4287
   69CHL1  H22A 7569   7.038   4.487   7.708 -1.9550 -0.7748  0.2004
   69CHL1  H22B 7570   7.107   4.641   7.767  1.2033  0.5176  1.2115
   69CHL1   C23 7571   7.009   4.532   7.910  0.2310  0.1034  0.0099
   69CHL1  H23A 7572   6.996   4.609   7.989 -2.4459 -1.2533  1.0308
   69CHL1  H23B 7573   6.920   4.465   7.918 -0.8409  1.2527 -1.6422
   69CHL1   C24 7574   7.138   4.455   7.954  0.2758 -0.5424 -0.0319
   69CHL1  H24A 7575   7.169   4.394   7.867 -0.0892 -1.2682  0.3443
   69CHL1  H24B 7576   7.220   4.530   7.956  0.4948 -0.6466 -2.2017
   69CHL1   C25 7577   7.108   4.365   8.074  0.4403  0.0668 -0.2677
   69CHL1   H25 7578   7.039   4.286   8.036 -0.6539  0.2617  1.2457
   69CHL1   C26 7579   7.245   4.293   8.136 -0.0909 -0.3891 -0.6268
   69CHL1  H26A 7580   7.321   4.366   8.170  0.0041 -0.7785  0.0119
   69CHL1  H26B 7581   7.217   4.223   8.217 -1.2210  0.9075  0.1342
   69CHL1  H26C 7582   7.290   4.251   8.043  1.2143  1.3714 -0.8466
   69CHL1   C27 7583   7.049   4.443   8.194 -0.0419 -0.7023 -0.4346
   69CHL1  H27A 7584   6.949   4.484   8.169 -1.1711 -3.4109 -0.7261
   69CHL1  H27B 7585   7.021   4.367   8.270  0.2847 -1.8969 -1.4734
   69CHL1  H27C 7586   7.124   4.519   8.223  0.9148 -1.5937 -0.4856
   70CHL1    C3 7587   0.451   1.823   6.971 -0.1087 -0.5489 -0.0171
   70CHL1    H3 7588   0.495   1.906   7.030  2.0095 -3.1111  2.2618
   70CHL1    O3 7589   0.514   1.841   6.844 -0.3456  0.1906  0.0312
   70CHL1   H3' 7590   0.475   1.767   6.798  0.0163  0.7322 -1.1799
   70CHL1    C4 7591   0.486   1.684   7.031  0.1127 -0.0594 -0.2868
   70CHL1   H4A 7592   0.431   1.600   6.983 -0.0108 -0.3960  0.4248
   70CHL1   H4B 7593   0.590   1.645   7.029 -0.1915 -1.0638  1.2019
   70CHL1    C5 7594   0.438   1.686   7.181 -0.0356 -0.6324 -0.4011
   70CHL1    C6 7595   0.526   1.691   7.286 -0.2663 -0.4541 -1.3122
   70CHL1    H6 7596   0.632   1.673   7.260 -0.3715  0.7128 -2.7059
   70CHL1    C7 7597   0.485   1.693   7.441 -0.2782  0.1495  0.6166
   70CHL1   H7A 7598   0.554   1.629   7.499 -0.2778 -1.0698 -0.6657
   70CHL1   H7B 7599   0.490   1.792   7.491 -1.5091  1.2377 -1.2887
   70CHL1    C8 7600   0.335   1.658   7.445  1.0367 -0.4602 -0.5541
   70CHL1    H8 7601   0.315   1.550   7.429 -5.0169  0.6025 -2.6356
   70CHL1   C14 7602   0.283   1.682   7.591 -0.2277 -0.1821 -0.2856
   70CHL1   H14 7603   0.300   1.792   7.596 -0.8797  0.0983 -2.8536
   70CHL1   C15 7604   0.360   1.609   7.707  0.2601  0.1138 -0.0097
   70CHL1  H15A 7605   0.371   1.499   7.694  1.1365 -0.2589  3.0619
   70CHL1  H15B 7606   0.457   1.661   7.723 -0.0308  1.3971 -2.0837
   70CHL1   C16 7607   0.262   1.631   7.831  0.4405  0.5033  0.2088
   70CHL1  H16A 7608   0.235   1.535   7.879 -2.6927  0.4616 -1.4057
   70CHL1  H16B 7609   0.314   1.699   7.902 -1.2730 -0.4711  2.5216
   70CHL1   C17 7610   0.132   1.691   7.769 -0.2944 -0.0504 -0.1148
   70CHL1   H17 7611   0.147   1.801   7.767  0.7296 -0.1670  0.4257
   70CHL1   C13 7612   0.136   1.664   7.618  0.1085  1.0073 -1.0224
   70CHL1   C18 7613   0.093   1.522   7.583  1.1753  1.2740 -0.4133
   70CHL1  H18A 7614   0.129   1.484   7.485  3.6424 -2.4618  1.6801
   70CHL1  H18B 7615   0.138   1.457   7.661  0.3357  2.6639  1.2856
   70CHL1  H18C 7616  -0.017   1.513   7.591  1.3932 -0.0448  1.9651
   70CHL1   C12 7617   0.057   1.762   7.529 -0.5290 -0.1477  0.0709
   70CHL1  H12A 7618  -0.053   1.762   7.542 -0.5359  1.9445  0.2856
   70CHL1  H12B 7619   0.095   1.861   7.562  0.7023  0.5271 -2.9531
   70CHL1   C11 7620   0.106   1.748   7.377 -0.1994 -0.7080 -0.3404
   70CHL1  H11A 7621   0.058   1.649   7.361  4.3804 -3.3010  0.4350
   70CHL1  H11B 7622   0.047   1.824   7.321  1.0216  0.5506  0.0353
   70CHL1    C9 7623   0.253   1.746   7.354  0.4875 -0.1194  0.4525
   70CHL1    H9 7624   0.290   1.851   7.362  2.0208 -0.5344 -0.7764
   70CHL1   C10 7625   0.284   1.710   7.201  1.0213 -0.1011 -0.9805
   70CHL1   C19 7626   0.213   1.582   7.152  0.1961 -0.3295 -0.0362
   70CHL1  H19A 7627   0.241   1.559   7.047 -1.6738  4.0835 -1.7510
   70CHL1  H19B 7628   0.242   1.507   7.229  0.6623  1.0770  1.2142
   70CHL1  H19C 7629   0.103   1.597   7.162  0.2139 -0.1725 -0.0663
   70CHL1    C1 7630   0.238   1.827   7.106  0.3623 -0.4880  0.1541
   70CHL1   H1A 7631   0.130   1.812   7.086  0.5235 -0.9122 -0.4017
   70CHL1   H1B 7632   0.239   1.929   7.151  0.9638 -0.3606 -0.1461
   70CHL1    C2 7633   0.303   1.847   6.968 -0.2040 -0.3637 -0.1620
   70CHL1   H2A 7634   0.290   1.950   6.929  1.2423 -0.8105 -1.9431
   70CHL1   H2B 7635   0.264   1.770   6.898 -1.1395 -0.6960  0.7038
   70CHL1   C20 7636   0.012   1.666   7.859 -0.1786  0.4739  0.4872
   70CHL1   H20 7637  -0.004   1.556   7.851  1.3492  0.2348  0.4145
   70CHL1   C21 7638  -0.109   1.738   7.814 -0.4428 -0.5254  0.2424
   70CHL1  H21A 7639  -0.082   1.842   7.784 -0.7361 -0.0727  1.4713
   70CHL1  H21B 7640  -0.191   1.746   7.889 -0.6528  0.7050 -0.0883
   70CHL1  H21C 7641  -0.147   1.688   7.722 -0.1120 -0.7676  0.2369
   70CHL1   C22 7642   0.052   1.700   8.007 -0.6161 -0.0027  0.0967
   70CHL1  H22A 7643  -0.030   1.696   8.082 -1.0896  0.8639 -0.3619
   70CHL1  H22B 7644   0.126   1.626   8.046  1.5280  2.9168  1.9755
   70CHL1   C23 7645   0.106   1.840   8.033 -0.0804 -0.0640 -0.2950
   70CHL1  H23A 7646   0.199   1.865   7.976  0.5709  0.2047  0.8471
   70CHL1  H23B 7647   0.025   1.905   7.993 -1.4960 -1.8716 -0.4949
   70CHL1   C24 7648   0.138   1.866   8.181  0.3826  0.4532 -0.2843
   70CHL1  H24A 7649   0.193   1.962   8.182  1.6017 -0.1414 -2.6999
   70CHL1  H24B 7650   0.039   1.874   8.232  0.7067 -0.1848  0.4678
   70CHL1   C25 7651   0.232   1.759   8.254  0.0414 -0.2461  0.2440
   70CHL1   H25 7652   0.193   1.657   8.233  0.7261 -0.4102 -0.2579
   70CHL1   C26 7653   0.380   1.770   8.197  0.1257 -0.2331  0.4860
   70CHL1  H26A 7654   0.408   1.877   8.209  1.7513 -0.3746 -1.5621
   70CHL1  H26B 7655   0.454   1.702   8.246 -0.2975 -1.7431 -0.8797
   70CHL1  H26C 7656   0.385   1.756   8.087  1.0107 -1.4457  0.6595
   70CHL1   C27 7657   0.224   1.792   8.403  0.4602 -0.0068  0.0069
   70CHL1  H27A 7658   0.302   1.744   8.466 -0.3118  1.1695  1.9381
   70CHL1  H27B 7659   0.229   1.902   8.420 -1.9857  0.2941 -0.8186
   70CHL1  H27C 7660   0.122   1.768   8.438  0.6982 -0.2167  0.5704
   71CHL1    C3 7661   6.265   3.766   6.755 -0.2970  0.0313  0.5578
   71CHL1    H3 7662   6.355   3.828   6.775  0.4281 -0.4692 -0.9442
   71CHL1    O3 7663   6.258   3.751   6.615  0.2457 -0.0973  0.0785
   71CHL1   H3' 7664   6.197   3.678   6.599  1.4477 -1.3202  0.8669
   71CHL1    C4 7665   6.297   3.631   6.829 -0.4990  0.2354 -0.0490
   71CHL1   H4A 7666   6.212   3.565   6.799 -1.9878  1.5996  1.0350
   71CHL1   H4B 7667   6.388   3.587   6.782 -0.0493  0.3692  0.6749
   71CHL1    C5 7668   6.314   3.645   6.982 -0.2809 -0.0557  0.0347
   71CHL1    C6 7669   6.426   3.610   7.052 -0.3650  0.7392  0.6265
   71CHL1    H6 7670   6.508   3.559   7.000 -1.1333  0.2339 -0.1320
   71CHL1    C7 7671   6.434   3.627   7.198 -0.2042 -0.3317  0.0577
   71CHL1   H7A 7672   6.470   3.530   7.237 -4.3255 -2.5281 -1.0532
   71CHL1   H7B 7673   6.507   3.708   7.222 -0.3567  0.2415 -1.3120
   71CHL1    C8 7674   6.302   3.666   7.265 -0.2786  0.3094 -0.5078
   71CHL1    H8 7675   6.237   3.577   7.281 -1.1741  1.2424  1.5285
   71CHL1   C14 7676   6.320   3.722   7.404 -0.0245 -0.5740 -0.1984
   71CHL1   H14 7677   6.379   3.816   7.398 -0.3649 -0.2277  1.3112
   71CHL1   C15 7678   6.411   3.631   7.492  0.0232  0.2963 -0.0421
   71CHL1  H15A 7679   6.400   3.524   7.467 -0.5448  0.4475 -0.4738
   71CHL1  H15B 7680   6.515   3.663   7.472  1.4844 -2.6857  2.0680
   71CHL1   C16 7681   6.363   3.659   7.634  0.7003 -0.6486 -0.1324
   71CHL1  H16A 7682   6.308   3.566   7.663 -0.8247 -0.1861 -1.4085
   71CHL1  H16B 7683   6.439   3.688   7.710  1.0960  1.2812 -1.2058
   71CHL1   C17 7684   6.256   3.776   7.626 -0.0645  0.3795  0.5341
   71CHL1   H17 7685   6.316   3.869   7.632 -0.3641  0.5599  0.7365
   71CHL1   C13 7686   6.198   3.761   7.483 -0.7454 -0.0216  0.0443
   71CHL1   C18 7687   6.089   3.651   7.499 -0.2234 -0.0133 -0.3527
   71CHL1  H18A 7688   6.068   3.611   7.398 -1.1413 -1.2764  0.3191
   71CHL1  H18B 7689   6.116   3.569   7.568 -2.8350 -0.0291  0.7834
   71CHL1  H18C 7690   6.001   3.702   7.543  1.7304  2.2392  1.2091
   71CHL1   C12 7691   6.143   3.877   7.405  1.0613  0.0077 -0.0043
   71CHL1  H12A 7692   6.048   3.910   7.453  1.1172  0.0689  0.0642
   71CHL1  H12B 7693   6.219   3.957   7.410  0.6064  0.4588 -0.2073
   71CHL1   C11 7694   6.114   3.845   7.258  0.7177  0.1976  0.4042
   71CHL1  H11A 7695   6.024   3.780   7.248  1.7315 -1.8529  3.3113
   71CHL1  H11B 7696   6.098   3.944   7.210 -0.8441  0.6403  1.7468
   71CHL1    C9 7697   6.234   3.771   7.181  1.2049 -0.0823 -0.4070
   71CHL1    H9 7698   6.310   3.851   7.166  0.4954  0.9386  1.1327
   71CHL1   C10 7699   6.191   3.721   7.040  0.1415  0.5605 -0.5598
   71CHL1   C19 7700   6.067   3.621   7.051  0.4164 -0.0022 -0.7137
   71CHL1  H19A 7701   5.970   3.667   7.080  0.1313 -0.9995 -0.0464
   71CHL1  H19B 7702   6.044   3.574   6.953 -1.2554 -0.0035 -0.3521
   71CHL1  H19C 7703   6.080   3.536   7.121  1.1815  1.3081  0.8000
   71CHL1    C1 7704   6.142   3.850   6.966 -0.2059 -0.4883  0.0390
   71CHL1   H1A 7705   6.043   3.875   7.008 -0.0900 -0.9180  0.5841
   71CHL1   H1B 7706   6.219   3.929   6.974  1.0287 -1.6551  0.0327
   71CHL1    C2 7707   6.132   3.830   6.811 -0.0239 -0.0758 -0.2591
   71CHL1   H2A 7708   6.122   3.924   6.752 -1.7650  0.6447  1.0834
   71CHL1   H2B 7709   6.043   3.768   6.788 -0.9468  1.1178  0.0016
   71CHL1   C20 7710   6.160   3.785   7.748  0.6186  0.4551  0.1610
   71CHL1   H20 7711   6.084   3.705   7.735  2.9544 -1.4156 -3.4734
   71CHL1   C21 7712   6.093   3.928   7.740  0.3207  1.4864  1.1968
   71CHL1  H21A 7713   6.034   3.952   7.831 -1.1882  0.3765  0.5587
   71CHL1  H21B 7714   6.026   3.937   7.652  0.6962 -0.9978  0.5901
   71CHL1  H21C 7715   6.174   4.001   7.722  2.2112 -0.2377  2.2614
   71CHL1   C22 7716   6.226   3.764   7.892  0.5489  0.1760 -0.0819
   71CHL1  H22A 7717   6.285   3.671   7.887  0.4282 -0.0174  1.5135
   71CHL1  H22B 7718   6.295   3.850   7.907  0.4326  0.5430 -1.5281
   71CHL1   C23 7719   6.133   3.727   8.012 -0.4011 -0.2914  0.3236
   71CHL1  H23A 7720   6.057   3.807   8.023  2.5628  2.6697  1.0855
   71CHL1  H23B 7721   6.091   3.627   7.988  0.6387 -0.5060 -0.7019
   71CHL1   C24 7722   6.201   3.722   8.149 -0.7506  0.8497  0.0595
   71CHL1  H24A 7723   6.281   3.647   8.130 -0.8513  0.5415  0.8272
   71CHL1  H24B 7724   6.256   3.814   8.177  0.4618  0.9618 -2.4533
   71CHL1   C25 7725   6.116   3.663   8.262 -0.3109 -1.0070 -0.5110
   71CHL1   H25 7726   6.059   3.572   8.232  0.3302 -1.8338  0.7203
   71CHL1   C26 7727   6.205   3.619   8.379  0.0533  0.2269  0.0558
   71CHL1  H26A 7728   6.140   3.595   8.466  0.0760 -0.6505 -0.1559
   71CHL1  H26B 7729   6.277   3.539   8.352  0.6659  0.7808  0.0196
   71CHL1  H26C 7730   6.264   3.707   8.411  0.9747  0.0378 -1.0308
   71CHL1   C27 7731   6.023   3.770   8.311  0.4573 -0.3753 -0.1703
   71CHL1  H27A 7732   6.064   3.873   8.317  1.6551 -0.7238 -1.6710
   71CHL1  H27B 7733   5.927   3.772   8.256 -1.6522 -1.7888  3.1367
   71CHL1  H27C 7734   5.992   3.743   8.414  3.1137 -0.0653  0.7826
   72CHL1    C3 7735   5.634   2.138   6.947 -0.2288  0.2758 -0.6522
   72CHL1    H3 7736   5.705   2.057   6.975 -0.3867 -0.8692 -3.2120
   72CHL1    O3 7737   5.561   2.099   6.834  0.3994 -0.0409  0.3887
   72CHL1   H3' 7738   5.548   2.181   6.785  0.2022 -0.0082  0.4933
   72CHL1    C4 7739   5.540   2.156   7.073 -0.4505 -0.3228  0.6276
   72CHL1   H4A 7740   5.466   2.235   7.048 -0.7477 -0.8602 -0.2291
   72CHL1   H4B 7741   5.487   2.060   7.093 -1.1376 -0.0612  0.0975
   72CHL1    C5 7742   5.604   2.213   7.195  0.0600  0.3175  0.8273
   72CHL1    C6 7743   5.585   2.154   7.314 -0.3439  0.6153  0.2266
   72CHL1    H6 7744   5.521   2.067   7.332 -0.7528  1.1909  1.7729
   72CHL1    C7 7745   5.631   2.212   7.443 -0.7956 -0.2628 -0.0383
   72CHL1   H7A 7746   5.544   2.227   7.511 -1.2442  2.2062 -1.0443
   72CHL1   H7B 7747   5.705   2.141   7.487 -1.5063 -0.5473  0.7365
   72CHL1    C8 7748   5.688   2.362   7.432 -0.0434  0.1545  0.0924
   72CHL1    H8 7749   5.594   2.421   7.424  0.1018  0.3852  0.0756
   72CHL1   C14 7750   5.753   2.399   7.565 -0.8064 -0.4799 -0.4044
   72CHL1   H14 7751   5.834   2.323   7.571  0.7650  0.9468 -2.0876
   72CHL1   C15 7752   5.680   2.380   7.699  0.2789  0.5197  0.8686
   72CHL1  H15A 7753   5.579   2.425   7.688  0.2530  0.6122  1.4833
   72CHL1  H15B 7754   5.681   2.272   7.726 -0.7957  0.4699  0.7314
   72CHL1   C16 7755   5.773   2.452   7.791 -0.7398 -0.2704 -0.1250
   72CHL1  H16A 7756   5.716   2.525   7.852  1.6136  0.4183  1.3246
   72CHL1  H16B 7757   5.822   2.388   7.867  1.5917  0.5879 -0.8212
   72CHL1   C17 7758   5.885   2.537   7.706  0.4412  0.0956  0.4483
   72CHL1   H17 7759   5.978   2.477   7.693  0.0339 -0.1837 -1.3753
   72CHL1   C13 7760   5.830   2.543   7.562  0.2896 -0.5573 -0.8749
   72CHL1   C18 7761   5.725   2.659   7.562 -0.5547 -0.0311 -0.2366
   72CHL1  H18A 7762   5.647   2.644   7.639 -1.3167 -1.4891 -1.2508
   72CHL1  H18B 7763   5.780   2.755   7.576  0.6694 -0.5338 -1.3103
   72CHL1  H18C 7764   5.677   2.667   7.462  1.1313  2.6472 -0.9486
   72CHL1   C12 7765   5.927   2.544   7.437  0.2127  0.0376  0.5225
   72CHL1  H12A 7766   5.977   2.640   7.413 -0.1058 -0.5535 -3.1875
   72CHL1  H12B 7767   6.001   2.464   7.458  0.6950  0.5120  0.6418
   72CHL1   C11 7768   5.850   2.511   7.306  0.5689 -0.3660  0.5186
   72CHL1  H11A 7769   5.785   2.597   7.279  1.5440  0.5348  0.9438
   72CHL1  H11B 7770   5.921   2.501   7.221 -1.7052 -2.6510 -1.2833
   72CHL1    C9 7771   5.772   2.374   7.307  0.3704 -0.3171  0.2547
   72CHL1    H9 7772   5.845   2.290   7.303 -1.0905 -1.5825 -2.1079
   72CHL1   C10 7773   5.692   2.340   7.177  0.3428 -0.8544  0.3230
   72CHL1   C19 7774   5.601   2.463   7.158  0.0068 -0.2092 -0.0173
   72CHL1  H19A 7775   5.650   2.546   7.103 -2.9422  0.9718 -1.0905
   72CHL1  H19B 7776   5.521   2.438   7.084  1.1375 -1.0138 -1.0062
   72CHL1  H19C 7777   5.547   2.501   7.248 -1.3452  2.4381 -1.8213
   72CHL1    C1 7778   5.786   2.329   7.052  0.5163  0.3909 -0.1139
   72CHL1   H1A 7779   5.801   2.436   7.025 -0.7040  0.1513 -1.9400
   72CHL1   H1B 7780   5.879   2.275   7.079 -0.4502  0.2453  3.3584
   72CHL1    C2 7781   5.718   2.273   6.917  0.3211  0.3241 -0.2188
   72CHL1   H2A 7782   5.794   2.263   6.837 -0.3315  1.7753 -1.0475
   72CHL1   H2B 7783   5.652   2.345   6.865  2.0634  1.3697 -1.0492
   72CHL1   C20 7784   5.927   2.666   7.768 -0.0314  0.4268  0.6125
   72CHL1   H20 7785   5.837   2.728   7.786  0.0293  0.9561 -0.7906
   72CHL1   C21 7786   6.030   2.740   7.675 -0.3066  0.0567  0.0848
   72CHL1  H21A 7787   6.085   2.825   7.719 -0.8111  1.1100 -1.2329
   72CHL1  H21B 7788   5.970   2.791   7.597  0.8585  1.2068 -0.0840
   72CHL1  H21C 7789   6.105   2.671   7.631  0.9263  1.5531 -0.2577
   72CHL1   C22 7790   5.985   2.634   7.909  0.3365  0.3596 -0.2926
   72CHL1  H22A 7791   5.911   2.574   7.966 -0.0361  0.0765 -1.0638
   72CHL1  H22B 7792   6.074   2.567   7.904 -0.7285 -1.4692  2.5891
   72CHL1   C23 7793   6.035   2.753   7.995  0.3126 -0.3026  0.2644
   72CHL1  H23A 7794   6.097   2.714   8.078 -0.6096  1.0398  1.6428
   72CHL1  H23B 7795   6.099   2.821   7.935  0.5639 -0.0582  0.8051
   72CHL1   C24 7796   5.919   2.849   8.032  0.3119  0.7752  0.1864
   72CHL1  H24A 7797   5.884   2.897   7.938 -2.2371  0.3537  0.8559
   72CHL1  H24B 7798   5.837   2.786   8.073  3.1393 -2.1797  1.7605
   72CHL1   C25 7799   5.956   2.967   8.119 -0.0363 -0.6265 -0.8464
   72CHL1   H25 7800   6.027   2.922   8.192 -0.6377  0.8914  0.7355
   72CHL1   C26 7801   6.029   3.071   8.041 -0.0345 -0.3248  0.8814
   72CHL1  H26A 7802   5.984   3.093   7.942  1.2032 -0.7682  0.1923
   72CHL1  H26B 7803   6.038   3.168   8.094  0.8578 -0.0328  0.2254
   72CHL1  H26C 7804   6.134   3.042   8.017  0.4972  2.1388 -0.1724
   72CHL1   C27 7805   5.836   3.021   8.195  0.4506  0.0302 -0.2635
   72CHL1  H27A 7806   5.867   3.099   8.268 -0.8751 -0.4228  0.8440
   72CHL1  H27B 7807   5.762   3.049   8.117  0.3812 -1.4885 -0.7767
   72CHL1  H27C 7808   5.792   2.932   8.246 -0.7763 -0.5290 -2.1940
   73CHL1    C3 7809   5.910   4.685   6.978  0.0953 -0.0923 -0.4849
   73CHL1    H3 7810   5.929   4.794   6.979 -1.5156  0.2422 -1.8814
   73CHL1    O3 7811   5.912   4.639   6.848 -0.5431 -0.3062  0.2517
   73CHL1   H3' 7812   5.930   4.546   6.863  0.1064 -0.1484  0.4738
   73CHL1    C4 7813   6.022   4.613   7.053  0.4504  0.4294  0.4115
   73CHL1   H4A 7814   6.015   4.504   7.033 -0.8450  0.0466  2.6061
   73CHL1   H4B 7815   6.117   4.639   7.003 -0.7545  0.5593 -1.9912
   73CHL1    C5 7816   6.023   4.652   7.201  0.6691  0.1888  0.7718
   73CHL1    C6 7817   6.133   4.713   7.252  0.1512 -0.0970  0.0138
   73CHL1    H6 7818   6.225   4.714   7.192  0.0616  0.4365 -0.1134
   73CHL1    C7 7819   6.145   4.751   7.399 -0.7951 -0.0510 -0.2349
   73CHL1   H7A 7820   6.239   4.718   7.447 -1.7427 -1.6384  0.6204
   73CHL1   H7B 7821   6.129   4.860   7.416 -1.9705 -0.4988  1.9275
   73CHL1    C8 7822   6.029   4.682   7.483  0.0142 -1.3225  0.1270
   73CHL1    H8 7823   6.061   4.577   7.498  1.5638 -1.0928 -1.2640
   73CHL1   C14 7824   6.015   4.771   7.610 -0.8403 -0.5366 -0.1310
   73CHL1   H14 7825   5.988   4.874   7.580  0.0366  0.0481  0.9803
   73CHL1   C15 7826   6.138   4.806   7.701 -0.1931  0.4964 -0.0905
   73CHL1  H15A 7827   6.203   4.716   7.694 -3.1770 -1.8224  0.0072
   73CHL1  H15B 7828   6.193   4.899   7.676 -0.0713 -0.1347 -2.4131
   73CHL1   C16 7829   6.089   4.827   7.849 -0.1229  0.3383  0.3306
   73CHL1  H16A 7830   6.143   4.764   7.922  0.9632 -0.0516 -0.7808
   73CHL1  H16B 7831   6.102   4.934   7.878 -1.2247 -0.1547  2.8703
   73CHL1   C17 7832   5.936   4.800   7.836  0.3418  0.0799  0.2826
   73CHL1   H17 7833   5.889   4.898   7.814 -1.4013 -0.8552 -0.3058
   73CHL1   C13 7834   5.914   4.722   7.707 -0.3606 -0.4733 -0.1827
   73CHL1   C18 7835   5.942   4.567   7.730 -0.2994 -0.6284  0.6251
   73CHL1  H18A 7836   6.049   4.558   7.757 -0.3209 -1.9924  0.2975
   73CHL1  H18B 7837   5.886   4.531   7.820 -0.6647  0.8991  1.0460
   73CHL1  H18C 7838   5.923   4.499   7.645  0.6097  0.0984 -0.1792
   73CHL1   C12 7839   5.770   4.731   7.645  0.3068  0.2815  1.2717
   73CHL1  H12A 7840   5.687   4.698   7.711  0.1000  4.8862  3.6940
   73CHL1  H12B 7841   5.765   4.841   7.635  0.9497  0.3716  1.8678
   73CHL1   C11 7842   5.769   4.663   7.503 -0.1654 -0.4148  0.1453
   73CHL1  H11A 7843   5.765   4.556   7.534  1.8033 -0.3070  0.9029
   73CHL1  H11B 7844   5.668   4.688   7.465  0.0603  0.5110  0.1356
   73CHL1    C9 7845   5.890   4.697   7.412  0.1056 -0.3305 -0.1325
   73CHL1    H9 7846   5.882   4.805   7.389 -1.8928 -0.4312 -0.0523
   73CHL1   C10 7847   5.889   4.629   7.277  0.3879  0.0687 -0.2760
   73CHL1   C19 7848   5.867   4.485   7.302  0.8741  0.1727 -0.0774
   73CHL1  H19A 7849   5.873   4.410   7.220 -2.1728 -2.0683  1.5206
   73CHL1  H19B 7850   5.931   4.450   7.386  0.5874  3.1525  1.5072
   73CHL1  H19C 7851   5.763   4.479   7.339  1.7459 -0.1530  2.5783
   73CHL1    C1 7852   5.777   4.694   7.196  0.1136 -0.3011 -0.0330
   73CHL1   H1A 7853   5.682   4.681   7.252  0.1307  0.4116  0.1758
   73CHL1   H1B 7854   5.796   4.803   7.185  3.6884 -0.8793 -0.8048
   73CHL1    C2 7855   5.776   4.651   7.048  0.1458  0.4573  0.4196
   73CHL1   H2A 7856   5.688   4.699   6.999 -0.8066 -0.2638  1.3686
   73CHL1   H2B 7857   5.766   4.540   7.040 -3.0358  0.7775 -2.2997
   73CHL1   C20 7858   5.859   4.765   7.968 -0.0367 -0.0609  0.4901
   73CHL1   H20 7859   5.830   4.659   7.958  0.1791  0.0147 -1.0721
   73CHL1   C21 7860   5.728   4.846   7.980 -0.4644  0.3053 -0.8383
   73CHL1  H21A 7861   5.759   4.951   7.997  2.8903 -0.5503 -1.0855
   73CHL1  H21B 7862   5.677   4.813   8.073  1.8559 -1.1452 -0.0250
   73CHL1  H21C 7863   5.664   4.836   7.889  0.4644  0.1579 -1.4850
   73CHL1   C22 7864   5.949   4.752   8.099  0.0662  0.6566  0.1612
   73CHL1  H22A 7865   6.032   4.680   8.083  0.4220  1.1311 -0.1580
   73CHL1  H22B 7866   6.002   4.850   8.102 -0.1565  0.7585  1.3545
   73CHL1   C23 7867   5.867   4.739   8.227 -0.6597  0.5741 -0.3121
   73CHL1  H23A 7868   5.798   4.825   8.242 -3.4008 -1.6286  0.3433
   73CHL1  H23B 7869   5.813   4.646   8.201  1.1909  0.1931 -3.3473
   73CHL1   C24 7870   5.963   4.699   8.343  0.0418  0.4092 -0.3640
   73CHL1  H24A 7871   5.906   4.686   8.438  1.5780  2.7090  0.9804
   73CHL1  H24B 7872   6.008   4.603   8.310 -0.9843 -0.0560 -0.4448
   73CHL1   C25 7873   6.073   4.799   8.375  0.2059  0.4264 -0.5903
   73CHL1   H25 7874   6.131   4.824   8.283  1.4850 -2.1255 -0.5669
   73CHL1   C26 7875   6.005   4.933   8.422  0.2673 -0.4445  0.0694
   73CHL1  H26A 7876   5.965   4.985   8.333  1.0737  0.8727  0.4424
   73CHL1  H26B 7877   5.934   4.917   8.506 -1.6836  1.2126 -1.1778
   73CHL1  H26C 7878   6.092   4.990   8.462 -0.1191 -0.6531  1.2597
   73CHL1   C27 7879   6.184   4.747   8.467 -0.4800 -0.9297 -0.3048
   73CHL1  H27A 7880   6.270   4.816   8.452 -2.0681  1.2074  0.0742
   73CHL1  H27B 7881   6.173   4.748   8.578  0.3908  0.7400 -0.1958
   73CHL1  H27C 7882   6.220   4.645   8.440  0.5153 -0.5689 -0.4045
   74CHL1    C3 7883   5.001   3.398   6.839  0.1065  0.3735  0.3982
   74CHL1    H3 7884   4.893   3.375   6.843  0.2301 -1.0242 -2.2224
   74CHL1    O3 7885   5.026   3.442   6.706  0.2083 -0.3141  0.5452
   74CHL1   H3' 7886   5.114   3.410   6.682 -0.1225 -1.2736  0.5571
   74CHL1    C4 7887   5.024   3.504   6.946 -0.4199 -0.3395 -0.1389
   74CHL1   H4A 7888   5.128   3.540   6.935 -0.5095 -0.0484 -0.0389
   74CHL1   H4B 7889   4.968   3.593   6.908  0.5819  1.0681  1.5420
   74CHL1    C5 7890   4.983   3.446   7.078  0.6612 -0.1977  0.1497
   74CHL1    C6 7891   4.873   3.501   7.147  1.0877  0.0725  0.5974
   74CHL1    H6 7892   4.820   3.587   7.103  0.5727  0.2738  1.5839
   74CHL1    C7 7893   4.833   3.452   7.287 -0.6626 -0.0264  0.5204
   74CHL1   H7A 7894   4.804   3.539   7.350  0.6816  1.2860 -0.6044
   74CHL1   H7B 7895   4.734   3.403   7.275  0.4177 -1.7255 -2.3137
   74CHL1    C8 7896   4.946   3.364   7.351  0.2222  0.0869  0.3042
   74CHL1    H8 7897   5.029   3.433   7.379 -1.4072  2.7352 -0.9882
   74CHL1   C14 7898   4.890   3.299   7.481 -0.3204 -0.1780  0.6558
   74CHL1   H14 7899   4.798   3.243   7.453  0.7647 -1.6590 -0.0551
   74CHL1   C15 7900   4.849   3.392   7.601 -0.4531  0.4195 -0.0807
   74CHL1  H15A 7901   4.922   3.474   7.619  0.5809 -0.2475 -1.0898
   74CHL1  H15B 7902   4.751   3.437   7.576 -1.6187 -2.7083 -1.5236
   74CHL1   C16 7903   4.844   3.297   7.719 -0.0195 -0.6530  0.1082
   74CHL1  H16A 7904   4.913   3.339   7.796 -0.9295 -0.4965  0.8541
   74CHL1  H16B 7905   4.739   3.286   7.752 -0.3413 -0.3831 -0.7912
   74CHL1   C17 7906   4.897   3.150   7.669 -0.4612  0.1259 -0.5905
   74CHL1   H17 7907   4.809   3.098   7.626 -1.2479  0.4784  0.5423
   74CHL1   C13 7908   4.982   3.184   7.538 -0.1652 -0.2949  0.1877
   74CHL1   C18 7909   5.119   3.252   7.591  0.1499  0.7960  0.1438
   74CHL1  H18A 7910   5.191   3.176   7.628 -0.7640  0.4275  1.2055
   74CHL1  H18B 7911   5.161   3.296   7.498 -1.1355 -0.8825 -1.3109
   74CHL1  H18C 7912   5.096   3.330   7.667  0.5671  0.8000  0.2684
   74CHL1   C12 7913   4.998   3.072   7.434  0.0366  0.4906 -0.1400
   74CHL1  H12A 7914   5.072   2.997   7.471 -0.0186  0.2345 -0.5374
   74CHL1  H12B 7915   4.906   3.013   7.414 -0.5628  1.0525  0.8726
   74CHL1   C11 7916   5.054   3.134   7.305  0.3083  0.3436 -0.5017
   74CHL1  H11A 7917   5.153   3.174   7.336  0.9771 -1.9405  0.5270
   74CHL1  H11B 7918   5.076   3.059   7.226  0.2960 -0.1686 -0.0249
   74CHL1    C9 7919   4.981   3.255   7.248  0.3653 -0.3895  0.1165
   74CHL1    H9 7920   4.884   3.219   7.208 -0.8939  2.8966 -0.1572
   74CHL1   C10 7921   5.061   3.321   7.125 -0.0435  0.2234 -0.1687
   74CHL1   C19 7922   5.200   3.362   7.170 -0.1467  0.0136 -0.6504
   74CHL1  H19A 7923   5.260   3.272   7.198 -0.0248  0.3468  0.1864
   74CHL1  H19B 7924   5.263   3.405   7.090 -0.2385 -0.8040 -1.1805
   74CHL1  H19C 7925   5.202   3.428   7.259 -1.1830  0.4288 -0.9338
   74CHL1    C1 7926   5.071   3.219   7.006 -0.2166 -0.2616  0.1533
   74CHL1   H1A 7927   5.144   3.140   7.036 -0.4600 -0.3856  0.4302
   74CHL1   H1B 7928   4.970   3.172   7.001 -0.0300 -0.6384 -0.1423
   74CHL1    C2 7929   5.101   3.281   6.864 -0.1958  0.5469 -0.1378
   74CHL1   H2A 7930   5.083   3.204   6.786  2.0397  0.8623 -1.0431
   74CHL1   H2B 7931   5.207   3.313   6.855 -0.1719  0.1079 -1.9660
   74CHL1   C20 7932   4.968   3.068   7.775 -0.4844  0.2208 -1.3064
   74CHL1   H20 7933   5.062   3.122   7.798 -0.4080 -0.5344  0.3410
   74CHL1   C21 7934   4.988   2.930   7.721  0.6337  0.4856 -0.5555
   74CHL1  H21A 7935   4.979   2.861   7.808  0.1959 -1.1183 -1.8293
   74CHL1  H21B 7936   5.087   2.921   7.671  1.6784 -0.0550  1.4880
   74CHL1  H21C 7937   4.906   2.895   7.655  0.0274 -0.0706  0.4664
   74CHL1   C22 7938   4.889   3.063   7.916  0.3021 -0.1471 -0.2795
   74CHL1  H22A 7939   4.839   3.161   7.930  0.0764 -0.5457  1.9563
   74CHL1  H22B 7940   4.806   2.990   7.920  0.1003  0.1249  3.2604
   74CHL1   C23 7941   4.979   3.023   8.033  0.3255 -0.2402 -0.4172
   74CHL1  H23A 7942   5.008   2.920   8.005 -0.2440 -1.0005  1.6378
   74CHL1  H23B 7943   5.059   3.100   8.024  1.0226 -0.5776  1.9542
   74CHL1   C24 7944   4.903   3.021   8.164  0.6950  0.1971  0.2612
   74CHL1  H24A 7945   4.863   3.122   8.187 -0.2546 -0.3209  0.9966
   74CHL1  H24B 7946   4.811   2.959   8.162  0.5328  0.4321 -2.5169
   74CHL1   C25 7947   4.993   2.980   8.282 -0.2881  0.7220 -0.1355
   74CHL1   H25 7948   5.080   3.047   8.296 -0.5728  0.6311  2.8173
   74CHL1   C26 7949   4.906   3.015   8.406 -0.3309 -0.1423 -0.2964
   74CHL1  H26A 7950   4.965   2.993   8.498 -1.5697 -0.1211  0.5235
   74CHL1  H26B 7951   4.874   3.120   8.394  1.5442  0.3921 -1.0394
   74CHL1  H26C 7952   4.809   2.962   8.396 -0.1668 -0.3483 -0.8536
   74CHL1   C27 7953   5.049   2.838   8.278 -0.2436  0.5272 -0.7441
   74CHL1  H27A 7954   5.107   2.823   8.185 -1.7559 -0.7969 -1.5329
   74CHL1  H27B 7955   5.104   2.827   8.374  0.1193 -1.1878 -1.1151
   74CHL1  H27C 7956   4.964   2.768   8.265 -0.1809 -0.2067  2.1741
   75CHL1    C3 7957   0.930   4.860   6.672 -0.0152  0.3980 -0.7548
   75CHL1    H3 7958   0.821   4.839   6.682 -0.2891  1.4703 -1.3098
   75CHL1    O3 7959   0.924   4.919   6.545  0.0411 -0.2178  0.0137
   75CHL1   H3' 7960   1.014   4.951   6.538 -0.7724  2.6144  1.3205
   75CHL1    C4 7961   0.974   4.951   6.780  0.0639  0.1233 -0.0928
   75CHL1   H4A 7962   1.081   4.975   6.760 -0.0134 -0.5001 -1.3476
   75CHL1   H4B 7963   0.920   5.048   6.783  0.8291  0.5435  2.1439
   75CHL1    C5 7964   0.989   4.879   6.914  0.2101 -0.0342 -0.0932
   75CHL1    C6 7965   0.906   4.918   7.011  0.4451  0.3656 -0.0998
   75CHL1    H6 7966   0.841   5.006   6.996  0.9956  0.5687 -1.4411
   75CHL1    C7 7967   0.924   4.853   7.152  0.2645  0.3843  0.0305
   75CHL1   H7A 7968   0.923   4.921   7.240  0.6393  2.5458 -1.5388
   75CHL1   H7B 7969   0.836   4.787   7.166  0.8598 -0.1420  1.5221
   75CHL1    C8 7970   1.053   4.763   7.173 -0.8001 -0.2157  0.0927
   75CHL1    H8 7971   1.144   4.825   7.182  0.1343 -1.5659  0.2104
   75CHL1   C14 7972   1.039   4.678   7.296 -0.4869 -0.3483  0.5442
   75CHL1   H14 7973   0.959   4.605   7.272 -0.5492 -0.0934 -0.0261
   75CHL1   C15 7974   1.015   4.745   7.433  0.6556  0.1800 -0.2550
   75CHL1  H15A 7975   1.074   4.839   7.439  1.3753 -0.3379  1.5284
   75CHL1  H15B 7976   0.907   4.771   7.440  0.1587 -1.2741 -1.8991
   75CHL1   C16 7977   1.057   4.646   7.538 -0.4431 -0.4789 -0.1937
   75CHL1  H16A 7978   1.133   4.686   7.608 -1.3024 -0.2769  0.6435
   75CHL1  H16B 7979   0.963   4.623   7.592 -0.1432  0.7646  0.9397
   75CHL1   C17 7980   1.119   4.526   7.456  0.0107 -0.2756  0.0493
   75CHL1   H17 7981   1.042   4.453   7.424  0.4961 -1.0327  0.5753
   75CHL1   C13 7982   1.160   4.583   7.320 -0.1814 -0.3678  0.0960
   75CHL1   C18 7983   1.290   4.665   7.341  0.3516  0.3347  0.8063
   75CHL1  H18A 7984   1.306   4.710   7.441  2.0146 -0.2893  0.8521
   75CHL1  H18B 7985   1.377   4.601   7.316  0.2740  1.6040 -3.5398
   75CHL1  H18C 7986   1.299   4.744   7.263 -0.4437 -0.0107  0.3526
   75CHL1   C12 7987   1.169   4.484   7.198  0.8611 -0.4290 -0.3655
   75CHL1  H12A 7988   1.264   4.428   7.216 -0.2196 -1.6175  2.1221
   75CHL1  H12B 7989   1.074   4.426   7.200  1.4080 -1.3344  0.2831
   75CHL1   C11 7990   1.182   4.559   7.066 -0.3747 -0.3622  0.3552
   75CHL1  H11A 7991   1.279   4.612   7.054 -0.9861  0.6122 -0.4492
   75CHL1  H11B 7992   1.168   4.488   6.981  1.8200 -1.1748  0.6001
   75CHL1    C9 7993   1.072   4.672   7.044 -0.2093 -0.9857  0.2024
   75CHL1    H9 7994   0.981   4.610   7.030  0.1611 -1.3670 -0.5386
   75CHL1   C10 7995   1.073   4.756   6.913 -0.0030  0.6421 -0.3874
   75CHL1   C19 7996   1.225   4.800   6.900 -1.1781  0.0790  0.1386
   75CHL1  H19A 7997   1.241   4.877   6.821 -3.4973 -1.6437 -2.2242
   75CHL1  H19B 7998   1.278   4.841   6.988  0.7458 -0.6242 -0.6233
   75CHL1  H19C 7999   1.286   4.714   6.863 -0.7633  1.0707 -1.6158
   75CHL1    C1 8000   1.030   4.664   6.795  0.0915 -0.3498  0.2659
   75CHL1   H1A 8001   1.105   4.583   6.784 -2.3672 -2.9347  1.1233
   75CHL1   H1B 8002   0.936   4.616   6.830 -0.9163 -0.0158 -1.8628
   75CHL1    C2 8003   1.006   4.730   6.667 -0.6669 -0.0049  0.5858
   75CHL1   H2A 8004   0.965   4.664   6.587  0.6449 -1.0449  0.7266
   75CHL1   H2B 8005   1.108   4.752   6.628 -0.7079 -1.1878 -0.2599
   75CHL1   C20 8006   1.236   4.458   7.543 -0.3971  0.1160 -0.4743
   75CHL1   H20 8007   1.323   4.523   7.565 -1.3178  0.3083  3.1496
   75CHL1   C21 8008   1.289   4.329   7.467  0.0017 -0.5065 -0.1605
   75CHL1  H21A 8009   1.213   4.265   7.416 -0.0001 -0.2737 -0.4487
   75CHL1  H21B 8010   1.360   4.267   7.526  1.4896  0.5908 -0.7545
   75CHL1  H21C 8011   1.358   4.376   7.395 -0.5197  0.5989  0.0472
   75CHL1   C22 8012   1.188   4.417   7.686 -0.3182 -0.1190  0.2415
   75CHL1  H22A 8013   1.142   4.509   7.729 -0.7102  0.1856 -0.7815
   75CHL1  H22B 8014   1.099   4.351   7.678 -0.1218 -0.3562  0.0182
   75CHL1   C23 8015   1.284   4.337   7.781  0.7357  0.8272  0.3202
   75CHL1  H23A 8016   1.235   4.342   7.880  2.1965  2.5119  1.0136
   75CHL1  H23B 8017   1.295   4.233   7.744  1.1909  0.5590  1.1890
   75CHL1   C24 8018   1.426   4.401   7.800 -0.4978  0.0362  0.0719
   75CHL1  H24A 8019   1.489   4.382   7.711 -1.6987  1.3900 -1.1287
   75CHL1  H24B 8020   1.417   4.512   7.803  2.9841  0.5225 -1.9630
   75CHL1   C25 8021   1.490   4.348   7.938  0.0407 -0.7895  0.2421
   75CHL1   H25 8022   1.598   4.376   7.934  0.1181 -0.5924  2.5674
   75CHL1   C26 8023   1.428   4.438   8.051  0.2806  0.3855  0.0437
   75CHL1  H26A 8024   1.445   4.542   8.017  1.1044  0.1764 -0.1946
   75CHL1  H26B 8025   1.319   4.418   8.060  0.0111  1.4529 -0.7757
   75CHL1  H26C 8026   1.480   4.438   8.150 -1.3323  0.4022  0.9279
   75CHL1   C27 8027   1.484   4.192   7.958  1.1047 -0.9039  0.1318
   75CHL1  H27A 8028   1.562   4.155   8.028 -1.5530 -1.2779  3.1154
   75CHL1  H27B 8029   1.382   4.158   7.985  0.6392  0.1926 -0.1896
   75CHL1  H27C 8030   1.507   4.139   7.863  1.2294  0.0939 -0.4063
   76CHL1    C3 8031   4.898   5.734   7.194  0.0434 -0.2614  0.4245
   76CHL1    H3 8032   4.873   5.632   7.231 -1.4272  0.9122  2.9242
   76CHL1    O3 8033   4.899   5.742   7.052 -0.0551 -0.2261  0.0519
   76CHL1   H3' 8034   4.811   5.724   7.020  0.5636  0.2728 -2.0558
   76CHL1    C4 8035   4.780   5.812   7.232 -0.3506 -0.3615  0.0707
   76CHL1   H4A 8036   4.794   5.918   7.202 -1.9700 -0.8325 -2.7502
   76CHL1   H4B 8037   4.688   5.775   7.182 -2.8780  0.9411  3.4084
   76CHL1    C5 8038   4.770   5.808   7.392 -0.3972 -0.1813 -0.5994
   76CHL1    C6 8039   4.660   5.766   7.448 -0.2064  0.0032  0.6394
   76CHL1    H6 8040   4.575   5.741   7.384 -0.2182 -0.2917  0.7677
   76CHL1    C7 8041   4.633   5.771   7.599  0.3064  0.2707 -0.3419
   76CHL1   H7A 8042   4.531   5.813   7.615 -0.8075 -1.2497 -2.8499
   76CHL1   H7B 8043   4.653   5.667   7.632  1.9155 -0.2546 -2.6687
   76CHL1    C8 8044   4.737   5.861   7.668 -0.1698 -0.0596  0.2280
   76CHL1    H8 8045   4.718   5.966   7.637 -0.6803 -0.0031  0.7233
   76CHL1   C14 8046   4.732   5.832   7.817 -0.2562 -1.0265  0.4671
   76CHL1   H14 8047   4.760   5.726   7.836 -3.9266 -2.4265 -0.9171
   76CHL1   C15 8048   4.588   5.841   7.883 -0.1818 -0.8646  0.3891
   76CHL1  H15A 8049   4.548   5.941   7.855 -0.0368 -1.5016 -2.4657
   76CHL1  H15B 8050   4.517   5.760   7.860  0.3733 -0.9437 -1.1960
   76CHL1   C16 8051   4.618   5.850   8.029  0.1905 -0.6178 -0.2735
   76CHL1  H16A 8052   4.565   5.941   8.064  2.3232  0.7829 -0.5127
   76CHL1  H16B 8053   4.579   5.764   8.088 -0.1085 -0.3923 -0.1371
   76CHL1   C17 8054   4.774   5.871   8.050  0.9568  0.4873  0.5480
   76CHL1   H17 8055   4.816   5.769   8.061  2.4412  1.1689  1.3944
   76CHL1   C13 8056   4.819   5.909   7.907  0.1872 -0.4933  0.9146
   76CHL1   C18 8057   4.793   6.062   7.896  0.4419 -0.5661  0.0292
   76CHL1  H18A 8058   4.788   6.108   7.795 -3.1439  1.3891  0.9539
   76CHL1  H18B 8059   4.698   6.104   7.933  0.4284  2.3415 -2.8554
   76CHL1  H18C 8060   4.872   6.115   7.954 -1.5057  0.9199  1.4353
   76CHL1   C12 8061   4.968   5.878   7.867 -0.0678 -0.2503 -0.5668
   76CHL1  H12A 8062   5.043   5.932   7.930 -0.0255 -0.8076 -0.1311
   76CHL1  H12B 8063   4.981   5.770   7.891  0.2184  0.1834  1.3866
   76CHL1   C11 8064   4.986   5.896   7.718 -0.0213  0.3229 -0.5629
   76CHL1  H11A 8065   4.995   6.006   7.702  1.4372  0.4245  0.6990
   76CHL1  H11B 8066   5.085   5.849   7.700 -0.2386 -1.7553  2.7651
   76CHL1    C9 8067   4.881   5.827   7.622 -0.3095  0.0681  0.3018
   76CHL1    H9 8068   4.894   5.718   7.640 -0.1198 -0.1355 -0.9821
   76CHL1   C10 8069   4.895   5.858   7.469 -0.2907  0.4003 -0.0374
   76CHL1   C19 8070   4.919   6.003   7.436  0.6111  0.2182 -0.5557
   76CHL1  H19A 8071   5.007   6.046   7.489  0.7904 -0.3279 -0.4135
   76CHL1  H19B 8072   4.941   6.019   7.328 -0.4685  2.1712 -0.5397
   76CHL1  H19C 8073   4.830   6.066   7.458 -0.0693 -1.0620  0.4248
   76CHL1    C1 8074   5.016   5.783   7.409  0.2138  0.5300  0.8136
   76CHL1   H1A 8075   5.109   5.832   7.445  0.7821 -0.0512  0.1724
   76CHL1   H1B 8076   5.011   5.681   7.453  1.3784 -0.1625 -0.5840
   76CHL1    C2 8077   5.028   5.783   7.252 -0.6381  0.3109  0.4426
   76CHL1   H2A 8078   5.111   5.723   7.207 -1.0931  1.1890 -1.6977
   76CHL1   H2B 8079   5.052   5.885   7.215 -0.9765 -0.3439 -1.7333
   76CHL1   C20 8080   4.817   5.953   8.172 -0.4726 -0.3183 -0.2114
   76CHL1   H20 8081   4.776   6.054   8.149 -0.9376 -0.4427  0.0559
   76CHL1   C21 8082   4.972   5.948   8.189 -0.1856  1.1085  0.3902
   76CHL1  H21A 8083   5.022   6.018   8.118  2.4869 -1.0843 -0.0607
   76CHL1  H21B 8084   5.001   5.846   8.158 -1.1146  0.3045  2.0513
   76CHL1  H21C 8085   5.012   5.966   8.291  1.5964  2.0969 -0.4387
   76CHL1   C22 8086   4.747   5.911   8.300 -0.0860  0.0707 -0.4682
   76CHL1  H22A 8087   4.638   5.904   8.285  0.1476  0.1230 -2.3473
   76CHL1  H22B 8088   4.782   5.815   8.345  1.0256  0.5980 -0.1730
   76CHL1   C23 8089   4.779   6.009   8.420  0.3477 -0.8596 -0.1146
   76CHL1  H23A 8090   4.724   5.970   8.509  0.1660 -1.6916 -0.5796
   76CHL1  H23B 8091   4.882   6.018   8.461  0.8832  1.7073 -1.7880
   76CHL1   C24 8092   4.731   6.156   8.397 -0.1612  0.4602  0.2409
   76CHL1  H24A 8093   4.789   6.205   8.316  0.9735  0.8554  1.2712
   76CHL1  H24B 8094   4.623   6.153   8.370 -0.5763 -0.0089  1.8210
   76CHL1   C25 8095   4.729   6.244   8.525  0.0921  0.3289  0.3544
   76CHL1   H25 8096   4.831   6.239   8.570  0.7464 -0.3679 -1.1080
   76CHL1   C26 8097   4.707   6.392   8.496 -0.2690 -0.2257 -0.3709
   76CHL1  H26A 8098   4.785   6.420   8.422  0.9017  2.6949  1.7466
   76CHL1  H26B 8099   4.599   6.407   8.476 -0.5971  0.6584  1.7980
   76CHL1  H26C 8100   4.728   6.462   8.580 -3.3218 -0.0131  0.3470
   76CHL1   C27 8101   4.622   6.194   8.627 -0.3821  0.2994  0.2203
   76CHL1  H27A 8102   4.524   6.172   8.579 -0.0584 -4.5096  1.2880
   76CHL1  H27B 8103   4.645   6.100   8.681 -1.8299  1.2564  2.6848
   76CHL1  H27C 8104   4.613   6.273   8.705  1.0309 -0.0830  0.8172
   77CHL1    C3 8105   6.124   4.926   6.719  0.0043 -0.4576  0.6241
   77CHL1    H3 8106   6.051   4.849   6.751 -1.0559  0.3445  0.1972
   77CHL1    O3 8107   6.150   4.905   6.588 -0.2496 -0.3221 -0.1063
   77CHL1   H3' 8108   6.095   4.967   6.541  0.6566  1.4610  1.0785
   77CHL1    C4 8109   6.050   5.063   6.731  0.2359 -0.2995  0.4030
   77CHL1   H4A 8110   6.107   5.130   6.663  0.3917 -1.5839 -0.7864
   77CHL1   H4B 8111   5.954   5.056   6.675  0.5188  1.0660 -0.2975
   77CHL1    C5 8112   6.020   5.110   6.871  0.2832  0.5361  0.4350
   77CHL1    C6 8113   5.896   5.118   6.918  0.5608  0.2288 -0.0696
   77CHL1    H6 8114   5.812   5.103   6.850 -0.6681 -2.7761  1.8838
   77CHL1    C7 8115   5.866   5.145   7.067 -0.3201  0.4745  0.2828
   77CHL1   H7A 8116   5.774   5.207   7.073 -0.4413  0.6549 -2.1686
   77CHL1   H7B 8117   5.834   5.052   7.118  0.1790 -0.3720 -0.9041
   77CHL1    C8 8118   5.988   5.213   7.135 -0.1916  0.4257 -0.2966
   77CHL1    H8 8119   5.991   5.315   7.091 -1.4022  0.6935  0.1992
   77CHL1   C14 8120   5.955   5.210   7.284  0.7432  0.6146  0.9934
   77CHL1   H14 8121   5.948   5.101   7.305 -0.3505  0.8978  2.2352
   77CHL1   C15 8122   5.817   5.264   7.326 -0.2083 -0.0482  0.0972
   77CHL1  H15A 8123   5.827   5.373   7.308 -2.0671  0.0740 -0.4794
   77CHL1  H15B 8124   5.725   5.212   7.290 -0.9224  1.5678 -0.5294
   77CHL1   C16 8125   5.832   5.244   7.477 -0.0616 -0.1516 -0.0695
   77CHL1  H16A 8126   5.783   5.325   7.535  1.4932  0.9350 -0.1926
   77CHL1  H16B 8127   5.783   5.149   7.504  0.6766 -0.7541 -0.8014
   77CHL1   C17 8128   5.981   5.244   7.511 -0.5135  0.0404 -0.5017
   77CHL1   H17 8129   6.007   5.138   7.529  0.7648  0.3295 -0.5372
   77CHL1   C13 8130   6.056   5.271   7.379  0.2665  0.1411  1.3048
   77CHL1   C18 8131   6.069   5.426   7.348 -0.1946  0.4791  0.6222
   77CHL1  H18A 8132   5.991   5.482   7.403  1.4723  0.5179  3.1434
   77CHL1  H18B 8133   6.165   5.445   7.401 -0.1060 -1.6662  1.3259
   77CHL1  H18C 8134   6.076   5.458   7.242  1.8425  0.7951  0.8046
   77CHL1   C12 8135   6.188   5.197   7.353 -0.5766  0.0664  0.4744
   77CHL1  H12A 8136   6.276   5.240   7.406  0.1262 -0.8041  0.0242
   77CHL1  H12B 8137   6.171   5.092   7.386 -1.2137 -0.2017 -0.6712
   77CHL1   C11 8138   6.227   5.188   7.196  0.7638  0.5870 -0.6780
   77CHL1  H11A 8139   6.254   5.289   7.159  0.0650  0.1797 -2.3979
   77CHL1  H11B 8140   6.304   5.110   7.182 -0.7085 -1.3325  1.1553
   77CHL1    C9 8141   6.112   5.135   7.110  0.3543  0.0513  0.0045
   77CHL1    H9 8142   6.092   5.032   7.147 -2.1623  0.9153  1.2798
   77CHL1   C10 8143   6.149   5.113   6.960  0.3250  0.7095 -0.4272
   77CHL1   C19 8144   6.235   5.229   6.910  0.0516 -0.4795 -0.2999
   77CHL1  H19A 8145   6.175   5.321   6.925  1.3031  0.0202  2.1437
   77CHL1  H19B 8146   6.335   5.233   6.958  0.6746  0.3407 -1.5852
   77CHL1  H19C 8147   6.261   5.216   6.802  2.0460  0.8245 -0.0421
   77CHL1    C1 8148   6.220   4.976   6.948  0.2270  0.1480  0.1989
   77CHL1   H1A 8149   6.321   4.990   6.993  0.2964  1.3129 -0.2825
   77CHL1   H1B 8150   6.179   4.889   7.004 -1.1824 -0.0992 -1.1415
   77CHL1    C2 8151   6.251   4.928   6.805 -0.0881 -0.0433 -0.2428
   77CHL1   H2A 8152   6.301   4.830   6.797  1.6629  0.9217 -1.6987
   77CHL1   H2B 8153   6.322   5.002   6.763  1.8876 -1.6378  0.1413
   77CHL1   C20 8154   6.012   5.332   7.639 -0.1614  0.0956 -0.1462
   77CHL1   H20 8155   5.980   5.437   7.623 -1.1342  0.2360  2.2613
   77CHL1   C21 8156   6.166   5.345   7.660 -0.2318  0.5590 -0.0203
   77CHL1  H21A 8157   6.207   5.242   7.673  0.4324  0.7621 -0.4874
   77CHL1  H21B 8158   6.199   5.417   7.737  0.4288 -0.1993  0.4239
   77CHL1  H21C 8159   6.217   5.381   7.568  1.1692  0.7705  0.8032
   77CHL1   C22 8160   5.949   5.276   7.775 -0.0865  0.3489 -0.7761
   77CHL1  H22A 8161   5.839   5.259   7.770 -0.0764 -0.1011  0.2704
   77CHL1  H22B 8162   5.987   5.175   7.798  2.2551  1.5536  1.1257
   77CHL1   C23 8163   5.989   5.357   7.903 -0.4923  0.3089 -0.0278
   77CHL1  H23A 8164   6.081   5.304   7.935 -0.3814  0.3000 -0.3530
   77CHL1  H23B 8165   6.012   5.459   7.866  0.5320  0.0211 -0.2230
   77CHL1   C24 8166   5.883   5.357   8.020 -0.2319  0.1733 -0.4904
   77CHL1  H24A 8167   5.788   5.403   7.986  0.1969  2.1244  0.7794
   77CHL1  H24B 8168   5.864   5.252   8.050 -0.9529 -0.3435 -2.5640
   77CHL1   C25 8169   5.933   5.455   8.126  0.0669 -0.5398 -0.8745
   77CHL1   H25 8170   5.935   5.556   8.080 -1.3572 -0.5999 -1.1172
   77CHL1   C26 8171   5.827   5.466   8.239 -0.0352 -0.1565  0.2384
   77CHL1  H26A 8172   5.734   5.505   8.192  0.6361  0.4155 -0.6645
   77CHL1  H26B 8173   5.806   5.367   8.284  0.3243  0.0355  0.8567
   77CHL1  H26C 8174   5.868   5.541   8.311 -1.3660  0.2490  0.6101
   77CHL1   C27 8175   6.077   5.429   8.179 -0.2869 -0.5870  0.2833
   77CHL1  H27A 8176   6.096   5.495   8.267  0.1112 -1.4986  0.9025
   77CHL1  H27B 8177   6.076   5.327   8.224  1.2732 -0.5564  0.4309
   77CHL1  H27C 8178   6.147   5.441   8.095  0.2827 -0.9146  0.7055
   78CHL1    C3 8179   1.331   0.271   6.779  0.0253 -0.2037 -0.0826
   78CHL1    H3 8180   1.435   0.251   6.815  0.6585  1.1685 -1.0890
   78CHL1    O3 8181   1.330   0.248   6.638 -0.4475 -0.1191 -0.0393
   78CHL1   H3' 8182   1.242   0.224   6.610  0.2447  0.2231 -2.8739
   78CHL1    C4 8183   1.229   0.176   6.841  0.6497 -0.2904 -0.2983
   78CHL1   H4A 8184   1.129   0.196   6.797  0.5780  0.3647  0.1424
   78CHL1   H4B 8185   1.253   0.070   6.815  3.0392 -0.0756  0.8362
   78CHL1    C5 8186   1.227   0.185   6.987  0.1725 -0.5607 -0.7110
   78CHL1    C6 8187   1.239   0.084   7.074  0.1657 -0.2067  0.8876
   78CHL1    H6 8188   1.249  -0.020   7.041  1.6625  0.1091  0.2593
   78CHL1    C7 8189   1.233   0.103   7.224  0.1177  0.9403 -0.0204
   78CHL1   H7A 8190   1.167   0.033   7.280  0.6204  0.1385 -0.4113
   78CHL1   H7B 8191   1.335   0.079   7.262  1.0804  0.6922 -2.6032
   78CHL1    C8 8192   1.189   0.239   7.283 -0.7826  0.3375 -0.1297
   78CHL1    H8 8193   1.079   0.250   7.274 -0.7173  1.5540  0.3120
   78CHL1   C14 8194   1.216   0.268   7.435 -0.0504  0.6764  0.5521
   78CHL1   H14 8195   1.327   0.260   7.434 -0.0622  0.5026  0.6644
   78CHL1   C15 8196   1.173   0.167   7.542  0.2499  0.1018 -0.3524
   78CHL1  H15A 8197   1.067   0.137   7.530 -0.2371  0.9293  1.5399
   78CHL1  H15B 8198   1.231   0.072   7.545 -3.0280 -2.0223  0.2723
   78CHL1   C16 8199   1.186   0.253   7.672  0.5577 -0.1304 -0.5657
   78CHL1  H16A 8200   1.087   0.251   7.722 -0.1636 -1.8905 -1.9709
   78CHL1  H16B 8201   1.265   0.216   7.740 -0.1455 -2.4457 -0.9434
   78CHL1   C17 8202   1.224   0.402   7.628 -0.6371  0.1150  0.6043
   78CHL1   H17 8203   1.335   0.394   7.627 -0.7651 -4.7475 -0.0572
   78CHL1   C13 8204   1.178   0.406   7.477  0.6369  0.2924 -0.4532
   78CHL1   C18 8205   1.024   0.416   7.469 -0.9998  0.3542 -0.0159
   78CHL1  H18A 8206   0.990   0.517   7.499  1.3965  0.9713  0.7886
   78CHL1  H18B 8207   0.979   0.401   7.368  1.0648  1.2845 -1.1212
   78CHL1  H18C 8208   0.976   0.340   7.534  0.0311 -1.5235 -1.3460
   78CHL1   C12 8209   1.257   0.497   7.384 -0.0199  0.2749 -0.7162
   78CHL1  H12A 8210   1.249   0.604   7.414  0.2441 -0.4068  2.1003
   78CHL1  H12B 8211   1.362   0.462   7.399 -0.4019 -0.1660  1.3277
   78CHL1   C11 8212   1.214   0.485   7.245 -0.1825 -0.0112 -0.0300
   78CHL1  H11A 8213   1.105   0.507   7.243 -0.1607  0.4143  1.7173
   78CHL1  H11B 8214   1.260   0.577   7.202 -1.2213  1.5392  1.9658
   78CHL1    C9 8215   1.256   0.340   7.195 -0.9119 -0.2918  0.7698
   78CHL1    H9 8216   1.365   0.321   7.202 -0.9701 -1.7788 -1.3385
   78CHL1   C10 8217   1.218   0.325   7.040 -0.1610 -0.0692 -0.4376
   78CHL1   C19 8218   1.067   0.365   7.022 -0.2368  0.0389 -0.1520
   78CHL1  H19A 8219   1.022   0.349   6.922 -0.9881  1.5514 -0.0821
   78CHL1  H19B 8220   1.001   0.326   7.103  2.4084  0.1811  2.2326
   78CHL1  H19C 8221   1.057   0.475   7.035 -2.7529 -0.2848  1.3581
   78CHL1    C1 8222   1.303   0.430   6.964  0.1899 -0.0615 -0.1141
   78CHL1   H1A 8223   1.275   0.534   6.991 -0.7305  0.0214 -1.3355
   78CHL1   H1B 8224   1.408   0.418   6.998  0.0871 -0.2786  0.1389
   78CHL1    C2 8225   1.288   0.419   6.811 -0.3593 -0.0726 -0.3317
   78CHL1   H2A 8226   1.346   0.499   6.759 -1.5479  0.2958 -1.1327
   78CHL1   H2B 8227   1.183   0.436   6.779  0.3232 -0.2424 -2.8694
   78CHL1   C20 8228   1.173   0.501   7.736 -0.6992  0.6613 -0.6671
   78CHL1   H20 8229   1.063   0.491   7.746 -0.6687 -1.0697 -1.6653
   78CHL1   C21 8230   1.214   0.642   7.690 -0.1361  0.2184 -0.4711
   78CHL1  H21A 8231   1.134   0.673   7.619 -0.7976 -0.9754 -0.2814
   78CHL1  H21B 8232   1.315   0.648   7.645 -0.7832  0.8217 -1.9117
   78CHL1  H21C 8233   1.203   0.710   7.778 -2.5630 -2.6327  1.6456
   78CHL1   C22 8234   1.227   0.481   7.883 -0.1170  0.7635  0.6352
   78CHL1  H22A 8235   1.170   0.543   7.956 -1.1553 -2.0067  2.3031
   78CHL1  H22B 8236   1.201   0.377   7.911  0.6428  0.3905 -0.0035
   78CHL1   C23 8237   1.374   0.520   7.906  0.1841  0.3897  0.7257
   78CHL1  H23A 8238   1.428   0.473   7.821 -0.4948 -0.6654  0.8561
   78CHL1  H23B 8239   1.389   0.629   7.891 -0.8536  0.3276 -1.0198
   78CHL1   C24 8240   1.424   0.478   8.045  0.1734 -0.1324  0.4622
   78CHL1  H24A 8241   1.345   0.509   8.117 -1.6672 -3.7155  0.1786
   78CHL1  H24B 8242   1.424   0.368   8.062  2.1883 -0.3076 -0.3739
   78CHL1   C25 8243   1.560   0.535   8.081  0.8640  0.2253 -0.9465
   78CHL1   H25 8244   1.555   0.645   8.062  0.3420  0.1406 -1.3299
   78CHL1   C26 8245   1.613   0.517   8.228  0.4144  0.5357 -0.2456
   78CHL1  H26A 8246   1.697   0.590   8.237 -1.1045  2.4006 -0.6185
   78CHL1  H26B 8247   1.532   0.549   8.297 -1.5147 -0.6912 -1.8308
   78CHL1  H26C 8248   1.629   0.409   8.247 -1.3565  0.3836  0.5625
   78CHL1   C27 8249   1.663   0.481   7.985 -0.2025  0.4211  0.4543
   78CHL1  H27A 8250   1.758   0.538   7.998  0.0776  0.4997 -1.6004
   78CHL1  H27B 8251   1.685   0.375   8.010  0.5007  0.4315 -0.0938
   78CHL1  H27C 8252   1.628   0.487   7.880  4.0012  0.9788 -1.1076
   79CHL1    C3 8253   6.285   1.043   7.107 -0.7694 -0.0161  0.0617
   79CHL1    H3 8254   6.377   1.097   7.137 -1.5529  1.7242 -0.5335
   79CHL1    O3 8255   6.296   0.987   6.977 -0.0871  0.3053 -0.4794
   79CHL1   H3' 8256   6.387   0.959   6.980  0.3863  1.7083  2.6137
   79CHL1    C4 8257   6.267   0.918   7.207  0.6540  1.1765 -0.6641
   79CHL1   H4A 8258   6.182   0.852   7.181  1.5260 -1.0697  1.7423
   79CHL1   H4B 8259   6.360   0.859   7.196  1.1998  1.8819  0.0238
   79CHL1    C5 8260   6.245   0.971   7.344  0.0414  0.2469 -0.0688
   79CHL1    C6 8261   6.323   0.928   7.442 -0.2360 -0.3940  0.0637
   79CHL1    H6 8262   6.397   0.849   7.424 -0.5414 -1.3494  2.6200
   79CHL1    C7 8263   6.310   0.970   7.587  0.0948  0.8899 -0.7214
   79CHL1   H7A 8264   6.309   0.884   7.657 -1.9987  1.8562  0.5195
   79CHL1   H7B 8265   6.402   1.029   7.605  1.4489 -1.0825 -0.9199
   79CHL1    C8 8266   6.178   1.054   7.613 -0.1583  0.0173  0.2788
   79CHL1    H8 8267   6.093   0.982   7.620  0.0390 -0.0970  1.7905
   79CHL1   C14 8268   6.198   1.134   7.746 -0.3836 -0.5613 -0.4587
   79CHL1   H14 8269   6.289   1.192   7.718 -0.1576 -0.8153 -0.2543
   79CHL1   C15 8270   6.226   1.053   7.874 -0.4298  0.7727  0.2055
   79CHL1  H15A 8271   6.150   0.972   7.881 -2.5330  2.5587 -0.8023
   79CHL1  H15B 8272   6.325   1.005   7.885 -1.0962 -0.8103 -0.3462
   79CHL1   C16 8273   6.207   1.168   7.976  0.0438  0.4763  0.0240
   79CHL1  H16A 8274   6.170   1.124   8.071  0.5284 -0.4938 -0.2170
   79CHL1  H16B 8275   6.307   1.214   7.993 -0.6454  2.5134 -1.1506
   79CHL1   C17 8276   6.120   1.282   7.914 -0.3017 -0.0260  0.8415
   79CHL1   H17 8277   6.196   1.356   7.880  0.5888 -0.8762  0.9531
   79CHL1   C13 8278   6.078   1.222   7.779 -0.4786 -0.4908 -0.4758
   79CHL1   C18 8279   5.949   1.139   7.807  0.1087  0.2583  0.1279
   79CHL1  H18A 8280   5.857   1.201   7.795 -1.5274 -1.7806  1.3790
   79CHL1  H18B 8281   5.942   1.046   7.746  1.2348 -0.0443  0.4303
   79CHL1  H18C 8282   5.942   1.111   7.915 -1.5444 -1.6761 -0.4108
   79CHL1   C12 8283   6.059   1.324   7.666 -0.1002 -0.0888 -0.0341
   79CHL1  H12A 8284   5.964   1.380   7.679 -2.2402 -2.9745 -2.1110
   79CHL1  H12B 8285   6.143   1.396   7.682  0.6974 -1.1525  0.7159
   79CHL1   C11 8286   6.052   1.263   7.530  0.3461 -0.0472  0.2245
   79CHL1  H11A 8287   5.954   1.212   7.524  0.7255 -0.6324 -1.1918
   79CHL1  H11B 8288   6.057   1.345   7.455 -0.0756  1.1428  1.4574
   79CHL1    C9 8289   6.155   1.154   7.503 -0.1283 -0.1284  0.1879
   79CHL1    H9 8290   6.251   1.207   7.488  0.8819 -2.1320 -0.9296
   79CHL1   C10 8291   6.139   1.078   7.368  0.2632  0.0303  0.2965
   79CHL1   C19 8292   6.006   1.002   7.361 -0.0908 -0.5707 -0.2144
   79CHL1  H19A 8293   5.996   0.933   7.275 -0.8628 -2.1017  1.0479
   79CHL1  H19B 8294   5.970   0.956   7.456 -0.2846 -1.8018 -0.8688
   79CHL1  H19C 8295   5.928   1.082   7.357  0.5537  0.2567  2.0210
   79CHL1    C1 8296   6.153   1.188   7.248  0.1088  0.0916  0.1889
   79CHL1   H1A 8297   6.072   1.263   7.262 -1.6785 -2.0185  1.8042
   79CHL1   H1B 8298   6.245   1.249   7.262  0.8409 -1.0775  0.5549
   79CHL1    C2 8299   6.165   1.135   7.105 -0.0214  0.2759 -0.2653
   79CHL1   H2A 8300   6.177   1.221   7.036  3.5197  0.6100  0.5745
   79CHL1   H2B 8301   6.076   1.074   7.076  0.6180 -1.1322  0.6496
   79CHL1   C20 8302   6.021   1.344   8.015  0.1371 -0.3403 -0.0086
   79CHL1   H20 8303   5.954   1.265   8.055 -0.2713 -1.1866 -2.2424
   79CHL1   C21 8304   5.940   1.460   7.946 -0.6106 -0.5298 -0.0882
   79CHL1  H21A 8305   6.021   1.528   7.912  0.3802 -1.5855  0.0897
   79CHL1  H21B 8306   5.876   1.529   8.006  0.6069  2.3064 -1.8800
   79CHL1  H21C 8307   5.887   1.421   7.856 -0.7876  1.7543 -1.0229
   79CHL1   C22 8308   6.097   1.404   8.141 -0.4987  0.4329 -0.2257
   79CHL1  H22A 8309   6.173   1.341   8.191 -2.0322 -2.8561 -1.7818
   79CHL1  H22B 8310   6.153   1.492   8.101 -2.3147  2.2902  1.0945
   79CHL1   C23 8311   6.011   1.454   8.259 -0.1339  0.2384  0.6997
   79CHL1  H23A 8312   6.069   1.536   8.305  2.1741 -2.1598  2.3180
   79CHL1  H23B 8313   5.922   1.500   8.210  0.6793  0.3606 -0.7232
   79CHL1   C24 8314   5.968   1.352   8.361 -0.1355  0.5768  0.0442
   79CHL1  H24A 8315   5.904   1.276   8.310 -1.1682  3.1740 -2.8089
   79CHL1  H24B 8316   6.054   1.297   8.405  0.7664  2.0307  0.1686
   79CHL1   C25 8317   5.882   1.427   8.467  0.4654 -0.4428 -0.3600
   79CHL1   H25 8318   5.793   1.478   8.425  0.2120  0.6406  1.4015
   79CHL1   C26 8319   5.826   1.330   8.567  0.7464  0.4553  0.2018
   79CHL1  H26A 8320   5.902   1.272   8.622  0.8839  0.3530 -0.0939
   79CHL1  H26B 8321   5.764   1.388   8.640 -1.4334 -1.0382 -0.3473
   79CHL1  H26C 8322   5.748   1.261   8.527 -0.6879  1.1868  1.5845
   79CHL1   C27 8323   5.975   1.519   8.537  0.2070  0.0482  0.1074
   79CHL1  H27A 8324   6.068   1.463   8.558  0.5128  0.4192 -0.2526
   79CHL1  H27B 8325   6.004   1.608   8.478  0.5930  1.9273  2.9453
   79CHL1  H27C 8326   5.930   1.554   8.632 -2.1253  1.6609 -1.4713
   80CHL1    C3 8327   5.640   3.964   7.192  0.2252 -0.3689 -1.0407
   80CHL1    H3 8328   5.561   3.886   7.191 -0.7935  0.6218 -2.5143
   80CHL1    O3 8329   5.662   3.995   7.055 -0.0773 -0.0821 -0.1794
   80CHL1   H3' 8330   5.695   3.910   7.025  1.6924  0.9403 -1.2262
   80CHL1    C4 8331   5.600   4.097   7.269  0.6194 -0.3623 -0.1170
   80CHL1   H4A 8332   5.683   4.170   7.260  1.5704 -1.0472  2.4561
   80CHL1   H4B 8333   5.516   4.148   7.216  3.2699  2.3781 -1.9970
   80CHL1    C5 8334   5.566   4.066   7.414 -0.2145  0.6348 -0.4492
   80CHL1    C6 8335   5.439   4.064   7.454  0.6046 -0.3354 -0.9117
   80CHL1    H6 8336   5.359   4.101   7.387 -1.6565 -0.8042  1.3614
   80CHL1    C7 8337   5.382   4.027   7.587  0.0827  0.5184 -0.0648
   80CHL1   H7A 8338   5.310   4.107   7.615  0.7724  2.0591 -2.4478
   80CHL1   H7B 8339   5.331   3.929   7.573 -0.6250  1.3036 -4.3498
   80CHL1    C8 8340   5.497   4.023   7.696 -0.6429  0.0418 -0.0806
   80CHL1    H8 8341   5.535   4.125   7.717  1.5707 -0.5319 -0.9745
   80CHL1   C14 8342   5.444   3.948   7.812  0.4442 -0.4878 -0.2101
   80CHL1   H14 8343   5.400   3.850   7.782 -2.2933  0.3798  0.5947
   80CHL1   C15 8344   5.312   4.006   7.879 -0.2057  0.2544  0.0462
   80CHL1  H15A 8345   5.333   4.114   7.894  0.6443  0.0394  0.4110
   80CHL1  H15B 8346   5.220   3.986   7.820  0.3925  0.6788 -1.0659
   80CHL1   C16 8347   5.310   3.941   8.019  0.4643 -0.0813  0.1817
   80CHL1  H16A 8348   5.321   4.017   8.100  2.7093  0.9856 -1.0245
   80CHL1  H16B 8349   5.225   3.871   8.032  0.3861  0.0901  0.5944
   80CHL1   C17 8350   5.437   3.857   8.034 -0.2197 -0.0863 -0.0628
   80CHL1   H17 8351   5.416   3.753   8.000 -0.2775 -0.5016  1.2021
   80CHL1   C13 8352   5.539   3.918   7.927 -0.0733  0.2327  0.6417
   80CHL1   C18 8353   5.601   4.045   7.987  0.2607 -0.0404 -0.2547
   80CHL1  H18A 8354   5.684   4.011   8.052  0.5652 -3.6991 -2.3212
   80CHL1  H18B 8355   5.633   4.124   7.915 -0.4371 -0.9790 -1.6479
   80CHL1  H18C 8356   5.522   4.103   8.040 -0.5843  1.7431 -3.1790
   80CHL1   C12 8357   5.645   3.826   7.866  0.2179  0.1461  0.3580
   80CHL1  H12A 8358   5.719   3.808   7.946 -1.4931 -2.5824  1.4505
   80CHL1  H12B 8359   5.594   3.736   7.828 -1.1795  1.6030 -1.4234
   80CHL1   C11 8360   5.712   3.887   7.743  0.5635  0.7851 -0.4396
   80CHL1  H11A 8361   5.758   3.980   7.782 -0.8446  1.7111 -0.8862
   80CHL1  H11B 8362   5.794   3.822   7.707 -0.2327 -0.3136 -0.3169
   80CHL1    C9 8363   5.610   3.935   7.629  0.2148  0.0568 -0.4173
   80CHL1    H9 8364   5.561   3.844   7.590  0.5147  0.0568 -0.7971
   80CHL1   C10 8365   5.676   4.005   7.496  0.2551 -0.1357  0.1691
   80CHL1   C19 8366   5.769   4.120   7.545 -0.4688 -0.0509 -0.0016
   80CHL1  H19A 8367   5.715   4.197   7.603  2.4102  2.5053 -0.4273
   80CHL1  H19B 8368   5.849   4.081   7.612 -0.9535 -0.6166  0.2501
   80CHL1  H19C 8369   5.822   4.168   7.460  2.3003  1.2212  2.2550
   80CHL1    C1 8370   5.751   3.884   7.411  0.7351 -0.4426 -0.5362
   80CHL1   H1A 8371   5.849   3.878   7.463  0.8606 -1.6392 -0.8843
   80CHL1   H1B 8372   5.700   3.785   7.415  0.0525 -0.1194 -1.0134
   80CHL1    C2 8373   5.771   3.921   7.262 -0.0467 -0.2404  0.0334
   80CHL1   H2A 8374   5.818   3.844   7.196 -2.9015 -1.5405 -0.6515
   80CHL1   H2B 8375   5.839   4.008   7.253  0.3595 -0.2890  2.1231
   80CHL1   C20 8376   5.483   3.855   8.174  0.4378 -0.4896  0.0825
   80CHL1   H20 8377   5.510   3.953   8.220 -0.2974 -0.9005  1.4529
   80CHL1   C21 8378   5.604   3.766   8.197  0.2432  0.4728  0.9852
   80CHL1  H21A 8379   5.630   3.729   8.298 -2.7249  0.1682  1.7292
   80CHL1  H21B 8380   5.696   3.816   8.159 -0.4675 -0.1110 -1.7143
   80CHL1  H21C 8381   5.597   3.675   8.134  0.5070 -0.1270  1.8045
   80CHL1   C22 8382   5.384   3.792   8.279  0.3231 -0.5849  0.2868
   80CHL1  H22A 8383   5.422   3.791   8.384  0.1198  0.0481  0.3701
   80CHL1  H22B 8384   5.295   3.858   8.274  1.4509  0.9247 -2.4727
   80CHL1   C23 8385   5.340   3.644   8.250 -0.1563 -0.1437  0.5517
   80CHL1  H23A 8386   5.333   3.614   8.144  0.5163  0.6998  0.2547
   80CHL1  H23B 8387   5.423   3.580   8.287  0.8387  0.8279  0.0719
   80CHL1   C24 8388   5.214   3.614   8.336  0.1745 -0.5227  0.4437
   80CHL1  H24A 8389   5.228   3.644   8.442  0.4126 -0.9495  0.5364
   80CHL1  H24B 8390   5.133   3.672   8.287  0.1215 -1.0195 -0.0782
   80CHL1   C25 8391   5.168   3.461   8.323 -0.4522  0.7633  0.3114
   80CHL1   H25 8392   5.252   3.400   8.362 -1.6258 -0.9335  0.2855
   80CHL1   C26 8393   5.046   3.447   8.420 -0.1562  0.2881  0.4170
   80CHL1  H26A 8394   4.958   3.488   8.365 -0.4490 -0.9983 -0.1395
   80CHL1  H26B 8395   5.021   3.339   8.432 -1.9915  0.2606 -2.6947
   80CHL1  H26C 8396   5.060   3.485   8.523 -0.9993 -0.0602  0.6680
   80CHL1   C27 8397   5.137   3.419   8.184 -0.0846 -0.1242  0.2215
   80CHL1  H27A 8398   5.079   3.325   8.171  1.4208 -1.2282  1.1624
   80CHL1  H27B 8399   5.069   3.495   8.140 -1.8846 -0.8069  1.6574
   80CHL1  H27C 8400   5.236   3.417   8.134  0.0936 -3.3716  0.5043
   81CHL1    C3 8401   1.357   4.156   6.854  0.6892 -0.1752  0.4673
   81CHL1    H3 8402   1.419   4.245   6.877  0.1089  0.3071  0.2014
   81CHL1    O3 8403   1.315   4.179   6.722  0.0831 -0.4055 -0.2598
   81CHL1   H3' 8404   1.246   4.116   6.704 -1.1000  0.5033  0.8361
   81CHL1    C4 8405   1.442   4.032   6.853  0.2420 -0.9228 -0.5089
   81CHL1   H4A 8406   1.378   3.955   6.804 -0.7364 -2.0893  2.3843
   81CHL1   H4B 8407   1.534   4.054   6.796  0.5611  1.4771  0.8355
   81CHL1    C5 8408   1.483   4.001   6.997 -0.2866 -0.2848 -0.4661
   81CHL1    C6 8409   1.611   3.989   7.020 -0.0652  0.5521  0.1386
   81CHL1    H6 8410   1.686   4.000   6.940 -0.4160  0.2855 -0.2293
   81CHL1    C7 8411   1.669   3.957   7.157  0.2896  0.0244  0.1521
   81CHL1   H7A 8412   1.733   3.866   7.145 -0.7138 -0.5274 -1.2425
   81CHL1   H7B 8413   1.725   4.042   7.201  0.8763 -0.1546 -0.2301
   81CHL1    C8 8414   1.562   3.912   7.259  0.2577  0.5538  0.5092
   81CHL1    H8 8415   1.526   3.812   7.230  2.7441 -0.4406  0.6212
   81CHL1   C14 8416   1.622   3.918   7.396  1.0347  0.2952  0.0270
   81CHL1   H14 8417   1.630   4.024   7.428  0.6965  0.2523  0.2584
   81CHL1   C15 8418   1.761   3.861   7.421 -0.2899 -0.1630  0.3058
   81CHL1  H15A 8419   1.755   3.769   7.358  0.3891  0.8398 -1.2900
   81CHL1  H15B 8420   1.844   3.924   7.383  0.7735 -0.9723  1.2148
   81CHL1   C16 8421   1.763   3.825   7.571  0.8139  0.0099  0.2496
   81CHL1  H16A 8422   1.763   3.714   7.579 -3.6520 -0.1403  0.1596
   81CHL1  H16B 8423   1.850   3.873   7.622  1.5359  2.0927 -2.7069
   81CHL1   C17 8424   1.619   3.859   7.624  0.2532 -0.6954 -0.0118
   81CHL1   H17 8425   1.620   3.964   7.661 -2.1455 -0.1203 -1.4116
   81CHL1   C13 8426   1.523   3.858   7.505  0.7313  0.0757 -0.0850
   81CHL1   C18 8427   1.489   3.708   7.463  0.7422 -0.6890  0.3480
   81CHL1  H18A 8428   1.410   3.696   7.385 -0.2622 -3.2488  1.6189
   81CHL1  H18B 8429   1.578   3.647   7.437 -0.1284 -1.7948 -0.1572
   81CHL1  H18C 8430   1.457   3.644   7.549  3.1961 -3.0200 -0.3151
   81CHL1   C12 8431   1.397   3.945   7.509  0.1528  0.2117 -0.1988
   81CHL1  H12A 8432   1.315   3.909   7.575 -0.9087  0.3883 -1.3829
   81CHL1  H12B 8433   1.426   4.043   7.552  1.4819 -0.1224 -0.3075
   81CHL1   C11 8434   1.336   3.959   7.369  0.4579  0.2565  0.2585
   81CHL1  H11A 8435   1.292   3.859   7.352  1.8877 -0.5434  1.0381
   81CHL1  H11B 8436   1.253   4.032   7.378  0.5219  0.4928 -0.9783
   81CHL1    C9 8437   1.441   4.002   7.257 -0.8327  0.3088  0.5234
   81CHL1    H9 8438   1.464   4.103   7.296  0.2336 -0.0753  0.9101
   81CHL1   C10 8439   1.379   4.009   7.114 -0.8736 -0.3916 -0.2275
   81CHL1   C19 8440   1.303   3.872   7.085  0.0860  0.2311 -1.0110
   81CHL1  H19A 8441   1.353   3.780   7.120 -1.4349 -0.3723 -0.3400
   81CHL1  H19B 8442   1.197   3.882   7.120  0.9015  2.4359  1.1974
   81CHL1  H19C 8443   1.273   3.854   6.980 -1.8161 -0.7670 -0.3534
   81CHL1    C1 8444   1.291   4.127   7.096  0.4440 -0.4537  0.1426
   81CHL1   H1A 8445   1.201   4.128   7.160 -0.9231  4.3037 -1.4322
   81CHL1   H1B 8446   1.349   4.214   7.131  1.4687 -0.7137 -0.8298
   81CHL1    C2 8447   1.238   4.149   6.953  0.3496  0.0882  0.0873
   81CHL1   H2A 8448   1.169   4.235   6.947 -1.0490 -0.8543  1.6659
   81CHL1   H2B 8449   1.177   4.058   6.932  1.0602 -0.1974 -0.8236
   81CHL1   C20 8450   1.574   3.776   7.743  0.3691  1.3365 -0.9200
   81CHL1   H20 8451   1.581   3.670   7.709  0.5382  0.0128  2.8174
   81CHL1   C21 8452   1.425   3.806   7.781  0.3835 -0.3604  0.1074
   81CHL1  H21A 8453   1.401   3.787   7.887 -2.3755  0.1312 -0.3527
   81CHL1  H21B 8454   1.353   3.757   7.712  0.8907 -3.1369  1.4124
   81CHL1  H21C 8455   1.402   3.915   7.779  1.6573 -0.0784 -0.4782
   81CHL1   C22 8456   1.657   3.787   7.874  0.8078 -0.3053 -0.6513
   81CHL1  H22A 8457   1.765   3.778   7.849  1.3441  2.3493  0.3979
   81CHL1  H22B 8458   1.655   3.893   7.906  2.6979 -0.2168 -0.6888
   81CHL1   C23 8459   1.624   3.680   7.983  0.1358  0.2367  0.0348
   81CHL1  H23A 8460   1.539   3.721   8.041  1.2527  1.6879  0.7065
   81CHL1  H23B 8461   1.603   3.583   7.934 -1.5858  0.6498 -0.1086
   81CHL1   C24 8462   1.746   3.655   8.079 -0.8879 -0.6831 -0.4405
   81CHL1  H24A 8463   1.839   3.658   8.018 -0.3202 -1.5997  0.3400
   81CHL1  H24B 8464   1.754   3.741   8.148 -1.0245  0.9293 -2.3454
   81CHL1   C25 8465   1.741   3.517   8.151 -1.1728 -0.7940  0.5355
   81CHL1   H25 8466   1.746   3.433   8.079 -1.1700 -1.8674  1.7468
   81CHL1   C26 8467   1.871   3.498   8.239  0.9290  0.4797  0.1552
   81CHL1  H26A 8468   1.869   3.565   8.327 -0.6426  1.2499 -0.4170
   81CHL1  H26B 8469   1.862   3.392   8.272 -2.9382  0.3405 -0.7493
   81CHL1  H26C 8470   1.954   3.513   8.167  0.8288  0.0686 -0.0545
   81CHL1   C27 8471   1.620   3.501   8.243 -0.4854  0.7257 -0.1099
   81CHL1  H27A 8472   1.524   3.513   8.188  0.0991 -0.5516 -1.4703
   81CHL1  H27B 8473   1.613   3.395   8.273 -2.3159  1.1776  1.2924
   81CHL1  H27C 8474   1.624   3.584   8.317 -1.5530  0.6948 -0.0066
   82CHL1    C3 8475   4.118   5.281   6.998  0.4879  0.7536 -0.5163
   82CHL1    H3 8476   4.201   5.351   7.021 -0.4251  1.8409 -0.4786
   82CHL1    O3 8477   4.100   5.264   6.860 -0.1057  0.0686  0.0280
   82CHL1   H3' 8478   4.168   5.312   6.812  0.3786 -1.6633 -1.1311
   82CHL1    C4 8479   4.152   5.146   7.062 -0.6084  0.2733  0.5301
   82CHL1   H4A 8480   4.085   5.062   7.033  1.3928 -1.2581  0.0788
   82CHL1   H4B 8481   4.245   5.113   7.011 -0.7779  1.7388 -0.8182
   82CHL1    C5 8482   4.164   5.155   7.208 -0.0383 -0.5318  0.1652
   82CHL1    C6 8483   4.273   5.108   7.268  0.0167 -0.0172 -0.3450
   82CHL1    H6 8484   4.357   5.071   7.208  0.0807 -1.2054  0.4544
   82CHL1    C7 8485   4.292   5.108   7.416  0.6234 -0.2050 -0.4899
   82CHL1   H7A 8486   4.325   5.005   7.437 -1.8526 -1.0381 -0.3398
   82CHL1   H7B 8487   4.375   5.175   7.447  1.8375 -0.9426 -2.0345
   82CHL1    C8 8488   4.161   5.135   7.494 -0.0377  0.2602 -0.4251
   82CHL1    H8 8489   4.095   5.047   7.484 -1.5052  1.5426 -3.0050
   82CHL1   C14 8490   4.198   5.168   7.642  1.0435  0.0353 -0.0669
   82CHL1   H14 8491   4.251   5.265   7.637 -2.7097  2.1904 -3.4452
   82CHL1   C15 8492   4.283   5.072   7.722  0.3452  0.5838 -0.1966
   82CHL1  H15A 8493   4.251   4.967   7.703  1.6743  0.1764 -0.2554
   82CHL1  H15B 8494   4.393   5.078   7.720  0.3557  0.4899  0.0929
   82CHL1   C16 8495   4.240   5.105   7.867  0.4899  0.5975 -0.2032
   82CHL1  H16A 8496   4.192   5.018   7.916  0.8255  1.1472  1.1240
   82CHL1  H16B 8497   4.324   5.128   7.935 -0.9271  1.0170  1.4641
   82CHL1   C17 8498   4.130   5.216   7.861  0.1314  0.4859 -0.5359
   82CHL1   H17 8499   4.184   5.313   7.856 -1.3442  1.3094 -1.0573
   82CHL1   C13 8500   4.064   5.200   7.721 -0.2072  0.3870  0.3230
   82CHL1   C18 8501   3.975   5.069   7.718 -0.4358  0.0183  0.6943
   82CHL1  H18A 8502   3.923   5.054   7.622 -0.6638 -0.7314  0.9291
   82CHL1  H18B 8503   4.030   4.977   7.745  0.5769  0.7409  1.1666
   82CHL1  H18C 8504   3.891   5.063   7.790 -0.9015  1.6711  0.3208
   82CHL1   C12 8505   3.999   5.330   7.663  0.3800 -0.0439 -0.1492
   82CHL1  H12A 8506   3.895   5.342   7.702 -0.5563  2.0956 -2.9261
   82CHL1  H12B 8507   4.056   5.418   7.700 -0.5919 -0.5272  2.7773
   82CHL1   C11 8508   3.967   5.316   7.513 -0.2143  0.5982  0.1025
   82CHL1  H11A 8509   3.871   5.260   7.512 -1.0136  1.7499 -3.3796
   82CHL1  H11B 8510   3.940   5.416   7.473  0.1523  0.7957  0.3519
   82CHL1    C9 8511   4.082   5.257   7.421 -1.0042 -0.4822  0.2440
   82CHL1    H9 8512   4.161   5.334   7.428 -0.8187 -0.7768  2.1157
   82CHL1   C10 8513   4.041   5.227   7.280 -0.4141 -0.2339  0.4429
   82CHL1   C19 8514   3.928   5.119   7.270 -0.3599  0.2667  0.3885
   82CHL1  H19A 8515   3.840   5.160   7.323  0.3297  1.4994  0.6087
   82CHL1  H19B 8516   3.908   5.103   7.162 -0.1144  0.3832  0.3248
   82CHL1  H19C 8517   3.973   5.026   7.311  2.2143  0.8039 -0.9891
   82CHL1    C1 8518   3.993   5.355   7.210 -0.3781  0.2902 -0.3166
   82CHL1   H1A 8519   3.902   5.386   7.267 -0.1865 -1.7825  1.2359
   82CHL1   H1B 8520   4.082   5.419   7.227 -1.7013  1.8385  1.1563
   82CHL1    C2 8521   3.985   5.338   7.055  0.2018 -0.1793 -0.5947
   82CHL1   H2A 8522   3.965   5.437   7.009  2.5024  0.4606 -0.3383
   82CHL1   H2B 8523   3.913   5.260   7.021  0.0502  0.1457 -1.0283
   82CHL1   C20 8524   4.038   5.217   7.982 -0.0760  0.1815 -0.4611
   82CHL1   H20 8525   3.985   5.120   7.979 -1.1471  0.6560  1.2200
   82CHL1   C21 8526   3.937   5.330   7.976 -0.3126 -0.4437  0.8092
   82CHL1  H21A 8527   3.989   5.416   7.929 -1.7335  0.2908  0.5215
   82CHL1  H21B 8528   3.890   5.343   8.075  0.2818  0.2336  1.0057
   82CHL1  H21C 8529   3.851   5.290   7.918  1.2525 -0.9724 -1.2753
   82CHL1   C22 8530   4.123   5.208   8.115 -0.0651 -0.6134  0.3534
   82CHL1  H22A 8531   4.210   5.139   8.118  0.2694 -0.3098 -1.2082
   82CHL1  H22B 8532   4.175   5.306   8.128  1.0939 -0.9819 -1.1955
   82CHL1   C23 8533   4.030   5.180   8.238  0.0243 -0.1114 -0.0650
   82CHL1  H23A 8534   3.970   5.271   8.261  2.5764  1.1694  2.1232
   82CHL1  H23B 8535   3.964   5.097   8.206  0.8095 -0.5714 -0.5052
   82CHL1   C24 8536   4.097   5.142   8.367  0.6898 -0.3391  0.6203
   82CHL1  H24A 8537   4.018   5.130   8.444  1.8542 -0.7971  1.7906
   82CHL1  H24B 8538   4.161   5.052   8.352  1.2847  0.1851 -0.0834
   82CHL1   C25 8539   4.190   5.246   8.419 -0.5554 -0.4125 -0.7100
   82CHL1   H25 8540   4.278   5.273   8.358  0.6957  1.1296  1.6272
   82CHL1   C26 8541   4.113   5.377   8.473 -0.2141  0.1451  0.0323
   82CHL1  H26A 8542   4.053   5.351   8.563 -0.2218 -0.4407 -0.1353
   82CHL1  H26B 8543   4.180   5.461   8.501 -2.3235  1.4061  1.5233
   82CHL1  H26C 8544   4.050   5.413   8.389 -1.0746 -0.8938  0.1997
   82CHL1   C27 8545   4.274   5.194   8.535 -0.3095 -0.6844 -0.2517
   82CHL1  H27A 8546   4.313   5.093   8.509 -0.7259 -0.3693 -2.2203
   82CHL1  H27B 8547   4.349   5.270   8.567 -2.4106  1.5440 -0.3673
   82CHL1  H27C 8548   4.209   5.182   8.624  0.1258 -0.1702  0.1462
   83CHL1    C3 8549   6.393   5.708   6.939  0.3797 -0.1585 -0.0582
   83CHL1    H3 8550   6.298   5.763   6.952 -1.7891 -3.4985 -0.4884
   83CHL1    O3 8551   6.407   5.679   6.800  0.1857 -0.2249 -0.1546
   83CHL1   H3' 8552   6.501   5.674   6.780  0.4892 -1.2570  1.4294
   83CHL1    C4 8553   6.516   5.791   6.995  0.6218 -0.1165 -0.0665
   83CHL1   H4A 8554   6.615   5.752   6.963  0.7530 -1.1085  1.4304
   83CHL1   H4B 8555   6.502   5.895   6.958 -0.9338 -1.0546 -2.3394
   83CHL1    C5 8556   6.518   5.799   7.151 -0.9444 -0.1746  0.0911
   83CHL1    C6 8557   6.518   5.916   7.221  0.0157 -0.6325  0.6360
   83CHL1    H6 8558   6.523   6.011   7.166 -0.0525 -0.3816  1.0561
   83CHL1    C7 8559   6.508   5.927   7.365 -0.3331 -0.5699  0.4146
   83CHL1   H7A 8560   6.576   6.006   7.405  0.0699 -0.4511 -0.4892
   83CHL1   H7B 8561   6.402   5.949   7.390 -0.3838 -0.9660  0.5542
   83CHL1    C8 8562   6.547   5.797   7.437  0.4863  0.4644  0.1742
   83CHL1    H8 8563   6.656   5.777   7.434  0.5931  0.0617  3.4375
   83CHL1   C14 8564   6.509   5.786   7.588 -0.3593 -1.1826 -0.0324
   83CHL1   H14 8565   6.400   5.802   7.595 -0.0476  1.3013  0.3117
   83CHL1   C15 8566   6.550   5.906   7.670  0.3446  0.2052 -0.1028
   83CHL1  H15A 8567   6.657   5.934   7.655  0.7148 -1.3997 -0.6625
   83CHL1  H15B 8568   6.484   5.991   7.640 -4.2570 -3.2970 -0.9686
   83CHL1   C16 8569   6.540   5.858   7.813  0.5431  0.2963 -0.1759
   83CHL1  H16A 8570   6.640   5.872   7.859 -0.6641  2.8616  1.9811
   83CHL1  H16B 8571   6.475   5.914   7.884  0.5618 -0.9500  0.8528
   83CHL1   C17 8572   6.493   5.705   7.809 -0.3234 -0.1591 -1.0694
   83CHL1   H17 8573   6.382   5.709   7.805 -0.3937 -0.7540 -0.0754
   83CHL1   C13 8574   6.541   5.659   7.668 -0.4149  0.0071 -0.6594
   83CHL1   C18 8575   6.696   5.627   7.684  0.1539  0.4316  0.1127
   83CHL1  H18A 8576   6.739   5.636   7.582 -1.1222  0.1479 -0.4699
   83CHL1  H18B 8577   6.749   5.690   7.758  0.6715  1.2904 -0.9425
   83CHL1  H18C 8578   6.706   5.520   7.713  1.2578  0.5988  0.3854
   83CHL1   C12 8579   6.453   5.555   7.601 -0.6155 -0.3622 -0.0651
   83CHL1  H12A 8580   6.473   5.461   7.658 -0.3309 -1.2870 -1.6131
   83CHL1  H12B 8581   6.343   5.574   7.600 -0.7685 -1.1749 -0.8113
   83CHL1   C11 8582   6.498   5.539   7.451  0.2598  0.4481 -0.1771
   83CHL1  H11A 8583   6.607   5.516   7.449  0.3351  0.7010  0.8569
   83CHL1  H11B 8584   6.435   5.462   7.401 -3.4308  0.9182  3.2554
   83CHL1    C9 8585   6.469   5.677   7.375 -0.0142 -0.2134  0.2601
   83CHL1    H9 8586   6.364   5.710   7.391  0.5883  1.3310  1.2502
   83CHL1   C10 8587   6.501   5.663   7.226 -0.1858  0.3859  0.2917
   83CHL1   C19 8588   6.637   5.588   7.198  0.3923  0.3519  0.0389
   83CHL1  H19A 8589   6.722   5.633   7.253  0.3621  0.3124  0.1177
   83CHL1  H19B 8590   6.625   5.484   7.234  0.3546 -0.9632 -3.4080
   83CHL1  H19C 8591   6.652   5.582   7.088 -3.4092  0.0340 -0.6107
   83CHL1    C1 8592   6.383   5.587   7.165  0.3113 -0.4811  0.3006
   83CHL1   H1A 8593   6.343   5.490   7.202 -0.8108 -0.1933 -0.1285
   83CHL1   H1B 8594   6.297   5.655   7.186  0.5666  0.4549 -1.4574
   83CHL1    C2 8595   6.393   5.568   7.012  0.9532  0.3994  0.1410
   83CHL1   H2A 8596   6.310   5.502   6.977  2.2004 -1.2174  0.1348
   83CHL1   H2B 8597   6.482   5.514   6.976  0.0430 -0.1384 -1.3806
   83CHL1   C20 8598   6.524   5.617   7.932  0.1567 -0.3078 -0.1508
   83CHL1   H20 8599   6.634   5.620   7.952 -0.3559  0.6972  3.1896
   83CHL1   C21 8600   6.492   5.470   7.917  0.0728  0.1127 -0.4906
   83CHL1  H21A 8601   6.556   5.414   7.845 -0.1597  0.9219 -1.3391
   83CHL1  H21B 8602   6.384   5.452   7.899  0.2117 -1.8525  0.3038
   83CHL1  H21C 8603   6.508   5.413   8.011 -2.7509 -1.3199 -0.7845
   83CHL1   C22 8604   6.449   5.673   8.053  1.0026  0.0213 -0.5444
   83CHL1  H22A 8605   6.471   5.781   8.065  0.0323  0.1182  0.5644
   83CHL1  H22B 8606   6.339   5.669   8.038  1.2138  1.3309 -2.9105
   83CHL1   C23 8607   6.482   5.606   8.194  0.2668 -0.2359  1.0663
   83CHL1  H23A 8608   6.472   5.495   8.194  2.9140 -0.5525 -0.5389
   83CHL1  H23B 8609   6.589   5.633   8.207 -0.0747  1.6121  0.3882
   83CHL1   C24 8610   6.395   5.673   8.299 -0.1692 -0.3748 -0.2835
   83CHL1  H24A 8611   6.407   5.783   8.294  1.3061 -0.5696 -2.2520
   83CHL1  H24B 8612   6.289   5.643   8.288 -0.1754 -0.8539  0.9493
   83CHL1   C25 8613   6.458   5.645   8.438  0.8710 -0.0876  0.8280
   83CHL1   H25 8614   6.470   5.535   8.448  1.6255 -0.1549 -0.5147
   83CHL1   C26 8615   6.596   5.717   8.468  0.2257  0.2350  0.7415
   83CHL1  H26A 8616   6.606   5.727   8.578 -1.9196  0.5913  0.9637
   83CHL1  H26B 8617   6.680   5.657   8.428  0.4564  0.2639  1.1789
   83CHL1  H26C 8618   6.603   5.819   8.425  0.5542 -0.1198 -0.0545
   83CHL1   C27 8619   6.353   5.685   8.540 -0.3066 -0.9371 -0.0614
   83CHL1  H27A 8620   6.389   5.680   8.645  0.6253  3.7426  0.0849
   83CHL1  H27B 8621   6.319   5.791   8.531 -3.1936 -1.7879 -0.3181
   83CHL1  H27C 8622   6.264   5.621   8.525 -1.2438  0.6326 -1.6940
   84CHL1    C3 8623   1.865   2.876   6.953  0.9240 -0.6330  0.1219
   84CHL1    H3 8624   1.826   2.969   6.999  0.6831 -0.4855 -0.3758
   84CHL1    O3 8625   1.828   2.871   6.817  0.0593 -0.1890  0.1138
   84CHL1   H3' 8626   1.844   2.779   6.794 -1.2035 -0.8418  1.6986
   84CHL1    C4 8627   2.017   2.870   6.963  0.7099  0.4618 -0.3997
   84CHL1   H4A 8628   2.056   2.775   6.923  1.1353  0.5651 -0.2337
   84CHL1   H4B 8629   2.064   2.954   6.909  0.0295  0.7980 -0.4810
   84CHL1    C5 8630   2.058   2.872   7.107 -0.1600  0.4128  0.6685
   84CHL1    C6 8631   2.138   2.975   7.153  0.4448  0.3620 -0.1906
   84CHL1    H6 8632   2.174   3.057   7.090 -0.7032  0.7347 -0.3849
   84CHL1    C7 8633   2.181   2.986   7.293 -0.5069 -0.1823  0.7005
   84CHL1   H7A 8634   2.286   3.020   7.285 -0.8274  0.3349 -2.9242
   84CHL1   H7B 8635   2.125   3.064   7.349 -0.9844  0.4504 -0.6091
   84CHL1    C8 8636   2.168   2.850   7.368 -0.3989 -0.1558  0.8836
   84CHL1    H8 8637   2.243   2.777   7.331  1.0814  1.5414  0.4305
   84CHL1   C14 8638   2.186   2.864   7.514  0.0489  0.3445 -0.3290
   84CHL1   H14 8639   2.106   2.934   7.544 -1.3888 -1.1298 -0.6211
   84CHL1   C15 8640   2.320   2.933   7.561  0.3124  0.3432 -0.3224
   84CHL1  H15A 8641   2.417   2.909   7.513  0.7326 -1.7766  1.4230
   84CHL1  H15B 8642   2.311   3.043   7.569  1.2247  0.3743  0.3874
   84CHL1   C16 8643   2.341   2.880   7.708  0.6942  1.1696 -0.2826
   84CHL1  H16A 8644   2.432   2.817   7.720  0.1412  0.2736 -0.7271
   84CHL1  H16B 8645   2.359   2.967   7.775  1.2471  1.0089 -0.2204
   84CHL1   C17 8646   2.206   2.797   7.736 -0.1105 -0.3088 -0.7071
   84CHL1   H17 8647   2.130   2.876   7.752  0.0979  0.4486 -3.0818
   84CHL1   C13 8648   2.170   2.743   7.603  0.5478 -0.5408 -1.1339
   84CHL1   C18 8649   2.261   2.620   7.577  0.0936  0.0855  0.0275
   84CHL1  H18A 8650   2.369   2.637   7.592  0.3602 -2.3367  1.2592
   84CHL1  H18B 8651   2.232   2.536   7.643  1.5615  0.1189  0.7580
   84CHL1  H18C 8652   2.245   2.578   7.475  1.7967  0.1450 -0.2931
   84CHL1   C12 8653   2.020   2.703   7.585 -0.1466  0.5807  0.5644
   84CHL1  H12A 8654   1.997   2.609   7.640 -0.4214  0.6634  0.5883
   84CHL1  H12B 8655   1.951   2.786   7.610 -1.3073  0.6679 -2.4572
   84CHL1   C11 8656   1.996   2.669   7.439  0.7233  0.5160  0.1947
   84CHL1  H11A 8657   2.049   2.576   7.410 -0.4509 -0.2995  0.6078
   84CHL1  H11B 8658   1.888   2.653   7.417  1.2758 -0.0733 -2.3786
   84CHL1    C9 8659   2.031   2.789   7.341  0.0501 -0.2269 -0.0899
   84CHL1    H9 8660   1.953   2.863   7.369 -0.5114 -0.0080 -2.1119
   84CHL1   C10 8661   1.997   2.762   7.191 -0.9280  0.3000  0.3385
   84CHL1   C19 8662   2.054   2.610   7.160 -0.5389  0.3571 -0.0567
   84CHL1  H19A 8663   2.036   2.589   7.053 -0.2595  0.1028 -0.0537
   84CHL1  H19B 8664   2.164   2.614   7.179 -0.5260  1.0896 -0.2431
   84CHL1  H19C 8665   1.993   2.539   7.219  0.7056  0.8382  1.9122
   84CHL1    C1 8666   1.839   2.760   7.173 -0.1590  0.0601  0.1203
   84CHL1   H1A 8667   1.799   2.669   7.223 -0.6263  0.9200  1.3467
   84CHL1   H1B 8668   1.792   2.850   7.218  0.4824  1.7203 -2.3299
   84CHL1    C2 8669   1.804   2.755   7.017  0.3443  0.0755  0.6517
   84CHL1   H2A 8670   1.695   2.737   7.013  0.3426  0.3653 -1.6395
   84CHL1   H2B 8671   1.850   2.661   6.980  1.7236  2.1363 -3.4680
   84CHL1   C20 8672   2.213   2.703   7.865  0.4494  0.2744  0.1713
   84CHL1   H20 8673   2.297   2.634   7.841  3.1057  2.7245  1.7922
   84CHL1   C21 8674   2.086   2.617   7.891 -0.0245 -0.4053  0.3141
   84CHL1  H21A 8675   2.082   2.572   7.992 -0.7783 -0.3666  0.3069
   84CHL1  H21B 8676   2.079   2.528   7.825  1.7424  0.3356 -0.9689
   84CHL1  H21C 8677   1.992   2.677   7.887  0.8999  1.0533 -0.9361
   84CHL1   C22 8678   2.253   2.792   7.988  0.3027  0.0831  0.5707
   84CHL1  H22A 8679   2.337   2.863   7.970  1.3785 -1.3976 -0.5020
   84CHL1  H22B 8680   2.169   2.861   8.008  2.6148  2.8358  1.4899
   84CHL1   C23 8681   2.291   2.719   8.114  0.2019  0.3236 -0.3288
   84CHL1  H23A 8682   2.215   2.642   8.136  1.8153 -1.7472 -1.6395
   84CHL1  H23B 8683   2.385   2.660   8.115  0.7884  1.2150  1.2579
   84CHL1   C24 8684   2.315   2.818   8.234  0.2975 -0.2989 -0.3851
   84CHL1  H24A 8685   2.378   2.901   8.195 -0.6139 -0.0186 -1.3058
   84CHL1  H24B 8686   2.216   2.857   8.267  0.7782  1.2677 -0.7191
   84CHL1   C25 8687   2.381   2.752   8.356 -0.9647 -0.4449 -0.3358
   84CHL1   H25 8688   2.484   2.720   8.330 -1.1722 -2.2896  0.9343
   84CHL1   C26 8689   2.393   2.852   8.470  0.0898 -0.2428  0.0797
   84CHL1  H26A 8690   2.294   2.881   8.513  0.4910 -0.4189  1.1684
   84CHL1  H26B 8691   2.453   2.809   8.553  0.3051  3.8579  2.3210
   84CHL1  H26C 8692   2.446   2.947   8.445  1.3094  0.0647  3.3289
   84CHL1   C27 8693   2.296   2.629   8.400 -0.1951 -0.5803  0.4343
   84CHL1  H27A 8694   2.331   2.584   8.495 -0.8643 -1.5866  0.2156
   84CHL1  H27B 8695   2.192   2.666   8.415  0.9986  2.8139  1.2578
   84CHL1  H27C 8696   2.292   2.554   8.318 -4.2243 -0.4051  0.3035
   85CHL1    C3 8697   0.183   5.975   6.836 -0.7904  0.4619  0.3689
   85CHL1    H3 8698   0.253   5.889   6.849 -1.5117 -0.4010 -1.1231
   85CHL1    O3 8699   0.146   5.975   6.702  0.2705 -0.3151  0.0433
   85CHL1   H3' 8700   0.099   6.058   6.690 -0.3660 -0.8168 -1.1793
   85CHL1    C4 8701   0.059   5.941   6.921  0.6782  0.4236  0.3126
   85CHL1   H4A 8702  -0.006   6.031   6.923 -0.4178 -0.3553  0.4825
   85CHL1   H4B 8703   0.013   5.849   6.880 -0.9196  0.8277  1.1353
   85CHL1    C5 8704   0.095   5.934   7.068  0.5968 -0.0630  0.3463
   85CHL1    C6 8705   0.084   5.821   7.143 -0.0496 -0.0245  0.1231
   85CHL1    H6 8706   0.041   5.732   7.093  3.6225 -1.5787 -0.5663
   85CHL1    C7 8707   0.121   5.807   7.292 -0.3226 -0.4155  0.4544
   85CHL1   H7A 8708   0.047   5.747   7.349 -0.5252  0.3282  0.9938
   85CHL1   H7B 8709   0.220   5.760   7.309  1.2165  2.2351 -0.6496
   85CHL1    C8 8710   0.137   5.947   7.363  0.3429 -0.1437 -0.0875
   85CHL1    H8 8711   0.035   5.989   7.376 -0.3229 -2.0800  1.3545
   85CHL1   C14 8712   0.197   5.931   7.498  0.6129 -0.2470  0.6700
   85CHL1   H14 8713   0.300   5.888   7.490  0.9349  0.5306  0.5100
   85CHL1   C15 8714   0.133   5.827   7.593 -0.2407 -0.2665 -0.5867
   85CHL1  H15A 8715   0.026   5.859   7.594 -0.5004 -1.1214  0.5317
   85CHL1  H15B 8716   0.134   5.721   7.560 -0.2991  0.2713 -2.4474
   85CHL1   C16 8717   0.185   5.863   7.729 -0.0309 -0.0100 -0.0353
   85CHL1  H16A 8718   0.099   5.884   7.796  1.0781  0.1201  1.3978
   85CHL1  H16B 8719   0.245   5.785   7.780  0.7718  0.4736 -0.2261
   85CHL1   C17 8720   0.267   5.995   7.710 -0.0507  0.5025 -0.7128
   85CHL1   H17 8721   0.371   5.960   7.691  0.9471  2.3286  1.0329
   85CHL1   C13 8722   0.216   6.057   7.575 -0.0392 -0.7255 -0.0824
   85CHL1   C18 8723   0.083   6.136   7.602  0.6154 -0.3104 -0.3490
   85CHL1  H18A 8724   0.016   6.069   7.660  0.8656 -0.9860 -0.8270
   85CHL1  H18B 8725   0.112   6.231   7.652 -0.9297  1.1962 -2.1608
   85CHL1  H18C 8726   0.032   6.154   7.505  1.7316 -0.0982 -0.9128
   85CHL1   C12 8727   0.319   6.142   7.489 -0.3399 -0.5997  0.2972
   85CHL1  H12A 8728   0.325   6.241   7.540  0.1869 -1.2855  1.6088
   85CHL1  H12B 8729   0.415   6.089   7.505 -0.9480 -1.6779  0.4869
   85CHL1   C11 8730   0.265   6.169   7.343  0.2449  0.3174 -0.0684
   85CHL1  H11A 8731   0.176   6.235   7.351 -0.4725 -0.6140 -0.1767
   85CHL1  H11B 8732   0.336   6.233   7.287 -0.4138 -0.0455 -1.3513
   85CHL1    C9 8733   0.222   6.040   7.271  0.4792  0.1786 -0.2998
   85CHL1    H9 8734   0.316   5.983   7.257  1.1107  0.5261  2.1554
   85CHL1   C10 8735   0.154   6.065   7.132  0.4441 -0.4391  0.3108
   85CHL1   C19 8736   0.044   6.176   7.136  0.2536  0.2193 -0.6092
   85CHL1  H19A 8737   0.094   6.273   7.157  3.3248 -1.4373  0.4323
   85CHL1  H19B 8738  -0.003   6.191   7.036  2.1216  0.2766 -1.5418
   85CHL1  H19C 8739  -0.027   6.163   7.220  4.2217 -1.7938  2.8023
   85CHL1    C1 8740   0.268   6.111   7.030 -0.1873 -0.0032  0.2577
   85CHL1   H1A 8741   0.299   6.214   7.059  0.2963 -0.2220  0.5257
   85CHL1   H1B 8742   0.359   6.051   7.047 -0.1014  0.0949  0.1429
   85CHL1    C2 8743   0.241   6.114   6.878 -0.4680  0.9898 -0.2730
   85CHL1   H2A 8744   0.330   6.147   6.821  0.0778  0.7617  0.4344
   85CHL1   H2B 8745   0.160   6.188   6.860 -0.3079  1.3385  0.4331
   85CHL1   C20 8746   0.282   6.080   7.830 -0.2089 -0.0696 -0.0084
   85CHL1   H20 8747   0.181   6.113   7.862 -0.1346  0.5211 -0.3745
   85CHL1   C21 8748   0.382   6.196   7.808 -0.2620  0.8949 -0.8052
   85CHL1  H21A 8749   0.478   6.145   7.788 -0.3796  0.1787  0.3652
   85CHL1  H21B 8750   0.405   6.258   7.897  2.0705 -2.0889  0.8209
   85CHL1  H21C 8751   0.345   6.268   7.731 -0.7482  0.3236 -1.1150
   85CHL1   C22 8752   0.338   5.995   7.953 -0.5683  0.3185 -0.2414
   85CHL1  H22A 8753   0.285   5.898   7.951 -0.9472  0.5092 -2.5725
   85CHL1  H22B 8754   0.446   5.973   7.938 -0.8129 -0.3206 -1.1631
   85CHL1   C23 8755   0.337   6.068   8.088 -0.0467 -0.1627  0.9112
   85CHL1  H23A 8756   0.410   6.151   8.079  1.6609 -1.7748 -1.7121
   85CHL1  H23B 8757   0.234   6.101   8.112 -0.1051  0.3196  0.0518
   85CHL1   C24 8758   0.393   5.988   8.204 -0.4093  0.3639 -0.6634
   85CHL1  H24A 8759   0.367   5.880   8.201  0.8032  0.0569 -0.5016
   85CHL1  H24B 8760   0.504   5.993   8.196 -0.0567 -2.0373  1.4785
   85CHL1   C25 8761   0.354   6.042   8.341 -0.3742 -0.2213 -0.2194
   85CHL1   H25 8762   0.408   6.138   8.350  0.9172 -1.0626  1.3624
   85CHL1   C26 8763   0.211   6.070   8.367  0.3376 -0.0874 -0.2172
   85CHL1  H26A 8764   0.190   6.103   8.471 -1.7140  1.9483 -1.1763
   85CHL1  H26B 8765   0.171   6.150   8.301 -0.0275 -0.0533  0.0401
   85CHL1  H26C 8766   0.145   5.983   8.349  1.5657 -1.2036  0.5378
   85CHL1   C27 8767   0.402   5.951   8.450 -0.3823 -0.5350  0.6546
   85CHL1  H27A 8768   0.343   5.857   8.448  0.2803 -0.9619  0.7022
   85CHL1  H27B 8769   0.509   5.922   8.451  1.0961  4.0074 -1.4263
   85CHL1  H27C 8770   0.378   6.001   8.547  2.0801  1.6035  0.2691
   86CHL1    C3 8771   4.990   4.256   6.900 -0.1801 -0.5258  0.0078
   86CHL1    H3 8772   4.961   4.152   6.924 -0.3107 -0.1245  1.7020
   86CHL1    O3 8773   5.013   4.266   6.754  0.3816  0.1966  0.2717
   86CHL1   H3' 8774   5.011   4.360   6.732 -0.0995  0.5021  1.4998
   86CHL1    C4 8775   4.869   4.336   6.946  0.2696  0.3600 -0.3221
   86CHL1   H4A 8776   4.884   4.439   6.908  1.1696  0.1192 -0.6552
   86CHL1   H4B 8777   4.795   4.281   6.883 -1.0576 -1.9786  3.0009
   86CHL1    C5 8778   4.848   4.328   7.095 -0.5776  0.1128 -0.1231
   86CHL1    C6 8779   4.725   4.294   7.138 -0.2994  0.4751 -0.3108
   86CHL1    H6 8780   4.651   4.264   7.062  4.0497  0.6124 -5.0596
   86CHL1    C7 8781   4.694   4.290   7.289  0.0459  0.5691  0.2515
   86CHL1   H7A 8782   4.616   4.370   7.291  1.1480  1.8447 -2.7182
   86CHL1   H7B 8783   4.647   4.194   7.317 -3.1273  1.7453 -0.5232
   86CHL1    C8 8784   4.808   4.337   7.379  0.3736 -0.5286  0.1948
   86CHL1    H8 8785   4.805   4.448   7.382  0.9538 -0.5235  2.0027
   86CHL1   C14 8786   4.793   4.296   7.516 -0.6170  0.0867  0.9479
   86CHL1   H14 8787   4.808   4.186   7.515  2.4397  0.3784  2.7079
   86CHL1   C15 8788   4.663   4.330   7.595  0.1578 -0.4232  0.0528
   86CHL1  H15A 8789   4.649   4.440   7.596  1.1041 -0.2540 -1.3119
   86CHL1  H15B 8790   4.581   4.273   7.546 -1.4557  1.5931  0.2487
   86CHL1   C16 8791   4.693   4.285   7.738 -0.7038  0.6215 -0.2738
   86CHL1  H16A 8792   4.654   4.357   7.814 -0.8726  1.0361 -0.7433
   86CHL1  H16B 8793   4.640   4.193   7.768 -1.7030  1.5150  0.8230
   86CHL1   C17 8794   4.849   4.264   7.740  0.1188  0.1735  0.0447
   86CHL1   H17 8795   4.859   4.157   7.709  0.1701  0.6094 -1.4850
   86CHL1   C13 8796   4.900   4.337   7.616  0.3732 -0.0209 -0.7158
   86CHL1   C18 8797   4.909   4.485   7.647 -0.4465 -0.5756  0.0674
   86CHL1  H18A 8798   4.818   4.526   7.694 -0.2024  1.2073 -0.9278
   86CHL1  H18B 8799   4.998   4.516   7.706 -1.2900  0.5894  0.7559
   86CHL1  H18C 8800   4.917   4.540   7.551  1.3698  0.7780  0.9345
   86CHL1   C12 8801   5.033   4.283   7.572 -0.3516  0.1473 -0.7341
   86CHL1  H12A 8802   5.111   4.320   7.642  0.0060 -1.8522 -0.0257
   86CHL1  H12B 8803   5.037   4.172   7.578 -1.7577  0.1235  0.3548
   86CHL1   C11 8804   5.062   4.325   7.427  0.2454  0.2120 -0.1885
   86CHL1  H11A 8805   5.080   4.435   7.430 -0.0708  0.2919 -1.0101
   86CHL1  H11B 8806   5.160   4.280   7.400 -0.1764 -0.6403 -0.3056
   86CHL1    C9 8807   4.946   4.296   7.328  0.1165 -0.2961  0.8095
   86CHL1    H9 8808   4.952   4.185   7.322  1.5606 -0.1891 -0.3215
   86CHL1   C10 8809   4.977   4.347   7.182 -0.0761 -0.5480  0.5451
   86CHL1   C19 8810   5.013   4.500   7.187  0.4443 -0.3032 -0.3899
   86CHL1  H19A 8811   5.010   4.548   7.087  1.6403  0.0555 -0.2687
   86CHL1  H19B 8812   4.928   4.549   7.240 -1.4763 -1.1674 -2.4775
   86CHL1  H19C 8813   5.108   4.515   7.243  1.6780 -2.7494 -1.6788
   86CHL1    C1 8814   5.097   4.270   7.123 -0.3008 -0.2210  0.0077
   86CHL1   H1A 8815   5.194   4.310   7.159  1.0955  0.6866 -4.2689
   86CHL1   H1B 8816   5.093   4.160   7.142 -0.2079  0.1604  2.7634
   86CHL1    C2 8817   5.118   4.294   6.964  0.6114  0.3917  0.0164
   86CHL1   H2A 8818   5.203   4.236   6.923 -0.1066 -1.5173  1.0557
   86CHL1   H2B 8819   5.147   4.400   6.949 -0.3378  0.3789 -2.2735
   86CHL1   C20 8820   4.920   4.284   7.876  0.2545 -0.7830  0.3161
   86CHL1   H20 8821   5.028   4.305   7.863 -0.0149  1.4685  1.2286
   86CHL1   C21 8822   4.909   4.142   7.938  0.5813 -0.2600 -0.3098
   86CHL1  H21A 8823   4.948   4.139   8.042 -1.9697  1.4360  0.8143
   86CHL1  H21B 8824   4.967   4.077   7.870 -1.3780 -0.2003 -2.1575
   86CHL1  H21C 8825   4.805   4.102   7.940  0.9786 -1.3169  0.0904
   86CHL1   C22 8826   4.862   4.385   7.967  0.1360 -0.7111 -0.1614
   86CHL1  H22A 8827   4.862   4.489   7.928  2.0014 -0.7666 -0.4063
   86CHL1  H22B 8828   4.754   4.368   7.982 -0.4393  2.1197 -0.6812
   86CHL1   C23 8829   4.949   4.402   8.097  0.0807  0.1294 -0.2444
   86CHL1  H23A 8830   4.933   4.309   8.154 -1.0562  0.5871  0.2192
   86CHL1  H23B 8831   5.057   4.398   8.070 -0.2029 -1.4809 -1.2467
   86CHL1   C24 8832   4.909   4.515   8.193  0.2744  0.6243  0.5509
   86CHL1  H24A 8833   4.989   4.514   8.270  1.1194  1.0284 -0.3035
   86CHL1  H24B 8834   4.913   4.613   8.139 -1.6696  0.9694  0.9536
   86CHL1   C25 8835   4.762   4.511   8.254  0.1400  0.0411  0.0169
   86CHL1   H25 8836   4.692   4.483   8.171  0.6715  0.3318 -0.5380
   86CHL1   C26 8837   4.772   4.405   8.363  0.6268  0.1393 -0.2225
   86CHL1  H26A 8838   4.851   4.429   8.438  0.7159 -1.0242  0.0778
   86CHL1  H26B 8839   4.680   4.390   8.424  0.8496  0.5218  0.2142
   86CHL1  H26C 8840   4.803   4.308   8.317  1.9788  0.7331 -0.6208
   86CHL1   C27 8841   4.723   4.651   8.300 -0.3628  0.4709  0.1258
   86CHL1  H27A 8842   4.666   4.641   8.395 -1.5357  0.7954 -0.5246
   86CHL1  H27B 8843   4.822   4.696   8.321  1.9203 -3.6546 -0.9753
   86CHL1  H27C 8844   4.651   4.703   8.233 -0.9479  0.7615  0.9524
   87CHL1    C3 8845   3.806   2.747   6.926  0.0493  0.5164 -0.8098
   87CHL1    H3 8846   3.866   2.832   6.965  1.4655 -0.5689 -0.5575
   87CHL1    O3 8847   3.819   2.766   6.789 -0.3091 -0.3880  0.1010
   87CHL1   H3' 8848   3.863   2.688   6.754 -0.2344  0.1608 -1.0573
   87CHL1    C4 8849   3.874   2.619   6.977  0.2961 -0.4933 -0.1463
   87CHL1   H4A 8850   3.818   2.538   6.926  0.1704 -0.4287 -0.1105
   87CHL1   H4B 8851   3.980   2.623   6.945  0.9897  1.2752  2.1298
   87CHL1    C5 8852   3.857   2.605   7.128 -0.5490  0.0516 -0.2530
   87CHL1    C6 8853   3.969   2.621   7.201 -0.7150  0.5240  0.1228
   87CHL1    H6 8854   4.069   2.629   7.156 -1.2590 -0.6572 -1.3969
   87CHL1    C7 8855   3.967   2.620   7.353 -0.1049 -0.4616 -0.2804
   87CHL1   H7A 8856   4.041   2.552   7.400  0.4756  1.6852  2.1010
   87CHL1   H7B 8857   3.982   2.724   7.390 -0.7887 -0.0516 -1.1125
   87CHL1    C8 8858   3.829   2.583   7.406 -0.6943 -0.6421  0.2675
   87CHL1    H8 8859   3.821   2.473   7.398  1.2602 -0.6825 -2.5731
   87CHL1   C14 8860   3.816   2.619   7.551  0.6294  0.1642  1.2471
   87CHL1   H14 8861   3.836   2.728   7.559  1.9222  0.1374 -0.8870
   87CHL1   C15 8862   3.921   2.557   7.645  0.6756 -1.1943  0.3719
   87CHL1  H15A 8863   3.947   2.454   7.614 -1.9612 -1.5372 -1.0337
   87CHL1  H15B 8864   4.015   2.616   7.645  0.5037 -0.9144  0.7940
   87CHL1   C16 8865   3.856   2.554   7.787 -0.2342 -0.1127 -0.1281
   87CHL1  H16A 8866   3.842   2.448   7.817 -0.0604 -0.7375 -2.0890
   87CHL1  H16B 8867   3.923   2.599   7.863  1.0008 -2.4208  0.2595
   87CHL1   C17 8868   3.708   2.615   7.763 -0.9082 -0.2575  0.0867
   87CHL1   H17 8869   3.704   2.726   7.771 -0.8380  0.0050 -2.6298
   87CHL1   C13 8870   3.677   2.587   7.617 -0.3750 -0.5502  0.8322
   87CHL1   C18 8871   3.639   2.436   7.607 -0.1200  0.1001 -0.3260
   87CHL1  H18A 8872   3.532   2.432   7.635 -0.2810  1.2373 -0.6949
   87CHL1  H18B 8873   3.655   2.385   7.509 -0.1072  0.3400 -0.4517
   87CHL1  H18C 8874   3.694   2.380   7.686  2.4208  0.8049 -1.4680
   87CHL1   C12 8875   3.581   2.687   7.551  0.1551  0.6135  0.7861
   87CHL1  H12A 8876   3.485   2.690   7.605  0.4798  1.8173  1.3074
   87CHL1  H12B 8877   3.620   2.789   7.567  2.6975  0.2722 -2.1136
   87CHL1   C11 8878   3.571   2.662   7.397  0.3311  0.5506  0.5316
   87CHL1  H11A 8879   3.529   2.560   7.382 -0.6688  0.8705  1.0839
   87CHL1  H11B 8880   3.508   2.734   7.340  2.0410  0.5646 -1.4671
   87CHL1    C9 8881   3.718   2.660   7.328  0.1257 -0.5614  0.1324
   87CHL1    H9 8882   3.748   2.766   7.344 -3.0039  0.6236 -0.8956
   87CHL1   C10 8883   3.709   2.617   7.175  0.1247  0.2629 -0.3379
   87CHL1   C19 8884   3.636   2.483   7.161  0.2306  1.1825  0.0044
   87CHL1  H19A 8885   3.644   2.436   7.061  0.9358  2.2812 -0.4842
   87CHL1  H19B 8886   3.676   2.412   7.236  0.4850  0.7654 -0.5198
   87CHL1  H19C 8887   3.529   2.497   7.187  0.0006 -0.3815 -0.0222
   87CHL1    C1 8888   3.629   2.727   7.101 -0.7075  0.4235  0.2549
   87CHL1   H1A 8889   3.520   2.710   7.113 -0.6393 -1.0099 -0.9417
   87CHL1   H1B 8890   3.653   2.822   7.153 -0.7855 -0.2559  1.5807
   87CHL1    C2 8891   3.658   2.741   6.952  0.1877  0.2732 -0.2844
   87CHL1   H2A 8892   3.600   2.832   6.923  0.9096  0.8782  0.1338
   87CHL1   H2B 8893   3.624   2.649   6.900 -1.1774 -0.3562  1.5825
   87CHL1   C20 8894   3.613   2.559   7.869 -0.5928 -0.0208  0.5971
   87CHL1   H20 8895   3.625   2.449   7.866  1.4937  0.1608  0.6231
   87CHL1   C21 8896   3.462   2.583   7.852  0.7375  0.2930 -0.6076
   87CHL1  H21A 8897   3.422   2.551   7.754  0.5180 -1.8978  0.1637
   87CHL1  H21B 8898   3.453   2.693   7.839 -1.0444  0.1284 -0.8972
   87CHL1  H21C 8899   3.393   2.544   7.929 -2.0473 -2.4148 -4.1572
   87CHL1   C22 8900   3.661   2.601   8.013 -0.2003 -0.1260  0.1115
   87CHL1  H22A 8901   3.770   2.600   8.034 -0.6057 -0.8561  2.4096
   87CHL1  H22B 8902   3.628   2.707   8.015 -0.9971 -0.2654 -2.2065
   87CHL1   C23 8903   3.595   2.522   8.133 -0.4503  0.5239 -1.3189
   87CHL1  H23A 8904   3.488   2.504   8.109 -0.6979  1.7395 -1.2017
   87CHL1  H23B 8905   3.651   2.428   8.151 -0.7311  0.9116  2.3197
   87CHL1   C24 8906   3.597   2.604   8.264  0.2365 -0.2642  0.0937
   87CHL1  H24A 8907   3.699   2.642   8.287  1.0706 -1.2521 -1.7233
   87CHL1  H24B 8908   3.539   2.698   8.250 -2.0221 -1.2044  2.4268
   87CHL1   C25 8909   3.544   2.535   8.390  0.0008 -0.3706 -0.4005
   87CHL1   H25 8910   3.453   2.481   8.357 -1.0618  1.9849 -1.5109
   87CHL1   C26 8911   3.650   2.442   8.443  0.1213 -0.3188  0.1091
   87CHL1  H26A 8912   3.713   2.383   8.373 -0.0190  0.7645 -0.9786
   87CHL1  H26B 8913   3.721   2.516   8.485 -0.4598  2.1903 -2.9435
   87CHL1  H26C 8914   3.611   2.390   8.533 -3.0965 -3.5279 -2.7999
   87CHL1   C27 8915   3.498   2.632   8.491  0.0952 -0.3227 -0.1889
   87CHL1  H27A 8916   3.582   2.703   8.508 -1.4527  1.3115  0.9997
   87CHL1  H27B 8917   3.417   2.689   8.441  0.3961  0.3808  0.0988
   87CHL1  H27C 8918   3.462   2.589   8.587 -0.1937  0.7207  0.1939
   88CHL1    C3 8919   1.143   5.728   6.871  0.4995 -0.0610 -0.2814
   88CHL1    H3 8920   1.063   5.665   6.915 -0.9216  1.3975 -0.6562
   88CHL1    O3 8921   1.149   5.700   6.730  0.2391  0.0847 -0.1544
   88CHL1   H3' 8922   1.235   5.732   6.699  0.5010  1.0821  1.5332
   88CHL1    C4 8923   1.105   5.878   6.882 -0.2928  0.0318  0.2506
   88CHL1   H4A 8924   1.169   5.953   6.830 -1.2931  2.2235  1.9830
   88CHL1   H4B 8925   1.005   5.897   6.838 -0.4585  0.7436  0.9138
   88CHL1    C5 8926   1.117   5.919   7.032  0.0584  0.0646 -0.2172
   88CHL1    C6 8927   1.020   5.986   7.093  0.1020 -0.8331 -0.1985
   88CHL1    H6 8928   0.931   6.012   7.034  0.4745 -0.3961 -0.5730
   88CHL1    C7 8929   1.010   6.036   7.235  0.0320 -0.1368 -0.5488
   88CHL1   H7A 8930   0.972   6.140   7.235  2.7846  1.0139 -2.3972
   88CHL1   H7B 8931   0.941   5.970   7.292 -0.1375  1.7075  1.5245
   88CHL1    C8 8932   1.142   6.023   7.305 -0.8386  0.3095 -0.2460
   88CHL1    H8 8933   1.213   6.107   7.294  0.4530 -0.3954  1.9874
   88CHL1   C14 8934   1.124   6.005   7.460 -0.1512 -0.2445 -0.5220
   88CHL1   H14 8935   1.071   5.908   7.468  0.9434 -1.0042 -2.0560
   88CHL1   C15 8936   1.036   6.107   7.534 -0.5611  0.2197  0.3432
   88CHL1  H15A 8937   1.070   6.204   7.491 -3.0748  0.3280 -1.6714
   88CHL1  H15B 8938   0.927   6.090   7.523 -0.9797  2.3881  0.7038
   88CHL1   C16 8939   1.083   6.085   7.679 -0.0103  0.2949  0.4416
   88CHL1  H16A 8940   1.105   6.186   7.720 -0.4838  0.1918  0.9691
   88CHL1  H16B 8941   1.010   6.021   7.733 -0.5091 -0.4492 -1.0697
   88CHL1   C17 8942   1.207   5.989   7.681 -0.1667 -0.7197 -0.6601
   88CHL1   H17 8943   1.158   5.889   7.684 -1.3979 -0.1841 -1.8017
   88CHL1   C13 8944   1.259   6.004   7.536  0.2546  0.3725  0.3045
   88CHL1   C18 8945   1.347   6.129   7.527  0.6643  0.4275 -0.5138
   88CHL1  H18A 8946   1.382   6.148   7.424 -0.2229 -1.3828 -1.1885
   88CHL1  H18B 8947   1.283   6.215   7.560 -2.3650 -1.5414 -0.8501
   88CHL1  H18C 8948   1.447   6.110   7.570 -0.1220 -0.7650  0.8643
   88CHL1   C12 8949   1.337   5.882   7.490 -0.3730  0.3730  0.0865
   88CHL1  H12A 8950   1.440   5.889   7.531 -0.4823  0.9082  0.2697
   88CHL1  H12B 8951   1.296   5.786   7.528 -1.9882  2.0864  3.0783
   88CHL1   C11 8952   1.360   5.886   7.335 -0.2519 -0.4024 -0.0018
   88CHL1  H11A 8953   1.411   5.980   7.309  0.9948 -1.2909 -0.8766
   88CHL1  H11B 8954   1.421   5.799   7.303  0.9258  0.7257 -0.9178
   88CHL1    C9 8955   1.232   5.904   7.259  0.1427  0.7686 -0.6449
   88CHL1    H9 8956   1.171   5.815   7.283 -1.9374  1.2265 -3.6708
   88CHL1   C10 8957   1.249   5.880   7.106  0.2042  0.1255 -0.6624
   88CHL1   C19 8958   1.369   5.963   7.045  0.5167  0.3798  0.8799
   88CHL1  H19A 8959   1.462   5.913   7.080 -0.4184 -1.6842  0.5648
   88CHL1  H19B 8960   1.360   5.974   6.935  0.5913 -0.1385  0.8188
   88CHL1  H19C 8961   1.371   6.066   7.086 -0.9316  0.1709  1.5372
   88CHL1    C1 8962   1.284   5.728   7.084 -0.4804  0.2911 -0.3860
   88CHL1   H1A 8963   1.392   5.725   7.111 -0.8311 -0.0877  1.0248
   88CHL1   H1B 8964   1.234   5.649   7.144  1.6388 -0.1403  0.9409
   88CHL1    C2 8965   1.278   5.688   6.933 -0.1686 -0.5670  0.2019
   88CHL1   H2A 8966   1.288   5.579   6.914 -2.5116 -0.5474 -1.5697
   88CHL1   H2B 8967   1.364   5.733   6.880  0.4254  0.3881  1.8953
   88CHL1   C20 8968   1.306   6.006   7.800  0.5319 -0.4382 -0.0248
   88CHL1   H20 8969   1.375   6.092   7.786  1.5770 -0.9949  1.4661
   88CHL1   C21 8970   1.394   5.874   7.821 -0.0498 -0.0147  0.3115
   88CHL1  H21A 8971   1.334   5.780   7.818 -0.4003  0.1204  2.2049
   88CHL1  H21B 8972   1.460   5.870   7.910  2.0014  2.3381 -0.9929
   88CHL1  H21C 8973   1.469   5.859   7.740  1.1123 -1.8733  1.6435
   88CHL1   C22 8974   1.227   6.026   7.933  0.1695 -0.1813 -0.4746
   88CHL1  H22A 8975   1.151   6.107   7.940 -0.9462 -1.0079 -2.1294
   88CHL1  H22B 8976   1.176   5.932   7.964 -1.2816  0.9842  0.8030
   88CHL1   C23 8977   1.319   6.049   8.060  0.2417  0.0440  0.6273
   88CHL1  H23A 8978   1.364   5.948   8.073  2.7315  0.8504 -1.0402
   88CHL1  H23B 8979   1.399   6.123   8.037 -1.2740  1.0343 -1.8815
   88CHL1   C24 8980   1.249   6.099   8.184 -0.1796 -0.6112  0.6599
   88CHL1  H24A 8981   1.187   6.186   8.153  1.7620  0.4073 -0.5524
   88CHL1  H24B 8982   1.189   6.014   8.224 -1.5641  0.1554  0.2782
   88CHL1   C25 8983   1.334   6.145   8.302  0.0891  0.3933  0.5172
   88CHL1   H25 8984   1.399   6.055   8.296 -1.0831 -0.3711 -4.0534
   88CHL1   C26 8985   1.406   6.274   8.255 -0.2635  0.1707  2.0426
   88CHL1  H26A 8986   1.327   6.340   8.213  0.9990  0.5800  0.1850
   88CHL1  H26B 8987   1.468   6.320   8.335 -0.0190  1.1629  1.2948
   88CHL1  H26C 8988   1.475   6.261   8.169 -1.5424  0.2302  0.9686
   88CHL1   C27 8989   1.256   6.161   8.430  0.1192 -0.3759  0.4595
   88CHL1  H27A 8990   1.207   6.064   8.452  1.7998 -1.0511  1.4092
   88CHL1  H27B 8991   1.322   6.210   8.505  1.6143  0.2549 -1.2019
   88CHL1  H27C 8992   1.180   6.235   8.398 -1.2254 -1.9252 -0.0653
   89CHL1    C3 8993   4.473   3.852   6.984  0.5287 -0.0985  0.5639
   89CHL1    H3 8994   4.362   3.849   6.985  0.5232 -0.0843  0.2857
   89CHL1    O3 8995   4.517   3.862   6.849 -0.2644  0.1076  0.1932
   89CHL1   H3' 8996   4.494   3.778   6.808  0.3142 -0.5579  1.1773
   89CHL1    C4 8997   4.504   3.978   7.065  0.0576  0.7008  0.2196
   89CHL1   H4A 8998   4.613   4.000   7.065 -0.6086  4.9477  1.3848
   89CHL1   H4B 8999   4.443   4.062   7.022 -1.9384 -0.5977  0.3861
   89CHL1    C5 9000   4.456   3.958   7.208  0.0097  0.0054 -0.3187
   89CHL1    C6 9001   4.371   4.047   7.266 -0.1589 -0.3830 -0.4829
   89CHL1    H6 9002   4.322   4.128   7.209 -2.1154 -0.5450  0.8523
   89CHL1    C7 9003   4.340   4.048   7.414 -0.0870 -0.4145  0.2171
   89CHL1   H7A 9004   4.364   4.144   7.465  2.1889 -1.6431  1.6729
   89CHL1   H7B 9005   4.234   4.024   7.434  0.0013 -0.1236  1.0724
   89CHL1    C8 9006   4.436   3.949   7.489 -0.2881 -0.0603  0.0321
   89CHL1    H8 9007   4.539   3.989   7.504 -0.2886  0.8615 -2.0490
   89CHL1   C14 9008   4.374   3.927   7.631 -0.2220  0.0051  1.1609
   89CHL1   H14 9009   4.270   3.897   7.608 -0.5672  1.4642  0.6989
   89CHL1   C15 9010   4.353   4.047   7.724  0.2371  0.2401  0.2522
   89CHL1  H15A 9011   4.442   4.113   7.719 -2.2754  3.8424 -1.4663
   89CHL1  H15B 9012   4.270   4.110   7.684  0.9005  0.0731 -1.4902
   89CHL1   C16 9013   4.333   3.990   7.862 -0.0744 -0.3666  0.5348
   89CHL1  H16A 9014   4.424   4.019   7.919 -1.5348  0.1176  2.7651
   89CHL1  H16B 9015   4.247   4.022   7.924  0.3920  2.9551 -0.3485
   89CHL1   C17 9016   4.348   3.834   7.844 -0.5755  0.1793 -0.3467
   89CHL1   H17 9017   4.249   3.790   7.821 -1.2027  1.5560 -0.4314
   89CHL1   C13 9018   4.435   3.821   7.713  0.5054  0.6693 -0.1088
   89CHL1   C18 9019   4.582   3.859   7.749 -1.1334 -0.0615  0.7378
   89CHL1  H18A 9020   4.650   3.867   7.662 -0.6245  1.2532  1.2264
   89CHL1  H18B 9021   4.586   3.963   7.788  1.7214  1.0304 -2.0379
   89CHL1  H18C 9022   4.625   3.788   7.822 -2.9358 -1.7284  0.2604
   89CHL1   C12 9023   4.426   3.683   7.639  0.7273 -0.3252 -0.3213
   89CHL1  H12A 9024   4.482   3.606   7.696 -0.3986 -1.3055 -0.4996
   89CHL1  H12B 9025   4.325   3.645   7.617  0.2067  0.4329  0.6566
   89CHL1   C11 9026   4.504   3.690   7.503  0.2440  0.0428 -0.2250
   89CHL1  H11A 9027   4.608   3.701   7.540  0.1638  1.1544 -0.2892
   89CHL1  H11B 9028   4.488   3.593   7.452 -2.4291  0.3390 -0.0749
   89CHL1    C9 9029   4.455   3.812   7.419  0.4464 -0.7569  0.1355
   89CHL1    H9 9030   4.354   3.773   7.395  0.9054 -1.6012 -0.4840
   89CHL1   C10 9031   4.520   3.838   7.277 -0.1205  0.0042  0.1573
   89CHL1   C19 9032   4.671   3.858   7.298 -0.6486 -0.5386 -0.4797
   89CHL1  H19A 9033   4.717   3.776   7.356  0.5697  0.2961 -0.2191
   89CHL1  H19B 9034   4.725   3.890   7.206 -2.9345  1.5370 -1.2244
   89CHL1  H19C 9035   4.685   3.949   7.360 -1.2799 -1.0750  0.4765
   89CHL1    C1 9036   4.497   3.709   7.193 -0.1047  0.5078 -0.1818
   89CHL1   H1A 9037   4.556   3.629   7.244  1.1746 -0.3878 -2.8655
   89CHL1   H1B 9038   4.390   3.682   7.186 -0.1660  1.1217 -3.1433
   89CHL1    C2 9039   4.533   3.722   7.045 -0.3542  0.6568 -0.5418
   89CHL1   H2A 9040   4.506   3.630   6.990  0.7239  0.8847 -1.4818
   89CHL1   H2B 9041   4.643   3.723   7.034 -0.3224  1.5242 -0.3050
   89CHL1   C20 9042   4.414   3.766   7.967  0.5177  0.4970 -0.3582
   89CHL1   H20 9043   4.521   3.786   7.989  0.3133 -0.1738  1.4285
   89CHL1   C21 9044   4.404   3.609   7.953  0.2739 -0.4411  0.0817
   89CHL1  H21A 9045   4.309   3.577   7.904 -0.2823  0.0636  0.8068
   89CHL1  H21B 9046   4.407   3.557   8.051  1.0796  0.9592  0.8215
   89CHL1  H21C 9047   4.494   3.572   7.899 -0.8724 -1.0769 -1.4899
   89CHL1   C22 9048   4.343   3.802   8.094 -0.0327 -0.0496 -0.0108
   89CHL1  H22A 9049   4.394   3.748   8.176 -0.5599 -1.8674 -0.8311
   89CHL1  H22B 9050   4.352   3.907   8.130 -1.3445 -0.1719  0.7479
   89CHL1   C23 9051   4.196   3.755   8.109 -0.3774  0.4765  0.2290
   89CHL1  H23A 9052   4.138   3.797   8.024  1.4959  1.4101 -0.6312
   89CHL1  H23B 9053   4.189   3.644   8.105 -0.6037  0.5188 -2.3864
   89CHL1   C24 9054   4.132   3.776   8.244 -0.1491  0.0743 -0.7084
   89CHL1  H24A 9055   4.137   3.886   8.263 -0.2411  0.3030 -1.9229
   89CHL1  H24B 9056   4.028   3.739   8.246  0.8871 -3.0496 -0.0355
   89CHL1   C25 9057   4.193   3.713   8.365 -0.8879 -0.9238 -0.8701
   89CHL1   H25 9058   4.293   3.759   8.381 -0.0711 -2.8773  0.0010
   89CHL1   C26 9059   4.109   3.734   8.498 -0.3437 -0.2392 -0.1380
   89CHL1  H26A 9060   4.157   3.685   8.586 -2.5285 -1.6823  0.3412
   89CHL1  H26B 9061   4.104   3.843   8.519 -0.8561  0.3145 -2.8306
   89CHL1  H26C 9062   4.005   3.698   8.480 -0.9572  1.0872  0.6049
   89CHL1   C27 9063   4.222   3.561   8.347  0.7381  0.6244 -0.2152
   89CHL1  H27A 9064   4.290   3.550   8.260 -1.0943  0.5449 -1.6995
   89CHL1  H27B 9065   4.259   3.525   8.445  0.9257  0.0072 -0.5069
   89CHL1  H27C 9066   4.125   3.519   8.313  0.9852  1.8806 -2.6841
   90CHL1    C3 9067   3.084   5.366   6.820 -0.3536  0.0828  0.7786
   90CHL1    H3 9068   3.157   5.285   6.841  0.1163  0.0072 -1.0405
   90CHL1    O3 9069   3.067   5.387   6.685  0.2415 -0.1174  0.2772
   90CHL1   H3' 9070   3.031   5.307   6.646 -0.8482 -1.0273  2.9149
   90CHL1    C4 9071   2.951   5.334   6.889  0.3688  0.0869  0.3312
   90CHL1   H4A 9072   2.880   5.417   6.866  1.7146  1.7172  1.7641
   90CHL1   H4B 9073   2.919   5.239   6.842  1.3518  0.8378 -2.0269
   90CHL1    C5 9074   2.958   5.332   7.036 -0.9614 -0.5881 -0.2014
   90CHL1    C6 9075   2.917   5.220   7.097 -0.2083  0.1460 -0.3716
   90CHL1    H6 9076   2.862   5.140   7.045  0.1759  0.4780 -1.3263
   90CHL1    C7 9077   2.920   5.201   7.241 -0.7414  0.4037  0.2571
   90CHL1   H7A 9078   2.825   5.166   7.287 -1.3827 -0.9481 -1.9741
   90CHL1   H7B 9079   2.994   5.119   7.260 -0.4912  0.0884 -1.8793
   90CHL1    C8 9080   2.960   5.330   7.312 -0.1310  0.6218  0.4459
   90CHL1    H8 9081   2.873   5.399   7.318  1.5013  2.6557  2.3380
   90CHL1   C14 9082   3.012   5.278   7.448 -0.1779 -0.0577  0.7365
   90CHL1   H14 9083   3.095   5.207   7.426  0.6861  0.9966  0.5054
   90CHL1   C15 9084   2.921   5.196   7.538  0.7393  0.4956  0.2006
   90CHL1  H15A 9085   2.819   5.241   7.533  0.0384 -1.1564 -2.3115
   90CHL1  H15B 9086   2.912   5.094   7.495  1.3334 -0.2456  1.7608
   90CHL1   C16 9087   2.980   5.190   7.678  0.1155  0.1311  0.3077
   90CHL1  H16A 9088   2.907   5.207   7.760 -0.8991 -0.5472 -0.4439
   90CHL1  H16B 9089   3.036   5.096   7.699  0.9107  0.1675 -1.4670
   90CHL1   C17 9090   3.088   5.308   7.677  0.3927  0.3475 -0.5196
   90CHL1   H17 9091   3.182   5.253   7.658  0.2684  0.0822 -0.3835
   90CHL1   C13 9092   3.059   5.383   7.550 -0.3392  0.2423  0.2299
   90CHL1   C18 9093   2.947   5.478   7.586 -0.2342 -0.5648  0.2129
   90CHL1  H18A 9094   2.989   5.573   7.626 -1.0781  0.6073 -1.5562
   90CHL1  H18B 9095   2.891   5.508   7.495 -1.4654 -1.0398  0.7893
   90CHL1  H18C 9096   2.881   5.444   7.668  1.1025  3.3660  3.2710
   90CHL1   C12 9097   3.181   5.457   7.475 -0.0316 -0.1407  0.2543
   90CHL1  H12A 9098   3.212   5.553   7.521  2.2841 -0.7046  0.0086
   90CHL1  H12B 9099   3.267   5.388   7.472  1.4411  1.6698 -1.8028
   90CHL1   C11 9100   3.135   5.506   7.331 -0.3218 -0.6888  0.2842
   90CHL1  H11A 9101   3.072   5.597   7.343  0.3002 -0.3307  0.9166
   90CHL1  H11B 9102   3.220   5.550   7.273  1.9030 -0.6566  3.3182
   90CHL1    C9 9103   3.069   5.401   7.240  0.0982  0.0667  0.8872
   90CHL1    H9 9104   3.145   5.320   7.236 -0.5849 -0.5838  0.9532
   90CHL1   C10 9105   3.030   5.449   7.096 -0.0188  0.3715 -0.2021
   90CHL1   C19 9106   2.930   5.569   7.103  0.6512 -0.1899  0.2445
   90CHL1  H19A 9107   2.837   5.542   7.157  0.9937 -0.6426  0.6226
   90CHL1  H19B 9108   2.978   5.649   7.163 -2.8632  2.4532 -0.2038
   90CHL1  H19C 9109   2.894   5.609   7.006 -0.8300 -0.0676  0.8307
   90CHL1    C1 9110   3.157   5.496   7.027  0.4209  0.9076  0.1101
   90CHL1   H1A 9111   3.187   5.599   7.056  1.7703  0.2650  1.1035
   90CHL1   H1B 9112   3.234   5.420   7.051 -1.0289 -0.3219  1.0111
   90CHL1    C2 9113   3.144   5.496   6.873 -0.4011 -0.6272 -0.8018
   90CHL1   H2A 9114   3.244   5.510   6.828 -0.4499 -1.2818 -1.1338
   90CHL1   H2B 9115   3.070   5.573   6.839 -0.6520 -0.2870  0.4802
   90CHL1   C20 9116   3.096   5.369   7.819 -0.2437  0.7243  0.5363
   90CHL1   H20 9117   3.002   5.425   7.840 -0.0571  1.2095  0.1093
   90CHL1   C21 9118   3.223   5.457   7.816 -0.4410 -0.4363  0.1598
   90CHL1  H21A 9119   3.203   5.538   7.743  1.6603  0.6286  0.6869
   90CHL1  H21B 9120   3.316   5.407   7.783  0.7091  1.2781  0.6844
   90CHL1  H21C 9121   3.241   5.508   7.913  1.2216  1.7462 -1.2152
   90CHL1   C22 9122   3.114   5.265   7.935  0.4777  0.1490 -0.2915
   90CHL1  H22A 9123   3.052   5.176   7.911  0.6111 -0.0323  0.0344
   90CHL1  H22B 9124   3.219   5.232   7.941  0.7233  0.7562 -1.0038
   90CHL1   C23 9125   3.073   5.311   8.073 -0.1874 -0.7514  0.0823
   90CHL1  H23A 9126   3.154   5.376   8.113  0.2754 -2.0187  1.2757
   90CHL1  H23B 9127   2.992   5.387   8.064 -1.2771 -1.3206  3.5148
   90CHL1   C24 9128   3.052   5.193   8.172 -0.0643  0.6693 -1.2308
   90CHL1  H24A 9129   2.969   5.135   8.127  0.5382 -1.2018 -0.0306
   90CHL1  H24B 9130   3.140   5.125   8.172 -0.1915  0.5027 -1.7890
   90CHL1   C25 9131   3.022   5.234   8.316 -0.3625  0.7650  0.2608
   90CHL1   H25 9132   3.103   5.289   8.367  0.3151 -0.7009  0.8180
   90CHL1   C26 9133   2.885   5.314   8.319  0.4635  0.3360 -0.1234
   90CHL1  H26A 9134   2.806   5.258   8.263 -0.9920  1.5178  0.6611
   90CHL1  H26B 9135   2.856   5.309   8.426 -0.1889 -0.2854 -0.3169
   90CHL1  H26C 9136   2.891   5.417   8.280  0.1316 -0.1453 -1.5274
   90CHL1   C27 9137   3.003   5.099   8.395 -0.4228  0.5489 -0.1587
   90CHL1  H27A 9138   2.994   5.112   8.505 -2.2638  1.7519 -0.4024
   90CHL1  H27B 9139   2.907   5.054   8.360  1.2152 -1.4024 -2.4705
   90CHL1  H27C 9140   3.088   5.031   8.373 -0.8907 -0.1856  0.2780
   91CHL1    C3 9141   6.323   0.006   7.198  0.0815  0.0375  0.1982
   91CHL1    H3 9142   6.387   0.092   7.227  3.4028 -2.0748 -0.3699
   91CHL1    O3 9143   6.361  -0.043   7.067  0.1818 -0.3753  0.0773
   91CHL1   H3' 9144   6.299  -0.115   7.055 -0.4351  0.2334 -0.4562
   91CHL1    C4 9145   6.341  -0.105   7.296 -0.4794 -0.1801  0.5737
   91CHL1   H4A 9146   6.272  -0.190   7.287 -0.2890 -0.3461  0.6688
   91CHL1   H4B 9147   6.445  -0.144   7.300 -0.4126  0.0587  1.3784
   91CHL1    C5 9148   6.313  -0.048   7.435 -0.0307  0.1446  0.1030
   91CHL1    C6 9149   6.401  -0.045   7.537 -0.4490 -0.3251  0.0853
   91CHL1    H6 9150   6.499  -0.096   7.533  0.3192  0.8919  1.8162
   91CHL1    C7 9151   6.364  -0.018   7.679  0.0785 -0.2808  0.3802
   91CHL1   H7A 9152   6.400  -0.093   7.753  1.8093  0.7518  0.6501
   91CHL1   H7B 9153   6.416   0.078   7.702  1.4409 -0.7043 -0.7672
   91CHL1    C8 9154   6.210   0.019   7.706  0.0126 -0.6491 -0.3556
   91CHL1    H8 9155   6.149  -0.073   7.716  0.5061 -0.9333  0.0357
   91CHL1   C14 9156   6.184   0.096   7.829 -0.1132 -0.4275 -0.8770
   91CHL1   H14 9157   6.223   0.195   7.798  1.0518 -0.9024 -0.9975
   91CHL1   C15 9158   6.265   0.070   7.958 -0.0339 -0.0705 -0.6143
   91CHL1  H15A 9159   6.261  -0.035   7.996  0.2590  0.1907  0.1657
   91CHL1  H15B 9160   6.371   0.101   7.949  0.0418 -0.2840 -0.4815
   91CHL1   C16 9161   6.190   0.152   8.059 -0.4745 -0.2710  0.5653
   91CHL1  H16A 9162   6.148   0.075   8.128  0.3101 -2.6812 -1.4965
   91CHL1  H16B 9163   6.247   0.229   8.115 -0.3344 -0.1203  0.2186
   91CHL1   C17 9164   6.059   0.217   7.989  0.1454 -0.3623  0.2575
   91CHL1   H17 9165   6.095   0.317   7.957 -1.4241  0.6532  1.5057
   91CHL1   C13 9166   6.040   0.131   7.859 -0.1795  0.3929  0.3945
   91CHL1   C18 9167   5.955   0.004   7.891  0.1705  0.2551 -0.5626
   91CHL1  H18A 9168   5.848   0.029   7.898 -0.1624 -1.3805  1.3067
   91CHL1  H18B 9169   5.974  -0.075   7.815  0.7182  1.7304 -2.0127
   91CHL1  H18C 9170   5.977  -0.041   7.991 -1.6472  0.5907  0.0275
   91CHL1   C12 9171   5.978   0.209   7.739  0.6866  0.0186  0.5484
   91CHL1  H12A 9172   5.868   0.217   7.737  0.6312  0.4179 -3.7550
   91CHL1  H12B 9173   6.015   0.314   7.735  0.5527  0.0403 -0.3357
   91CHL1   C11 9174   6.009   0.146   7.609 -0.1506  0.5380 -0.5215
   91CHL1  H11A 9175   5.942   0.059   7.593  0.8995  0.0729 -2.7578
   91CHL1  H11B 9176   5.981   0.225   7.536  0.3731  1.4396  0.2325
   91CHL1    C9 9177   6.155   0.091   7.586  0.6551 -0.2303  0.4085
   91CHL1    H9 9178   6.220   0.181   7.586  0.3564  0.0628  2.7616
   91CHL1   C10 9179   6.174   0.022   7.450  0.0158 -0.0531  0.5036
   91CHL1   C19 9180   6.068  -0.091   7.441  0.0129 -0.2664  0.2444
   91CHL1  H19A 9181   5.967  -0.047   7.429  0.0145 -0.9212 -2.7808
   91CHL1  H19B 9182   6.090  -0.159   7.356 -0.4741  1.2481 -1.1323
   91CHL1  H19C 9183   6.079  -0.155   7.532  0.8829  1.5614  1.4929
   91CHL1    C1 9184   6.142   0.124   7.330  0.4587 -0.0848 -0.0343
   91CHL1   H1A 9185   6.036   0.157   7.330  0.1318 -1.1003 -0.0326
   91CHL1   H1B 9186   6.201   0.214   7.359  0.7620  0.2862 -1.6645
   91CHL1    C2 9187   6.175   0.063   7.194  0.0246 -0.2134 -0.0098
   91CHL1   H2A 9188   6.168   0.134   7.109 -0.2286 -0.0543  0.1446
   91CHL1   H2B 9189   6.112  -0.024   7.165  2.4265 -2.0964  0.1369
   91CHL1   C20 9190   5.943   0.244   8.089 -0.2417  0.2091 -0.2117
   91CHL1   H20 9191   5.902   0.150   8.130  0.8617  0.2773  1.1260
   91CHL1   C21 9192   5.827   0.331   8.032  0.6360 -0.1705 -0.7946
   91CHL1  H21A 9193   5.756   0.357   8.113 -0.0806  1.3795 -1.8548
   91CHL1  H21B 9194   5.775   0.272   7.954 -1.1782  1.5981 -1.0022
   91CHL1  H21C 9195   5.871   0.426   7.995 -0.7983  1.9724  2.5099
   91CHL1   C22 9196   6.000   0.323   8.209 -0.0021  0.0883 -1.0410
   91CHL1  H22A 9197   5.913   0.355   8.271  0.3595  1.1893 -1.0838
   91CHL1  H22B 9198   6.064   0.253   8.267 -0.2971  0.1231 -0.6696
   91CHL1   C23 9199   6.080   0.457   8.178  0.0198  0.1673 -0.1716
   91CHL1  H23A 9200   6.152   0.447   8.095  0.9224 -0.3831  0.6599
   91CHL1  H23B 9201   6.010   0.539   8.150  0.8878  2.1792  3.0370
   91CHL1   C24 9202   6.158   0.497   8.302  0.1887  0.3512 -0.4488
   91CHL1  H24A 9203   6.219   0.411   8.338 -0.1380 -0.2803 -1.3768
   91CHL1  H24B 9204   6.228   0.579   8.272  0.3565 -0.0569 -1.1905
   91CHL1   C25 9205   6.072   0.546   8.420  0.2233 -0.8120 -0.5032
   91CHL1   H25 9206   6.017   0.456   8.456  1.5897 -1.9124 -1.0899
   91CHL1   C26 9207   6.177   0.581   8.541  0.7754  0.4608 -0.0488
   91CHL1  H26A 9208   6.261   0.510   8.534  0.2407 -0.1148 -0.7490
   91CHL1  H26B 9209   6.209   0.687   8.535  2.3038  0.0846  0.9288
   91CHL1  H26C 9210   6.131   0.565   8.641 -2.9255 -0.3579 -1.6999
   91CHL1   C27 9211   5.994   0.674   8.379 -0.1429 -0.4635 -0.1010
   91CHL1  H27A 9212   5.926   0.706   8.461  0.2671  0.1350  0.0080
   91CHL1  H27B 9213   6.064   0.755   8.347  0.0038 -0.0836  1.1340
   91CHL1  H27C 9214   5.929   0.640   8.295 -1.3909 -1.8407  1.3508
   92CHL1    C3 9215   1.888   1.011   6.728  0.1069  0.2757 -0.0913
   92CHL1    H3 9216   1.850   0.908   6.711  0.3011  0.0553  0.7678
   92CHL1    O3 9217   1.930   1.051   6.601 -0.0105  0.1058 -0.0661
   92CHL1   H3' 9218   1.985   1.128   6.615 -0.1162  0.2530 -0.4401
   92CHL1    C4 9219   1.773   1.096   6.767 -0.0840 -0.7871  0.1738
   92CHL1   H4A 9220   1.809   1.201   6.767 -0.6700 -0.5818  0.6875
   92CHL1   H4B 9221   1.687   1.090   6.696 -0.9047 -2.4233  1.2337
   92CHL1    C5 9222   1.724   1.053   6.904 -0.2495  0.4728 -0.2269
   92CHL1    C6 9223   1.602   0.998   6.922  0.1762 -0.2725  0.5937
   92CHL1    H6 9224   1.538   0.987   6.833  0.2824  0.5908  0.4031
   92CHL1    C7 9225   1.543   0.965   7.054 -0.7024 -0.7681 -0.1756
   92CHL1   H7A 9226   1.438   1.001   7.055 -0.3842  0.2820 -1.7982
   92CHL1   H7B 9227   1.541   0.854   7.049 -0.6733 -0.7669 -0.2084
   92CHL1    C8 9228   1.632   1.008   7.175 -0.2515  0.5230 -0.1298
   92CHL1    H8 9229   1.610   1.113   7.201  0.2839  0.3757  0.9858
   92CHL1   C14 9230   1.600   0.916   7.288  0.6324  0.5989  0.0167
   92CHL1   H14 9231   1.640   0.816   7.259 -1.5607 -0.0362 -1.0078
   92CHL1   C15 9232   1.454   0.897   7.327  0.5518  0.3363 -0.0496
   92CHL1  H15A 9233   1.397   0.992   7.316  2.2609  1.1258 -3.1700
   92CHL1  H15B 9234   1.397   0.817   7.274 -2.5437  0.4324  2.7525
   92CHL1   C16 9235   1.461   0.840   7.468 -0.0629  0.4039 -0.1845
   92CHL1  H16A 9236   1.394   0.899   7.535 -1.6034 -0.7556 -0.6506
   92CHL1  H16B 9237   1.421   0.738   7.484 -0.6928  0.5742 -0.6458
   92CHL1   C17 9238   1.617   0.840   7.504 -0.5203  0.5003 -0.6159
   92CHL1   H17 9239   1.645   0.743   7.458  1.4292  0.3837  0.6927
   92CHL1   C13 9240   1.674   0.950   7.417  0.0804  0.1509  0.5734
   92CHL1   C18 9241   1.624   1.084   7.477  0.5985 -0.3854 -0.6764
   92CHL1  H18A 9242   1.685   1.094   7.570  0.0329 -1.9511 -0.0992
   92CHL1  H18B 9243   1.649   1.171   7.413  1.8717  1.1636  1.7622
   92CHL1  H18C 9244   1.517   1.090   7.505  0.8303  0.5105  0.0574
   92CHL1   C12 9245   1.825   0.949   7.392  0.2513  0.8567  0.0218
   92CHL1  H12A 9246   1.887   0.972   7.482  1.6455 -0.1197 -0.6625
   92CHL1  H12B 9247   1.859   0.851   7.354 -0.9005  0.4984 -0.1341
   92CHL1   C11 9248   1.867   1.038   7.272 -0.4040 -0.0231 -0.2447
   92CHL1  H11A 9249   1.847   1.143   7.302  2.5604  0.2594  1.0491
   92CHL1  H11B 9250   1.973   1.011   7.257  0.4895  1.4730  2.6433
   92CHL1    C9 9251   1.785   0.996   7.148  0.8713 -0.7055  0.2752
   92CHL1    H9 9252   1.798   0.886   7.137 -0.0060 -1.0532  2.1553
   92CHL1   C10 9253   1.832   1.060   7.013  0.2745  0.7448 -0.3041
   92CHL1   C19 9254   1.878   1.207   7.037 -0.0850 -0.6256  0.3350
   92CHL1  H19A 9255   1.930   1.258   6.952  1.2267 -1.3296  0.6830
   92CHL1  H19B 9256   1.793   1.272   7.067 -0.7657 -1.2444 -0.2263
   92CHL1  H19C 9257   1.959   1.208   7.114  0.0458 -2.1432  0.2401
   92CHL1    C1 9258   1.959   0.983   6.964  0.5141  0.4261 -0.5022
   92CHL1   H1A 9259   2.039   0.998   7.040 -1.0086  0.3738  1.1973
   92CHL1   H1B 9260   1.923   0.878   6.969  2.5491 -0.3523 -1.3040
   92CHL1    C2 9261   2.003   1.012   6.822 -0.1578 -0.6625  0.1125
   92CHL1   H2A 9262   2.086   0.947   6.788  0.1796 -0.0974 -0.1499
   92CHL1   H2B 9263   2.045   1.114   6.815  1.0952 -1.2762 -2.1460
   92CHL1   C20 9264   1.651   0.843   7.657  0.4242  0.2024 -0.2690
   92CHL1   H20 9265   1.745   0.899   7.675  0.4248 -0.1156  0.8175
   92CHL1   C21 9266   1.692   0.695   7.695 -0.5558  0.0602  0.1587
   92CHL1  H21A 9267   1.759   0.654   7.617  1.1201  2.8374  0.0167
   92CHL1  H21B 9268   1.596   0.639   7.709 -2.2364  2.5363 -0.8360
   92CHL1  H21C 9269   1.754   0.704   7.787 -0.4177  3.4999 -0.1753
   92CHL1   C22 9270   1.543   0.910   7.758 -0.1597  0.2418 -0.2224
   92CHL1  H22A 9271   1.493   0.999   7.714  0.2395  0.1850 -0.8061
   92CHL1  H22B 9272   1.459   0.837   7.767 -0.3059  0.3741 -0.4885
   92CHL1   C23 9273   1.603   0.939   7.901  1.0123  0.2856 -0.1760
   92CHL1  H23A 9274   1.637   0.849   7.957  0.7607  0.2202 -0.1261
   92CHL1  H23B 9275   1.688   1.003   7.870  0.3409  1.5003  0.4492
   92CHL1   C24 9276   1.490   1.012   7.985 -0.1265  0.0270  0.2685
   92CHL1  H24A 9277   1.485   1.115   7.944  0.5158  0.5078  1.3542
   92CHL1  H24B 9278   1.402   0.951   7.954 -0.8122  1.0999  0.0569
   92CHL1   C25 9279   1.514   1.024   8.141 -0.3998 -0.8180 -0.0576
   92CHL1   H25 9280   1.431   1.085   8.183 -1.3229 -0.4224 -2.3051
   92CHL1   C26 9281   1.498   0.882   8.195 -0.5361 -0.2797  0.0995
   92CHL1  H26A 9282   1.476   0.886   8.304  1.0727  0.2425  0.4420
   92CHL1  H26B 9283   1.418   0.825   8.143 -1.2844 -0.3008  1.2194
   92CHL1  H26C 9284   1.592   0.823   8.188 -2.2357 -3.3642  1.3071
   92CHL1   C27 9285   1.658   1.078   8.169  0.2299 -0.0694 -0.0217
   92CHL1  H27A 9286   1.680   1.173   8.116 -0.0689  0.5235  0.8995
   92CHL1  H27B 9287   1.668   1.100   8.277  1.7110 -0.6655 -0.0092
   92CHL1  H27C 9288   1.741   1.016   8.128  0.9333  1.0352 -0.3120
   93CHL1    C3 9289   0.229   5.506   6.878 -0.2144  0.1835  0.1267
   93CHL1    H3 9290   0.215   5.601   6.933 -0.2956  1.3812 -1.8921
   93CHL1    O3 9291   0.246   5.531   6.741  0.5639  0.7000  0.2198
   93CHL1   H3' 9292   0.260   5.446   6.699 -2.3810 -0.0722  0.5640
   93CHL1    C4 9293   0.361   5.435   6.924  0.1432 -0.1174  0.4679
   93CHL1   H4A 9294   0.370   5.340   6.867 -1.6546 -0.3532  0.4991
   93CHL1   H4B 9295   0.445   5.502   6.897 -0.5695  0.6396  0.0418
   93CHL1    C5 9296   0.344   5.401   7.072 -0.4512 -0.0090  0.3272
   93CHL1    C6 9297   0.444   5.428   7.153  0.5439  0.4405  0.6481
   93CHL1    H6 9298   0.542   5.470   7.125  0.3126  1.4909  1.3479
   93CHL1    C7 9299   0.443   5.414   7.303  0.4266  0.6125 -0.8912
   93CHL1   H7A 9300   0.542   5.380   7.341 -0.6454 -0.7126  0.8734
   93CHL1   H7B 9301   0.421   5.518   7.336 -2.5814  0.0855 -0.9894
   93CHL1    C8 9302   0.327   5.330   7.350 -0.0214 -0.1455  1.0703
   93CHL1    H8 9303   0.347   5.224   7.323 -1.4152 -0.3804  0.8505
   93CHL1   C14 9304   0.299   5.340   7.493  1.0071  0.2488  0.5241
   93CHL1   H14 9305   0.277   5.448   7.503 -0.4373 -0.0029  0.2558
   93CHL1   C15 9306   0.413   5.313   7.598 -1.0204  0.1777  0.4294
   93CHL1  H15A 9307   0.466   5.217   7.583 -0.8361  0.3999 -0.4438
   93CHL1  H15B 9308   0.477   5.404   7.594 -1.8811  0.7608 -1.7485
   93CHL1   C16 9309   0.347   5.306   7.737  0.4663  0.5124  0.0315
   93CHL1  H16A 9310   0.375   5.207   7.780 -0.7408  0.2128  0.1600
   93CHL1  H16B 9311   0.387   5.388   7.800 -2.7230  2.7418 -0.5990
   93CHL1   C17 9312   0.193   5.297   7.708  0.2892 -0.3070  0.3943
   93CHL1   H17 9313   0.143   5.395   7.699  0.6776 -0.2715 -2.3678
   93CHL1   C13 9314   0.184   5.257   7.549 -0.6787  0.8189 -0.6461
   93CHL1   C18 9315   0.210   5.099   7.553 -0.1825  0.5736  0.6204
   93CHL1  H18A 9316   0.123   5.040   7.589  2.0194 -3.2220  0.1812
   93CHL1  H18B 9317   0.227   5.073   7.446  1.2781 -1.2857  1.2717
   93CHL1  H18C 9318   0.304   5.076   7.607 -1.5750  1.0999  3.4494
   93CHL1   C12 9319   0.056   5.282   7.478  0.1836  0.0042  0.3545
   93CHL1  H12A 9320  -0.023   5.206   7.498 -0.2430  0.7371  1.5756
   93CHL1  H12B 9321   0.009   5.379   7.504  0.5886  0.4439 -0.4833
   93CHL1   C11 9322   0.074   5.277   7.329 -0.7418 -0.6364  0.2398
   93CHL1  H11A 9323   0.083   5.169   7.304 -1.8139 -0.3956 -1.3542
   93CHL1  H11B 9324  -0.024   5.316   7.293  0.4570  2.2583 -0.1755
   93CHL1    C9 9325   0.195   5.354   7.269  0.1801  0.8433 -0.5893
   93CHL1    H9 9326   0.160   5.459   7.283 -2.4192  0.2612 -2.0098
   93CHL1   C10 9327   0.211   5.343   7.118 -0.6434 -0.4049 -0.1237
   93CHL1   C19 9328   0.217   5.194   7.074 -0.1635 -0.0508 -0.1482
   93CHL1  H19A 9329   0.122   5.138   7.088  0.6505 -1.5851 -0.5513
   93CHL1  H19B 9330   0.243   5.184   6.967 -2.4446 -0.2563 -0.7349
   93CHL1  H19C 9331   0.290   5.144   7.141  0.3803  2.0499  0.9469
   93CHL1    C1 9332   0.085   5.414   7.051  0.1928  0.3139  0.0503
   93CHL1   H1A 9333  -0.009   5.362   7.079  1.1092 -2.8906 -2.2608
   93CHL1   H1B 9334   0.077   5.517   7.092  0.8534  0.6576 -0.6592
   93CHL1    C2 9335   0.099   5.437   6.899 -0.3987  0.7054  0.3072
   93CHL1   H2A 9336   0.014   5.498   6.864 -0.9277 -0.3374 -0.2671
   93CHL1   H2B 9337   0.102   5.342   6.841 -2.4028 -0.7361  2.3824
   93CHL1   C20 9338   0.113   5.224   7.814 -0.7511 -0.5206  0.1415
   93CHL1   H20 9339   0.138   5.116   7.810  1.8710  0.0314 -0.1195
   93CHL1   C21 9340  -0.032   5.237   7.789  0.6174  0.3194  0.3541
   93CHL1  H21A 9341  -0.061   5.175   7.701 -1.6024  1.6731  0.0422
   93CHL1  H21B 9342  -0.073   5.340   7.777 -2.0146 -0.6933 -0.1354
   93CHL1  H21C 9343  -0.083   5.190   7.875  2.2080 -0.2776  1.0011
   93CHL1   C22 9344   0.132   5.281   7.955  0.4516 -0.3300 -0.4835
   93CHL1  H22A 9345   0.078   5.234   8.040  1.1968 -0.0927  0.1307
   93CHL1  H22B 9346   0.240   5.282   7.983 -0.2661 -0.3523  2.6690
   93CHL1   C23 9347   0.086   5.424   7.980 -0.8620  0.4176  0.3354
   93CHL1  H23A 9348   0.140   5.488   7.908  0.0016  1.1709  1.6146
   93CHL1  H23B 9349  -0.024   5.425   7.965 -0.9789 -0.0627  1.0827
   93CHL1   C24 9350   0.103   5.461   8.122 -0.1011  1.2480  0.3736
   93CHL1  H24A 9351   0.010   5.445   8.181  0.1181  2.7609  1.1749
   93CHL1  H24B 9352   0.184   5.405   8.173 -0.7073  1.8354  2.0237
   93CHL1   C25 9353   0.149   5.606   8.154 -0.1630 -0.0035 -0.2691
   93CHL1   H25 9354   0.251   5.622   8.112  0.6014  1.4490  2.0045
   93CHL1   C26 9355   0.050   5.701   8.093  0.5422 -0.7279  0.2872
   93CHL1  H26A 9356  -0.049   5.695   8.144  0.5512 -0.6337  0.3163
   93CHL1  H26B 9357   0.065   5.810   8.108 -0.5732 -0.3762 -0.8996
   93CHL1  H26C 9358   0.028   5.691   7.985  1.1467 -0.0007  0.0884
   93CHL1   C27 9359   0.153   5.633   8.303  0.0323  1.3628  0.4826
   93CHL1  H27A 9360   0.050   5.631   8.343 -0.0032 -1.2790  0.4192
   93CHL1  H27B 9361   0.208   5.551   8.355 -1.8040  0.7589  1.5398
   93CHL1  H27C 9362   0.194   5.733   8.330 -2.1353  2.2134  0.7614
   94CHL1    C3 9363   2.754   3.201   6.740  0.4203  0.7023 -0.1377
   94CHL1    H3 9364   2.668   3.185   6.809  0.5088 -1.1615 -0.3976
   94CHL1    O3 9365   2.706   3.165   6.611 -0.1687 -0.3646 -0.1570
   94CHL1   H3' 9366   2.778   3.191   6.553  0.1671 -0.2514  0.3044
   94CHL1    C4 9367   2.790   3.348   6.742 -0.5599 -0.0537  0.3011
   94CHL1   H4A 9368   2.880   3.364   6.679 -0.0187  0.6560  1.2314
   94CHL1   H4B 9369   2.710   3.415   6.704 -0.2820 -1.0437 -2.2351
   94CHL1    C5 9370   2.823   3.393   6.883 -0.6150  0.1701  0.3022
   94CHL1    C6 9371   2.760   3.498   6.939 -0.0818  0.3017  0.6014
   94CHL1    H6 9372   2.688   3.564   6.889 -0.1653  0.1239  0.4827
   94CHL1    C7 9373   2.778   3.543   7.078  0.3045 -0.5820  0.5041
   94CHL1   H7A 9374   2.795   3.653   7.082 -3.5418  0.3370 -2.2282
   94CHL1   H7B 9375   2.681   3.523   7.128  1.2287  1.4477  3.3750
   94CHL1    C8 9376   2.882   3.458   7.172 -0.1376  0.1412  0.0289
   94CHL1    H8 9377   2.972   3.515   7.140 -1.5391  1.3195 -2.1147
   94CHL1   C14 9378   2.856   3.466   7.316 -0.3808 -0.1115 -1.0318
   94CHL1   H14 9379   2.761   3.410   7.325  0.0899 -1.1537 -2.2301
   94CHL1   C15 9380   2.828   3.602   7.378 -0.5326 -0.7334  0.0072
   94CHL1  H15A 9381   2.894   3.674   7.326 -0.2811 -1.4195 -0.6226
   94CHL1  H15B 9382   2.717   3.610   7.367 -0.6795 -1.2837  0.9354
   94CHL1   C16 9383   2.852   3.569   7.531  0.4645 -1.1506  0.0498
   94CHL1  H16A 9384   2.922   3.646   7.569  4.0857 -3.3785 -1.5743
   94CHL1  H16B 9385   2.752   3.559   7.580  0.2475 -0.0774 -0.1579
   94CHL1   C17 9386   2.911   3.433   7.549 -1.1353  0.0363  0.0868
   94CHL1   H17 9387   2.825   3.364   7.556 -0.3698 -0.8704  0.8430
   94CHL1   C13 9388   2.971   3.400   7.406 -0.7599 -1.4131  0.1000
   94CHL1   C18 9389   3.104   3.477   7.373 -0.1061  0.5332 -0.2812
   94CHL1  H18A 9390   3.194   3.445   7.429 -2.0144 -3.5263  0.8425
   94CHL1  H18B 9391   3.128   3.463   7.265 -0.0852 -0.8964 -0.1190
   94CHL1  H18C 9392   3.094   3.583   7.403  0.9740  1.0972 -1.8032
   94CHL1   C12 9393   2.983   3.255   7.359 -0.3785 -0.0644 -0.0728
   94CHL1  H12A 9394   3.064   3.206   7.417  0.1555 -0.6946 -1.3042
   94CHL1  H12B 9395   2.884   3.210   7.380  0.3695 -1.3486  0.8736
   94CHL1   C11 9396   3.016   3.247   7.206 -0.5091 -0.5286  0.0278
   94CHL1  H11A 9397   3.117   3.290   7.189 -1.6246  1.0549 -3.8542
   94CHL1  H11B 9398   3.026   3.138   7.193  0.7033 -0.7832  2.4308
   94CHL1    C9 9399   2.907   3.316   7.118  0.5688 -0.0654 -0.3884
   94CHL1    H9 9400   2.811   3.265   7.141  1.2122 -0.9894  0.3188
   94CHL1   C10 9401   2.925   3.307   6.962  0.4056 -0.7776  0.3833
   94CHL1   C19 9402   3.061   3.373   6.915 -0.0579  0.1512 -0.4522
   94CHL1  H19A 9403   3.058   3.481   6.940 -1.6861  0.0652 -0.1378
   94CHL1  H19B 9404   3.156   3.326   6.948 -0.9278 -1.9306 -0.7306
   94CHL1  H19C 9405   3.073   3.370   6.805  1.6953  0.6178 -0.2878
   94CHL1    C1 9406   2.911   3.156   6.926 -0.5014  0.8264  0.1422
   94CHL1   H1A 9407   2.998   3.098   6.964 -1.5590 -1.5151 -0.8256
   94CHL1   H1B 9408   2.834   3.110   6.992 -0.0393 -1.2632 -0.6968
   94CHL1    C2 9409   2.874   3.118   6.778 -0.1519 -0.1919 -0.4236
   94CHL1   H2A 9410   2.856   3.009   6.789  0.9272 -0.2620  1.1594
   94CHL1   H2B 9411   2.960   3.123   6.707  0.6299  1.0719  0.5638
   94CHL1   C20 9412   3.005   3.408   7.671  0.1995 -0.3700  0.5963
   94CHL1   H20 9413   3.110   3.437   7.648 -0.1861 -0.3089 -1.2310
   94CHL1   C21 9414   3.008   3.258   7.709  0.1664 -0.3692  0.3392
   94CHL1  H21A 9415   3.065   3.236   7.802  0.4358 -0.4350  0.1593
   94CHL1  H21B 9416   3.054   3.201   7.626 -0.5673 -0.6743  0.1369
   94CHL1  H21C 9417   2.912   3.206   7.731  0.0340 -0.2671  0.0077
   94CHL1   C22 9418   2.969   3.492   7.800  0.4639 -0.2125 -0.2965
   94CHL1  H22A 9419   2.973   3.600   7.776 -1.5612  0.3842  1.6674
   94CHL1  H22B 9420   2.865   3.467   7.831  0.3454  1.6813  1.0149
   94CHL1   C23 9421   3.071   3.474   7.913 -0.1207 -0.7787  0.5115
   94CHL1  H23A 9422   3.105   3.371   7.939  0.3947 -0.6733  0.2794
   94CHL1  H23B 9423   3.165   3.532   7.899 -0.0943  0.4888  4.5594
   94CHL1   C24 9424   3.018   3.555   8.039  0.2836  0.6822  0.1746
   94CHL1  H24A 9425   2.965   3.651   8.021  0.3151  0.4476 -1.2634
   94CHL1  H24B 9426   2.934   3.489   8.068  1.2927 -1.0925 -0.7763
   94CHL1   C25 9427   3.118   3.579   8.152 -0.1841  0.3418 -0.5671
   94CHL1   H25 9428   3.058   3.629   8.230 -0.6149  0.6714 -1.1016
   94CHL1   C26 9429   3.176   3.448   8.211 -0.5068  0.2366 -0.0763
   94CHL1  H26A 9430   3.104   3.381   8.262  0.2298 -0.1567  0.4595
   94CHL1  H26B 9431   3.236   3.390   8.138 -3.6960  0.3412 -3.0652
   94CHL1  H26C 9432   3.242   3.465   8.298 -1.6004  2.9460  0.3243
   94CHL1   C27 9433   3.227   3.677   8.111 -0.1363  0.2392 -0.1628
   94CHL1  H27A 9434   3.271   3.728   8.199 -1.0452 -0.1405  0.5320
   94CHL1  H27B 9435   3.303   3.620   8.054 -1.6913  0.4938 -2.7049
   94CHL1  H27C 9436   3.194   3.747   8.030 -1.4882 -0.7874 -0.5447
   95CHL1    C3 9437   1.968   0.166   6.579  0.0652 -0.0291 -0.1683
   95CHL1    H3 9438   1.912   0.082   6.532  0.0457 -0.6384  0.9196
   95CHL1    O3 9439   2.002   0.243   6.466  0.1273 -0.3625 -0.3043
   95CHL1   H3' 9440   1.920   0.280   6.434  0.3454  0.0881 -0.3483
   95CHL1    C4 9441   1.865   0.239   6.665 -0.1055  0.0424  0.2931
   95CHL1   H4A 9442   1.905   0.333   6.707 -2.1622  0.9368  0.3528
   95CHL1   H4B 9443   1.786   0.278   6.597  2.4754  2.5954 -1.4941
   95CHL1    C5 9444   1.826   0.141   6.769  0.4280 -0.4377  0.0238
   95CHL1    C6 9445   1.698   0.117   6.790  0.1508  0.3247  0.1467
   95CHL1    H6 9446   1.625   0.168   6.726 -0.0399  0.8739  0.7816
   95CHL1    C7 9447   1.652   0.042   6.909  0.2686  0.1984  0.5365
   95CHL1   H7A 9448   1.580   0.093   6.977  0.1313  1.8060 -0.7465
   95CHL1   H7B 9449   1.606  -0.054   6.880 -1.6471  0.2939  2.8796
   95CHL1    C8 9450   1.764  -0.004   7.014  0.1713 -0.0526  0.5964
   95CHL1    H8 9451   1.776   0.088   7.075 -2.8692  0.1925  0.9786
   95CHL1   C14 9452   1.720  -0.126   7.096  0.2721 -0.3849 -0.6120
   95CHL1   H14 9453   1.712  -0.207   7.021 -0.7342  0.8195 -1.8549
   95CHL1   C15 9454   1.582  -0.115   7.169 -0.6920  0.6080 -0.5018
   95CHL1  H15A 9455   1.572  -0.024   7.231 -3.9422  0.0466 -0.0165
   95CHL1  H15B 9456   1.497  -0.120   7.097  0.4745 -0.4128 -1.8606
   95CHL1   C16 9457   1.592  -0.223   7.274 -0.0549  0.4292 -0.2015
   95CHL1  H16A 9458   1.553  -0.205   7.376  1.9683 -2.7221  1.2834
   95CHL1  H16B 9459   1.539  -0.313   7.236 -1.3062  1.5221 -1.1439
   95CHL1   C17 9460   1.738  -0.275   7.283  0.0836 -0.1453  0.2382
   95CHL1   H17 9461   1.758  -0.367   7.225  1.4872 -1.1526  2.1714
   95CHL1   C13 9462   1.813  -0.167   7.211  0.4440  0.1507 -0.1814
   95CHL1   C18 9463   1.830  -0.040   7.309  0.3459  0.3893  0.2625
   95CHL1  H18A 9464   1.850   0.056   7.256  0.8928 -0.0568 -0.3605
   95CHL1  H18B 9465   1.736  -0.022   7.365 -1.5028  1.7952 -2.9901
   95CHL1  H18C 9466   1.911  -0.073   7.378  0.7166 -1.5827 -1.0249
   95CHL1   C12 9467   1.937  -0.206   7.133  0.0516  0.1232 -0.0949
   95CHL1  H12A 9468   2.022  -0.211   7.205 -0.5633  0.2844  0.6576
   95CHL1  H12B 9469   1.924  -0.296   7.070 -1.2196  0.9325 -1.0298
   95CHL1   C11 9470   1.999  -0.099   7.039 -0.5918  0.3076 -0.0825
   95CHL1  H11A 9471   2.029  -0.012   7.101 -1.6153 -0.0554  0.9278
   95CHL1  H11B 9472   2.088  -0.143   6.989  0.9209  2.7147  0.3073
   95CHL1    C9 9473   1.892  -0.037   6.949 -0.1884  0.5119  0.4326
   95CHL1    H9 9474   1.873  -0.119   6.876 -0.4819  0.4340  0.5954
   95CHL1   C10 9475   1.939   0.078   6.857  0.8372  0.3443  0.4534
   95CHL1   C19 9476   1.985   0.206   6.940  0.5074 -0.1883 -0.7215
   95CHL1  H19A 9477   2.030   0.291   6.884  0.6105  0.0014 -0.3535
   95CHL1  H19B 9478   1.899   0.247   6.997 -0.6247 -2.4018 -0.7401
   95CHL1  H19C 9479   2.070   0.177   7.005  0.7217  1.3831 -0.2477
   95CHL1    C1 9480   2.056   0.031   6.766 -0.1660 -0.2943  0.1731
   95CHL1   H1A 9481   2.144  -0.001   6.826  0.2580 -2.1907 -1.3415
   95CHL1   H1B 9482   2.016  -0.055   6.708 -0.5373 -0.2271  0.3316
   95CHL1    C2 9483   2.101   0.119   6.648  0.2581  0.5970  0.0167
   95CHL1   H2A 9484   2.156   0.065   6.568  0.3247  0.1849  0.3391
   95CHL1   H2B 9485   2.157   0.204   6.693 -0.7073  0.0783  2.3201
   95CHL1   C20 9486   1.770  -0.306   7.432  0.1748 -0.9786  0.3620
   95CHL1   H20 9487   1.764  -0.212   7.491  1.1255 -1.6317  1.5520
   95CHL1   C21 9488   1.912  -0.355   7.449 -0.6107 -0.2704  0.7766
   95CHL1  H21A 9489   1.988  -0.287   7.404  0.9851 -1.7594  1.1074
   95CHL1  H21B 9490   1.919  -0.454   7.398 -0.6046  0.8174 -1.4468
   95CHL1  H21C 9491   1.929  -0.357   7.558 -1.0510  1.4555  0.9059
   95CHL1   C22 9492   1.674  -0.400   7.500 -0.1972 -0.3634  0.7736
   95CHL1  H22A 9493   1.584  -0.411   7.435  1.3348 -1.6510 -1.2406
   95CHL1  H22B 9494   1.718  -0.499   7.525 -1.4823 -1.3365 -0.5709
   95CHL1   C23 9495   1.631  -0.340   7.631 -0.7625 -0.8839  0.3611
   95CHL1  H23A 9496   1.715  -0.295   7.688 -1.0630  0.5662 -0.2981
   95CHL1  H23B 9497   1.572  -0.248   7.613  2.2699  1.0138 -0.6314
   95CHL1   C24 9498   1.559  -0.431   7.718  0.0121  0.1806  0.4897
   95CHL1  H24A 9499   1.467  -0.457   7.660  0.1527 -1.4144  0.9196
   95CHL1  H24B 9500   1.617  -0.525   7.729 -0.8101 -0.3656  0.3280
   95CHL1   C25 9501   1.517  -0.368   7.850 -0.0561 -0.0733 -0.1151
   95CHL1   H25 9502   1.469  -0.269   7.832  0.9981  0.2244 -1.4309
   95CHL1   C26 9503   1.418  -0.451   7.923  0.4416  0.0481 -0.0612
   95CHL1  H26A 9504   1.465  -0.551   7.934 -0.2514 -0.6458 -2.6823
   95CHL1  H26B 9505   1.388  -0.420   8.025 -0.8705 -0.3532 -0.3155
   95CHL1  H26C 9506   1.314  -0.453   7.884 -1.0444  0.5968  3.5302
   95CHL1   C27 9507   1.633  -0.354   7.952 -0.3725  0.3815 -0.5238
   95CHL1  H27A 9508   1.678  -0.254   7.934  1.5771 -0.1252  1.0930
   95CHL1  H27B 9509   1.601  -0.355   8.058  0.1730 -0.7007 -0.3492
   95CHL1  H27C 9510   1.699  -0.440   7.927 -0.1572  0.2772  0.3742
   96CHL1    C3 9511   2.269   0.652   6.563  0.3426 -0.5663 -0.4846
   96CHL1    H3 9512   2.223   0.753   6.554  0.4316 -0.4547  0.2647
   96CHL1    O3 9513   2.298   0.600   6.430 -0.3934  0.3364  0.2974
   96CHL1   H3' 9514   2.385   0.560   6.437 -0.6491 -0.2893 -0.0223
   96CHL1    C4 9515   2.392   0.658   6.651 -0.7890 -0.0219 -0.1150
   96CHL1   H4A 9516   2.457   0.568   6.650  0.9453  1.1461  1.2622
   96CHL1   H4B 9517   2.459   0.735   6.607 -2.2197  0.8538 -0.8384
   96CHL1    C5 9518   2.353   0.704   6.789 -0.4968 -0.3494  0.2364
   96CHL1    C6 9519   2.416   0.810   6.844 -0.2706 -0.2302 -0.4544
   96CHL1    H6 9520   2.490   0.859   6.779  0.3030 -0.0335  0.3253
   96CHL1    C7 9521   2.393   0.848   6.987 -0.6549 -0.4849  0.4249
   96CHL1   H7A 9522   2.493   0.866   7.034  0.3768 -3.4675 -0.4228
   96CHL1   H7B 9523   2.333   0.941   6.994 -4.3581 -2.7354  0.9722
   96CHL1    C8 9524   2.324   0.743   7.071 -0.3324  0.0620 -0.2979
   96CHL1    H8 9525   2.404   0.671   7.097 -1.4052 -1.4127 -0.9572
   96CHL1   C14 9526   2.268   0.811   7.198 -0.1569 -0.0040 -0.7701
   96CHL1   H14 9527   2.191   0.883   7.163 -1.2664 -0.7009  0.1754
   96CHL1   C15 9528   2.368   0.896   7.287 -0.0672 -0.2558 -0.1600
   96CHL1  H15A 9529   2.466   0.844   7.284 -0.2770 -0.6287 -2.4644
   96CHL1  H15B 9530   2.374   1.001   7.249  0.4297 -1.0650 -2.5054
   96CHL1   C16 9531   2.297   0.903   7.421 -0.4675  0.1908 -0.0806
   96CHL1  H16A 9532   2.378   0.877   7.492 -1.6446  0.9720  1.6018
   96CHL1  H16B 9533   2.255   1.005   7.434  0.9996  1.0020 -1.3494
   96CHL1   C17 9534   2.176   0.806   7.408  0.1888 -0.4897  0.2189
   96CHL1   H17 9535   2.093   0.876   7.382 -0.4270 -0.2281  2.6614
   96CHL1   C13 9536   2.211   0.709   7.291  0.0900  0.4200  0.3873
   96CHL1   C18 9537   2.322   0.614   7.336  0.3807  0.9601 -0.0688
   96CHL1  H18A 9538   2.348   0.537   7.259  0.9125  0.7148  0.3436
   96CHL1  H18B 9539   2.417   0.665   7.363  0.7542  0.2328  0.0420
   96CHL1  H18C 9540   2.289   0.561   7.428  1.4884 -2.0249 -1.2373
   96CHL1   C12 9541   2.093   0.635   7.229  0.1041 -0.1884  0.8416
   96CHL1  H12A 9542   2.072   0.542   7.284  1.8950 -0.5452  0.9926
   96CHL1  H12B 9543   2.000   0.695   7.220  0.9596  1.1404  0.4147
   96CHL1   C11 9544   2.122   0.583   7.088  0.3462 -0.7688  0.2635
   96CHL1  H11A 9545   2.170   0.483   7.091  0.5345 -0.7247 -0.8722
   96CHL1  H11B 9546   2.027   0.568   7.032  0.0144 -1.9161  1.1110
   96CHL1    C9 9547   2.213   0.676   6.996 -0.2082 -0.2456  0.1876
   96CHL1    H9 9548   2.141   0.754   6.965  0.0348 -0.3393 -0.6477
   96CHL1   C10 9549   2.248   0.616   6.862 -0.3101 -0.4278  0.3506
   96CHL1   C19 9550   2.315   0.482   6.882 -0.4340 -0.2086 -1.0404
   96CHL1  H19A 9551   2.389   0.444   6.809  1.4328 -0.1347  0.6987
   96CHL1  H19B 9552   2.360   0.470   6.983 -2.1874  1.8738  0.0869
   96CHL1  H19C 9553   2.239   0.403   6.867 -0.9438  0.2144 -0.7050
   96CHL1    C1 9554   2.131   0.592   6.766  0.0044 -0.0529 -0.4206
   96CHL1   H1A 9555   2.053   0.521   6.802 -2.5488  0.9294 -3.4854
   96CHL1   H1B 9556   2.077   0.688   6.752 -2.3164 -1.4698 -1.9445
   96CHL1    C2 9557   2.168   0.557   6.626 -0.3634  0.4067  0.1032
   96CHL1   H2A 9558   2.074   0.560   6.568 -0.8622  1.1765  0.9359
   96CHL1   H2B 9559   2.199   0.450   6.623 -1.9221 -0.0456 -1.0468
   96CHL1   C20 9560   2.135   0.747   7.547  0.1016  0.6883 -0.8117
   96CHL1   H20 9561   2.222   0.697   7.593 -1.5125 -0.5343  1.0380
   96CHL1   C21 9562   2.031   0.633   7.537 -0.1243  0.0952  0.3211
   96CHL1  H21A 9563   1.950   0.681   7.479 -0.9056 -1.2277  0.2878
   96CHL1  H21B 9564   1.989   0.617   7.639 -1.5863 -3.2761 -0.7037
   96CHL1  H21C 9565   2.044   0.533   7.492 -1.2650  0.1247 -0.0890
   96CHL1   C22 9566   2.098   0.861   7.648  0.2484  0.3981 -1.2177
   96CHL1  H22A 9567   2.188   0.926   7.650  0.6968 -0.0635  2.8196
   96CHL1  H22B 9568   2.002   0.907   7.616  0.0117  1.0948  0.3877
   96CHL1   C23 9569   2.083   0.814   7.789 -0.2100 -0.4655 -0.6590
   96CHL1  H23A 9570   1.988   0.756   7.788 -0.9563  0.6840  0.8600
   96CHL1  H23B 9571   2.154   0.737   7.826 -1.0799 -0.7025  0.5873
   96CHL1   C24 9572   2.073   0.926   7.894 -0.2878  0.0856  0.5094
   96CHL1  H24A 9573   2.165   0.990   7.901 -1.0730  1.4461 -0.9155
   96CHL1  H24B 9574   1.987   0.990   7.864 -0.8066 -0.7587  0.1780
   96CHL1   C25 9575   2.049   0.877   8.034 -0.2484  0.2389 -0.4709
   96CHL1   H25 9576   2.127   0.811   8.077 -0.5401  0.0057 -0.2873
   96CHL1   C26 9577   2.047   0.998   8.127  0.0148 -0.5908  0.1644
   96CHL1  H26A 9578   1.974   1.077   8.099  0.1272 -0.0494  1.3307
   96CHL1  H26B 9579   2.031   0.978   8.235  2.6344  1.5937  1.0725
   96CHL1  H26C 9580   2.148   1.043   8.124 -0.3695  0.3089  0.3944
   96CHL1   C27 9581   1.919   0.800   8.041  0.0049 -0.6493 -0.2402
   96CHL1  H27A 9582   1.927   0.692   8.013 -0.3797 -0.8694  0.4827
   96CHL1  H27B 9583   1.894   0.803   8.149  0.7466  0.6239 -0.0984
   96CHL1  H27C 9584   1.845   0.850   7.975 -0.2655  0.5844  0.9696
   97OSM      N 9585   0.100   1.832  11.218  0.6076 -0.1886  0.1895
   97OSM    C15 9586   0.170   1.715  11.281 -0.2017  0.2979  0.5684
   97OSM   H15A 9587   0.185   1.725  11.388 -3.7793 -1.0763  1.3400
   97OSM   H15B 9588   0.261   1.686  11.231  1.0438 -0.5672  3.1701
   97OSM   H15C 9589   0.099   1.633  11.280  0.0923  0.0426 -0.4525
   97OSM    C14 9590   0.006   1.884  11.318  0.0246  0.0250  0.0403
   97OSM   H14A 9591  -0.083   1.826  11.304 -0.8084  1.6289 -1.7556
   97OSM   H14B 9592  -0.021   1.986  11.293 -1.8435 -0.8481 -1.7284
   97OSM   H14C 9593   0.042   1.872  11.420 -0.9838 -0.8193  0.3066
   97OSM    C13 9594   0.210   1.933  11.194  0.5369  0.0181 -0.1143
   97OSM   H13A 9595   0.243   1.961  11.293  0.4158  0.7170 -0.2632
   97OSM   H13B 9596   0.180   2.023  11.141 -1.3628 -0.2922  0.3393
   97OSM   H13C 9597   0.295   1.893  11.143 -0.1951 -1.8641  0.0776
   97OSM    C12 9598   0.032   1.799  11.086 -0.5539  0.6394 -0.5870
   97OSM   H12A 9599   0.116   1.769  11.026 -0.6944 -2.6813  0.6551
   97OSM   H12B 9600  -0.002   1.883  11.027 -1.5453 -0.9064 -2.3324
   97OSM    C11 9601  -0.082   1.692  11.090  0.4623  0.0105 -0.9453
   97OSM   H11A 9602  -0.050   1.603  11.149 -0.4864  0.6010  0.5245
   97OSM   H11B 9603  -0.094   1.660  10.985  1.1613  1.8355 -1.6262
   97OSM      P 9604  -0.299   1.852  11.085  0.5615 -0.5679  0.4648
   97OSM    O13 9605  -0.432   1.853  11.154 -0.3192 -0.0508  0.3083
   97OSM    O14 9606  -0.238   1.989  11.085  0.3909 -0.3073 -0.2572
   97OSM    O11 9607  -0.312   1.790  10.936 -0.0863 -0.1236  0.0284
   97OSM    O12 9608  -0.210   1.740  11.154 -0.0336 -0.7543 -0.4681
   97OSM    C1S 9609  -0.416   1.836  10.856  0.2404  1.0090 -0.1434
   97OSM    H1S 9610  -0.420   1.947  10.858  0.3833  1.0068  0.4143
   97OSM    H1T 9611  -0.513   1.798  10.896  0.0227  0.2588 -1.3243
   97OSM     NF 9612  -0.505   1.849  10.634 -0.5111 -0.3760  0.2010
   97OSM    HNF 9613  -0.588   1.795  10.622 -1.2070  0.2823  1.8155
   97OSM    C2S 9614  -0.399   1.784  10.714  0.2600  0.0777  0.1313
   97OSM    H2S 9615  -0.297   1.818  10.688 -0.7400  0.5621 -3.9004
   97OSM    C3S 9616  -0.404   1.633  10.709 -0.7491  0.4715  0.6587
   97OSM    H3S 9617  -0.507   1.601  10.734 -0.4529  0.5229  2.0520
   97OSM     O3 9618  -0.311   1.568  10.798  0.5439  0.1472  0.6329
   97OSM    HO3 9619  -0.288   1.630  10.868 -1.8961 -0.0985  1.7365
   97OSM    C4S 9620  -0.368   1.582  10.570 -0.0770  0.1562 -0.4387
   97OSM    H4S 9621  -0.262   1.585  10.541 -0.6883  0.9142 -2.8561
   97OSM    C5S 9622  -0.462   1.536  10.489 -0.3049  0.0812 -0.1013
   97OSM    H5S 9623  -0.567   1.549  10.519 -0.4237 -0.7243 -0.1501
   97OSM    C6S 9624  -0.447   1.476  10.349 -0.3499  0.1639  0.2967
   97OSM    H6S 9625  -0.452   1.365  10.351  1.4039  0.0458  0.0693
   97OSM    H6T 9626  -0.347   1.510  10.314 -0.7299  2.5509  1.3147
   97OSM    C7S 9627  -0.556   1.525  10.258 -0.4238  0.3108  0.1936
   97OSM    H7S 9628  -0.546   1.631  10.226  0.4573 -0.3939 -2.0066
   97OSM    H7T 9629  -0.656   1.507  10.304 -0.6524 -2.4853 -1.1978
   97OSM    C8S 9630  -0.559   1.435  10.132  0.1686  0.1076 -0.0188
   97OSM    H8S 9631  -0.583   1.329  10.155  0.7166 -0.2623 -1.0937
   97OSM    H8T 9632  -0.461   1.430  10.080 -0.0960 -1.4487 -0.4289
   97OSM    C9S 9633  -0.668   1.482  10.028 -0.1789  0.3814 -0.5092
   97OSM    H9S 9634  -0.658   1.590  10.001 -1.6315  0.5962 -0.2572
   97OSM    H9T 9635  -0.759   1.474  10.090  0.3395  1.2024  0.3879
   97OSM   C10S 9636  -0.686   1.408   9.897 -0.6133  0.0968  0.0607
   97OSM   H10S 9637  -0.613   1.456   9.828 -0.6530  2.0911  1.3346
   97OSM   H10T 9638  -0.785   1.435   9.855 -0.9005 -0.1825  0.5563
   97OSM   C11S 9639  -0.669   1.260   9.900 -0.5337  0.3329 -0.3550
   97OSM   H11S 9640  -0.746   1.222   9.971  0.3094 -1.3364 -0.2805
   97OSM   H11T 9641  -0.570   1.224   9.935 -2.4664 -2.6291  2.7349
   97OSM   C12S 9642  -0.718   1.192   9.769  0.1344 -0.1337  0.3339
   97OSM   H12S 9643  -0.679   1.251   9.683  2.2641 -0.4087  1.0577
   97OSM   H12T 9644  -0.828   1.208   9.767  0.2567  0.9063  0.9736
   97OSM   C13S 9645  -0.690   1.042   9.752 -0.3058  0.8403  0.1940
   97OSM   H13S 9646  -0.707   0.983   9.844 -0.4440 -1.2474 -1.1177
   97OSM   H13T 9647  -0.581   1.022   9.742 -0.4275 -0.1622  0.8434
   97OSM   C14S 9648  -0.776   0.965   9.652 -0.4055 -0.4368 -0.3666
   97OSM   H14S 9649  -0.877   1.008   9.667  0.2286  1.8242 -2.0903
   97OSM   H14T 9650  -0.762   0.860   9.685  0.2772 -0.9941 -2.3129
   97OSM   C15S 9651  -0.734   0.991   9.507 -0.4649 -0.1608  0.0316
   97OSM   H15S 9652  -0.628   0.957   9.503 -1.0782 -2.1359 -0.0440
   97OSM   H15T 9653  -0.750   1.098   9.481  0.1427 -0.5192 -1.9707
   97OSM   C16S 9654  -0.815   0.899   9.413 -0.8822  0.1722  0.1188
   97OSM   H16S 9655  -0.919   0.895   9.453 -0.9420 -0.2882 -0.0763
   97OSM   H16T 9656  -0.777   0.797   9.434 -2.1197 -0.5208 -0.8555
   97OSM   C17S 9657  -0.794   0.939   9.268 -0.4041 -0.1552  0.2761
   97OSM   H17S 9658  -0.687   0.959   9.246 -0.6611 -0.6103 -1.6458
   97OSM   H17T 9659  -0.863   1.024   9.247  0.2905  0.4653  0.4811
   97OSM   C18S 9660  -0.833   0.834   9.166  0.1160  0.3606  0.0160
   97OSM   H18S 9661  -0.744   0.767   9.164  0.2029  0.4468  0.6579
   97OSM   H18T 9662  -0.853   0.885   9.070 -1.7439 -1.7610 -0.8111
   97OSM   H18U 9663  -0.927   0.782   9.195 -0.5679  2.0656  0.9646
   97OSM    C1F 9664  -0.492   1.966  10.579 -0.2110  0.3426 -0.5567
   97OSM     OF 9665  -0.387   2.025  10.590  0.2928  0.1674  0.2227
   97OSM    C2F 9666  -0.612   2.036  10.525 -0.0364  0.7530  0.3281
   97OSM    H2F 9667  -0.628   2.124  10.591  2.4624  2.4101 -1.1028
   97OSM    H2G 9668  -0.709   1.983  10.537  0.9681 -1.0272  1.0977
   97OSM    C3F 9669  -0.571   2.086  10.377  0.7408  0.0273  0.2750
   97OSM    H3F 9670  -0.482   2.153  10.377 -1.0829  2.6686 -1.3865
   97OSM    H3G 9671  -0.651   2.156  10.346  0.1580 -0.4669  0.6628
   97OSM    C4F 9672  -0.590   1.965  10.278  0.0769 -0.1068 -0.3087
   97OSM    H4F 9673  -0.679   1.910  10.316 -0.0016  0.3298  0.1495
   97OSM    H4G 9674  -0.503   1.899  10.297 -0.3277 -0.3245  0.8529
   97OSM    C5F 9675  -0.590   2.002  10.131 -0.1985 -0.4430 -0.4929
   97OSM    H5F 9676  -0.492   2.050  10.109 -0.2850 -0.4756 -0.9645
   97OSM    H5G 9677  -0.665   2.082  10.116  0.6547  0.3478 -0.6569
   97OSM    C6F 9678  -0.631   1.883  10.042 -0.4640  0.4500 -0.1599
   97OSM    H6F 9679  -0.725   1.834  10.075 -0.0255 -1.1246 -1.1133
   97OSM    H6G 9680  -0.549   1.810  10.024 -2.0599 -0.6365 -4.3274
   97OSM    C7F 9681  -0.670   1.929   9.901 -0.4795 -0.8538  0.0690
   97OSM    H7F 9682  -0.584   1.975   9.847 -1.1870  0.0278 -0.3153
   97OSM    H7G 9683  -0.745   2.010   9.914  1.8942  1.7626 -1.4206
   97OSM    C8F 9684  -0.758   1.828   9.819 -0.2893  0.1011 -0.0284
   97OSM    H8F 9685  -0.838   1.793   9.887 -1.8759 -0.9185 -2.2877
   97OSM    H8G 9686  -0.691   1.741   9.802  1.9087  0.9842  3.1448
   97OSM    C9F 9687  -0.817   1.876   9.690 -0.1311  0.1064  0.6812
   97OSM    H9F 9688  -0.906   1.940   9.694  0.4391  1.1909 -2.0159
   97OSM   C10F 9689  -0.792   1.833   9.562 -0.0489 -0.1998  0.1016
   97OSM   H10F 9690  -0.845   1.884   9.480 -5.4796 -0.8374  2.7699
   97OSM   C11F 9691  -0.688   1.730   9.514  0.0768 -0.0945 -0.6425
   97OSM   H11F 9692  -0.655   1.682   9.609 -1.7894  0.5700  0.3822
   97OSM   H11G 9693  -0.599   1.783   9.474  0.7129  0.1663  1.0241
   97OSM   C12F 9694  -0.728   1.628   9.403 -0.0140  0.4907  0.3639
   97OSM   H12F 9695  -0.772   1.678   9.314 -0.9727  0.1537  0.6408
   97OSM   H12G 9696  -0.795   1.546   9.435  0.3810 -0.4826 -1.1763
   97OSM   C13F 9697  -0.603   1.549   9.355 -0.2927  0.2194 -0.4188
   97OSM   H13F 9698  -0.536   1.529   9.442  0.3711 -1.2380 -1.2374
   97OSM   H13G 9699  -0.546   1.617   9.288 -0.2968 -0.6534 -1.3299
   97OSM   C14F 9700  -0.627   1.411   9.287 -0.2563 -1.0195 -0.0587
   97OSM   H14F 9701  -0.686   1.353   9.361  1.4871 -2.9953 -0.1335
   97OSM   H14G 9702  -0.532   1.353   9.278 -1.3532 -2.7846 -0.7022
   97OSM   C15F 9703  -0.697   1.414   9.150  0.0109  0.0330 -0.5332
   97OSM   H15F 9704  -0.650   1.497   9.094  0.3176 -0.8888 -1.6712
   97OSM   H15G 9705  -0.803   1.442   9.168 -0.5469 -0.7552 -2.3243
   97OSM   C16F 9706  -0.686   1.286   9.072  0.5376  0.6514  0.3349
   97OSM   H16F 9707  -0.692   1.203   9.145  1.0024  0.3271  0.0132
   97OSM   H16G 9708  -0.587   1.291   9.021 -0.1764 -1.3988 -1.3593
   97OSM   C17F 9709  -0.791   1.263   8.959  0.2569  0.1562 -0.0274
   97OSM   H17F 9710  -0.762   1.172   8.902  0.9842 -0.1722  0.8404
   97OSM   H17G 9711  -0.776   1.336   8.877 -0.5175 -0.2092 -0.5038
   97OSM   C18F 9712  -0.940   1.256   9.007  0.1982  0.1158 -0.0741
   97OSM   H18F 9713  -0.947   1.177   9.084 -1.4886  0.1286 -0.1843
   97OSM   H18G 9714  -1.006   1.226   8.923 -0.6523 -2.2364  1.3696
   97OSM   H18H 9715  -0.982   1.344   9.060 -0.5297 -1.9928  3.1181
   98OSM      N 9716   6.107   1.309  11.112 -0.1154 -0.0509  0.3886
   98OSM    C15 9717   6.176   1.375  10.996  0.2617  0.3081  0.1684
   98OSM   H15A 9718   6.190   1.480  11.019 -2.3681  0.1544  3.2830
   98OSM   H15B 9719   6.107   1.372  10.913  0.7361  0.8336 -0.2498
   98OSM   H15C 9720   6.272   1.337  10.964  0.4733 -0.3546  1.5064
   98OSM    C14 9721   6.187   1.323  11.235  0.9546 -0.6269  0.0995
   98OSM   H14A 9722   6.199   1.426  11.263  2.0007  0.0757 -2.6312
   98OSM   H14B 9723   6.284   1.278  11.221  1.1550 -0.2350  0.2291
   98OSM   H14C 9724   6.124   1.275  11.308 -0.6470 -0.6063 -1.2051
   98OSM    C13 9725   5.975   1.372  11.130 -0.6531  0.1548 -0.7106
   98OSM   H13A 9726   5.978   1.477  11.156 -2.1371  0.3879 -1.3896
   98OSM   H13B 9727   5.922   1.325  11.211 -0.2608 -0.1100 -0.6056
   98OSM   H13C 9728   5.907   1.375  11.046 -1.2827  2.3394 -0.1750
   98OSM    C12 9729   6.082   1.161  11.082  0.2245  0.9781  0.4925
   98OSM   H12A 9730   6.047   1.115  11.173  2.2807 -0.2142  0.7397
   98OSM   H12B 9731   6.176   1.115  11.054  0.0808  0.9499  0.0441
   98OSM    C11 9732   5.976   1.122  10.973  0.0133  0.1108  0.0100
   98OSM   H11A 9733   5.876   1.164  10.998 -0.1514 -1.2573  1.8468
   98OSM   H11B 9734   5.973   1.012  10.963  5.3560 -0.1238 -1.9386
   98OSM      P 9735   6.110   1.089  10.757  0.3374 -0.4585  0.0091
   98OSM    O13 9736   6.153   1.171  10.644 -0.0174  0.4555 -0.0525
   98OSM    O14 9737   6.212   1.022  10.843  0.1681 -0.2088 -0.5216
   98OSM    O11 9738   6.012   0.976  10.699 -0.6871  0.5034  0.5510
   98OSM    O12 9739   6.006   1.172  10.841  0.3713 -0.1138  0.0431
   98OSM    C1S 9740   5.934   0.999  10.578 -0.2212  0.3482 -0.8526
   98OSM    H1S 9741   5.890   1.100  10.568 -0.5376  0.2007 -0.9780
   98OSM    H1T 9742   5.845   0.933  10.572  0.5570 -0.7626 -0.5418
   98OSM     NF 9743   5.916   0.993  10.337  0.2166  0.0333  0.9728
   98OSM    HNF 9744   5.898   0.922  10.269  2.0320  0.4989 -0.0539
   98OSM    C2S 9745   6.014   0.979  10.445 -0.4635  0.1923 -0.2375
   98OSM    H2S 9746   6.087   1.063  10.442  0.4246 -0.4069  2.0985
   98OSM    C3S 9747   6.105   0.852  10.440  0.7320  0.2506  0.4449
   98OSM    H3S 9748   6.032   0.770  10.457 -1.2652  1.4383 -1.7822
   98OSM     O3 9749   6.211   0.834  10.535  0.2629  0.0644  0.2766
   98OSM    HO3 9750   6.198   0.915  10.585 -2.7955 -0.0929 -0.0716
   98OSM    C4S 9751   6.159   0.835  10.299  0.2267  0.0036  0.0347
   98OSM    H4S 9752   6.084   0.786  10.235 -1.1327  1.7596  0.1979
   98OSM    C5S 9753   6.263   0.896  10.252  0.3053 -0.5828 -0.5285
   98OSM    H5S 9754   6.328   0.957  10.316  0.8799 -1.3242 -0.3964
   98OSM    C6S 9755   6.308   0.863  10.113 -0.3584 -0.4888  0.3420
   98OSM    H6S 9756   6.311   0.965  10.067 -0.2080  0.1939  1.8072
   98OSM    H6T 9757   6.235   0.800  10.057 -0.9177  0.7529 -0.3848
   98OSM    C7S 9758   6.451   0.806  10.108  0.7944 -0.0780 -0.1620
   98OSM    H7S 9759   6.437   0.713  10.167 -0.2910  0.5549  0.6222
   98OSM    H7T 9760   6.514   0.880  10.162 -0.1705 -0.0809  1.0126
   98OSM    C8S 9761   6.494   0.779   9.966  0.3823 -0.2833  0.3788
   98OSM    H8S 9762   6.587   0.720   9.956 -0.2239 -1.0244 -1.2861
   98OSM    H8T 9763   6.511   0.882   9.930 -2.0920  0.6305  1.6047
   98OSM    C9S 9764   6.387   0.703   9.884 -0.1678  0.0905  0.2898
   98OSM    H9S 9765   6.300   0.771   9.868 -0.9964 -0.6202  1.5330
   98OSM    H9T 9766   6.350   0.618   9.945 -0.8096 -0.6737 -1.1123
   98OSM   C10S 9767   6.442   0.667   9.745 -0.0174  0.1428 -0.0895
   98OSM   H10S 9768   6.540   0.615   9.759  0.2097  0.7045  0.4654
   98OSM   H10T 9769   6.449   0.764   9.692 -2.3856  0.3300 -0.1673
   98OSM   C11S 9770   6.336   0.588   9.664 -0.4651  0.8276 -0.3708
   98OSM   H11S 9771   6.239   0.638   9.686 -0.2493  0.7766  0.7530
   98OSM   H11T 9772   6.331   0.479   9.684  0.3436  0.2844 -2.8567
   98OSM   C12S 9773   6.372   0.598   9.518 -0.3919  0.3159  0.1631
   98OSM   H12S 9774   6.471   0.553   9.496 -1.6713 -2.0724 -1.1419
   98OSM   H12T 9775   6.367   0.703   9.483  3.8040  1.0016  1.1172
   98OSM   C13S 9776   6.276   0.516   9.420 -0.0927 -0.1627  0.3408
   98OSM   H13S 9777   6.174   0.558   9.435 -0.0206 -0.2298  1.0327
   98OSM   H13T 9778   6.277   0.409   9.447 -0.0970 -0.6335 -1.3736
   98OSM   C14S 9779   6.309   0.538   9.265 -0.3719 -0.1031 -0.3223
   98OSM   H14S 9780   6.407   0.492   9.241 -0.4146  0.2785 -1.2807
   98OSM   H14T 9781   6.316   0.648   9.255  0.8065 -0.1000  0.4176
   98OSM   C15S 9782   6.204   0.483   9.161  0.1963  0.1410 -0.4332
   98OSM   H15S 9783   6.105   0.530   9.181  0.5164  1.2547 -1.3425
   98OSM   H15T 9784   6.184   0.375   9.178 -3.6442  1.0062  1.7967
   98OSM   C16S 9785   6.231   0.510   9.010  0.3559 -1.3368  0.0476
   98OSM   H16S 9786   6.321   0.456   8.974 -0.1693 -1.7449 -0.6719
   98OSM   H16T 9787   6.242   0.619   8.992  0.0656 -0.6729  3.2779
   98OSM   C17S 9788   6.123   0.458   8.918  0.1578  0.1360  0.0495
   98OSM   H17S 9789   6.129   0.347   8.914 -1.3256 -0.0887  2.3004
   98OSM   H17T 9790   6.153   0.489   8.815 -0.1205  1.0180  0.2237
   98OSM   C18S 9791   5.981   0.496   8.948 -0.0969  0.0101 -0.4407
   98OSM   H18S 9792   5.907   0.424   8.907 -2.3535  2.2457 -0.5821
   98OSM   H18T 9793   5.953   0.586   8.888  0.1873  1.3209  1.3089
   98OSM   H18U 9794   5.940   0.517   9.049 -2.7852 -0.2355 -1.3969
   98OSM    C1F 9795   5.856   1.110  10.300 -0.3255 -0.0640 -0.7063
   98OSM     OF 9796   5.860   1.216  10.366 -0.0408  0.3574 -0.3125
   98OSM    C2F 9797   5.773   1.092  10.186  0.1288 -0.2371  0.2382
   98OSM    H2F 9798   5.689   1.164  10.196  1.7386  1.6251  0.9954
   98OSM    H2G 9799   5.727   0.991  10.198 -0.5267  0.0001 -0.2657
   98OSM    C3F 9800   5.845   1.115  10.052 -0.6871 -0.2255  0.3668
   98OSM    H3F 9801   5.924   1.038  10.038 -0.6220 -0.3527  1.3541
   98OSM    H3G 9802   5.903   1.208  10.068  1.2591 -0.8388 -2.3966
   98OSM    C4F 9803   5.748   1.125   9.928  0.7020 -0.0746  0.2204
   98OSM    H4F 9804   5.803   1.170   9.843 -0.1631  1.7776  0.5713
   98OSM    H4G 9805   5.669   1.202   9.947  2.4151  1.2778  2.4822
   98OSM    C5F 9806   5.669   0.995   9.901 -0.2520 -0.2401  0.1626
   98OSM    H5F 9807   5.577   1.015   9.842 -0.4400 -1.0229  0.1849
   98OSM    H5G 9808   5.642   0.949   9.998 -1.1436  0.8435  0.4463
   98OSM    C6F 9809   5.755   0.897   9.826  0.0366 -0.2244 -0.1799
   98OSM    H6F 9810   5.855   0.892   9.872  0.2525 -0.2697 -0.6430
   98OSM    H6G 9811   5.762   0.915   9.716 -2.3438 -1.8492 -0.7013
   98OSM    C7F 9812   5.701   0.761   9.849 -0.0950  0.7422  0.7587
   98OSM    H7F 9813   5.598   0.769   9.809  0.4487  0.7410 -0.7236
   98OSM    H7G 9814   5.696   0.716   9.950  0.8734 -3.9361 -1.0039
   98OSM    C8F 9815   5.790   0.657   9.764  0.4316  0.0503  0.4186
   98OSM    H8F 9816   5.896   0.662   9.798  0.2382  0.4527  0.9930
   98OSM    H8G 9817   5.803   0.700   9.663  3.6037  0.6781  0.9927
   98OSM    C9F 9818   5.745   0.518   9.751 -0.1474 -0.6261  0.7072
   98OSM    H9F 9819   5.668   0.477   9.819 -1.1683 -1.7219 -1.0161
   98OSM   C10F 9820   5.763   0.432   9.648  0.0373 -0.1536  0.3531
   98OSM   H10F 9821   5.739   0.325   9.659  0.0869 -0.0819  1.1821
   98OSM   C11F 9822   5.854   0.458   9.539  0.1328  0.5206 -0.1338
   98OSM   H11F 9823   5.935   0.382   9.543  0.0203 -0.0753 -4.5616
   98OSM   H11G 9824   5.898   0.560   9.542 -0.9224  0.9683  0.9966
   98OSM   C12F 9825   5.803   0.446   9.390 -0.0467  0.1883 -0.3613
   98OSM   H12F 9826   5.892   0.467   9.327  0.4934 -3.2291 -0.9262
   98OSM   H12G 9827   5.734   0.531   9.371  1.9564  1.7444 -0.9528
   98OSM   C13F 9828   5.743   0.306   9.372 -0.3955  0.1405  0.4170
   98OSM   H13F 9829   5.641   0.291   9.413 -0.9964  1.1352 -0.6360
   98OSM   H13G 9830   5.813   0.236   9.422 -1.5476 -0.6241  0.9783
   98OSM   C14F 9831   5.745   0.257   9.227 -0.1731  0.6260 -0.1037
   98OSM   H14F 9832   5.714   0.151   9.219 -0.7949  0.7038  1.0134
   98OSM   H14G 9833   5.842   0.265   9.173 -0.5301 -1.0919 -1.0561
   98OSM   C15F 9834   5.644   0.338   9.142 -0.2644  0.5499  0.1715
   98OSM   H15F 9835   5.677   0.442   9.126  0.2296  0.3666 -0.0128
   98OSM   H15G 9836   5.552   0.340   9.206  0.9914 -0.0297  2.0898
   98OSM   C16F 9837   5.598   0.274   9.005 -0.1830  0.0945 -0.4582
   98OSM   H16F 9838   5.547   0.184   9.045 -0.2694 -0.5380 -1.9224
   98OSM   H16G 9839   5.695   0.260   8.952  0.6822  2.3513  0.3678
   98OSM   C17F 9840   5.502   0.362   8.932  0.8639  0.5372 -0.0151
   98OSM   H17F 9841   5.549   0.460   8.909 -0.1095  1.1860  0.6651
   98OSM   H17G 9842   5.411   0.385   8.992  2.3197 -1.2630  3.1402
   98OSM   C18F 9843   5.452   0.290   8.803 -0.4612  0.1177 -0.4859
   98OSM   H18F 9844   5.372   0.359   8.768 -2.3810  0.2667  3.6141
   98OSM   H18G 9845   5.402   0.193   8.823 -0.2786  0.2592  0.7710
   98OSM   H18H 9846   5.538   0.269   8.736  0.2825 -1.7245  0.9594
   99OSM      N 9847   1.789   3.624  10.770  0.3196  0.4180  0.0313
   99OSM    C15 9848   1.693   3.615  10.882  0.1938  0.1932  0.4141
   99OSM   H15A 9849   1.609   3.681  10.871 -0.3581 -0.5466  0.1236
   99OSM   H15B 9850   1.749   3.618  10.975  1.4540 -2.0496 -0.1825
   99OSM   H15C 9851   1.639   3.522  10.896 -4.2930  2.5052  0.1440
   99OSM    C14 9852   1.724   3.622  10.631  0.1579  0.9809  0.2035
   99OSM   H14A 9853   1.796   3.644  10.553 -1.4456 -0.5037 -1.8140
   99OSM   H14B 9854   1.646   3.696  10.626 -0.4627  0.3206 -0.0466
   99OSM   H14C 9855   1.677   3.525  10.628  1.3634  0.2961  1.7024
   99OSM    C13 9856   1.855   3.756  10.773  0.2849 -1.2354 -0.3411
   99OSM   H13A 9857   1.794   3.842  10.795  0.5315 -1.3226  0.7434
   99OSM   H13B 9858   1.910   3.775  10.682  0.7220  3.3557  0.6301
   99OSM   H13C 9859   1.932   3.755  10.848  0.2064  3.1891  0.0336
   99OSM    C12 9860   1.883   3.502  10.781  0.0225 -0.0118  0.1317
   99OSM   H12A 9861   1.934   3.481  10.689  0.0581  0.8964 -0.0665
   99OSM   H12B 9862   1.823   3.413  10.794 -0.0986 -0.0047 -0.3837
   99OSM    C11 9863   1.992   3.488  10.891  0.6693 -0.0879 -0.3546
   99OSM   H11A 9864   2.030   3.384  10.886 -0.3749 -0.4886 -0.2841
   99OSM   H11B 9865   1.934   3.497  10.986 -0.5340 -1.9747 -0.8498
   99OSM      P 9866   2.211   3.593  10.781  0.1993  0.0500 -0.2302
   99OSM    O13 9867   2.262   3.734  10.774  0.1176 -0.0032  0.1649
   99OSM    O14 9868   2.306   3.486  10.826 -0.5439  0.1510  0.9810
   99OSM    O11 9869   2.148   3.561  10.639  0.3753 -0.1378  0.0569
   99OSM    O12 9870   2.095   3.594  10.884 -0.3723 -0.4025 -0.2199
   99OSM    C1S 9871   2.233   3.545  10.521  0.2643  0.1700  0.0248
   99OSM    H1S 9872   2.291   3.453  10.544 -0.2905 -0.4333 -0.9051
   99OSM    H1T 9873   2.305   3.626  10.498  0.9315 -0.1687  0.8947
   99OSM     NF 9874   2.239   3.500  10.277 -0.0211  0.0737  0.0237
   99OSM    HNF 9875   2.233   3.555  10.193  0.0979 -0.5942 -0.4260
   99OSM    C2S 9876   2.156   3.534  10.385 -0.4540  0.0492 -1.4845
   99OSM    H2S 9877   2.076   3.457  10.392 -2.7636  2.3740 -0.6420
   99OSM    C3S 9878   2.092   3.677  10.366 -0.1948  0.4375  0.8621
   99OSM    H3S 9879   2.178   3.742  10.338  0.8863 -0.7916  1.2160
   99OSM     O3 9880   2.024   3.731  10.481  0.2399  0.0858 -0.0996
   99OSM    HO3 9881   2.071   3.685  10.551  0.5877  0.9012  0.2120
   99OSM    C4S 9882   2.003   3.681  10.252 -0.1177  0.7459  0.2168
   99OSM    H4S 9883   1.942   3.593  10.228 -0.2710  1.1090 -0.7816
   99OSM    C5S 9884   1.998   3.790  10.179 -0.0902  0.0734  0.5168
   99OSM    H5S 9885   2.065   3.873  10.205 -0.5519  0.4419  0.5356
   99OSM    C6S 9886   1.906   3.808  10.064  0.3120 -0.1788  0.0492
   99OSM    H6S 9887   1.858   3.906  10.079  0.6846 -0.2541  1.8939
   99OSM    H6T 9888   1.832   3.726  10.048 -0.8088  1.0756 -1.5269
   99OSM    C7S 9889   1.995   3.823   9.939  0.0937  0.2378 -0.0996
   99OSM    H7S 9890   2.053   3.728   9.939 -0.8169 -0.3371 -0.9471
   99OSM    H7T 9891   2.066   3.908   9.936  0.3409  0.0920  1.0864
   99OSM    C8S 9892   1.905   3.818   9.813  0.2271  0.6509  0.4234
   99OSM    H8S 9893   1.869   3.917   9.780  0.0107  1.3448  2.5440
   99OSM    H8T 9894   1.818   3.755   9.841  1.3299 -1.6761 -1.1136
   99OSM    C9S 9895   1.971   3.767   9.681 -0.3945  0.2312  0.0380
   99OSM    H9S 9896   1.939   3.661   9.666 -2.3131  0.8353 -0.4486
   99OSM    H9T 9897   2.080   3.783   9.694 -0.2325 -1.0699  0.3941
   99OSM   C10S 9898   1.912   3.822   9.553  0.7920 -0.2980 -0.4889
   99OSM   H10S 9899   1.928   3.930   9.569 -3.6899  0.4162  0.4207
   99OSM   H10T 9900   1.804   3.798   9.552  0.6217  0.3728  0.3613
   99OSM   C11S 9901   1.970   3.786   9.418  0.2346  0.3350  0.1505
   99OSM   H11S 9902   1.990   3.677   9.421  0.5248  0.3445 -1.0876
   99OSM   H11T 9903   2.064   3.843   9.400 -1.2117  2.8201 -0.0291
   99OSM   C12S 9904   1.869   3.827   9.304  0.0034 -0.8370  0.2984
   99OSM   H12S 9905   1.764   3.810   9.336 -0.1891 -1.6548 -0.7279
   99OSM   H12T 9906   1.884   3.936   9.287 -2.0617 -0.8049 -1.8295
   99OSM   C13S 9907   1.891   3.763   9.173 -0.4851  0.0753 -0.1754
   99OSM   H13S 9908   1.871   3.654   9.187  1.6705 -0.3586 -0.2026
   99OSM   H13T 9909   1.999   3.768   9.151 -0.7454 -0.2481 -1.6355
   99OSM   C14S 9910   1.812   3.826   9.056 -0.5422 -0.0549  0.3454
   99OSM   H14S 9911   1.816   3.936   9.039 -0.2281 -0.4605 -2.8282
   99OSM   H14T 9912   1.706   3.795   9.057 -0.2467 -1.0613  1.0683
   99OSM   C15S 9913   1.870   3.778   8.923  0.5130 -1.1776  0.1064
   99OSM   H15S 9914   1.887   3.669   8.918  3.6831 -0.7894  0.6213
   99OSM   H15T 9915   1.973   3.818   8.913  0.3279 -1.1641 -2.0306
   99OSM   C16S 9916   1.791   3.826   8.804  1.3249 -0.5193  0.0638
   99OSM   H16S 9917   1.821   3.932   8.786  2.0632 -0.4503  1.5322
   99OSM   H16T 9918   1.681   3.819   8.817  1.0477  1.8844 -0.5545
   99OSM   C17S 9919   1.838   3.752   8.666 -0.0741  0.4985  0.0602
   99OSM   H17S 9920   1.822   3.643   8.681 -1.3042  0.8277  1.4025
   99OSM   H17T 9921   1.948   3.761   8.656  0.4427 -1.9099  2.2649
   99OSM   C18S 9922   1.752   3.792   8.545  0.1944 -0.0391 -0.5874
   99OSM   H18S 9923   1.801   3.737   8.462 -1.5317 -1.7618 -0.5237
   99OSM   H18T 9924   1.754   3.902   8.529  4.1573 -0.1008 -1.6589
   99OSM   H18U 9925   1.651   3.746   8.555  0.7161 -1.0239  0.2636
   99OSM    C1F 9926   2.316   3.394  10.278 -0.3457 -0.5340 -0.6977
   99OSM     OF 9927   2.304   3.304  10.362  0.0935  0.0580  0.3405
   99OSM    C2F 9928   2.427   3.388  10.173 -0.0108 -0.3224 -0.3512
   99OSM    H2F 9929   2.520   3.337  10.203 -0.4766  0.7818  3.5280
   99OSM    H2G 9930   2.457   3.491  10.145  1.3088  0.0483  2.1746
   99OSM    C3F 9931   2.387   3.311  10.044 -0.4358  0.2663 -0.3763
   99OSM    H3F 9932   2.475   3.273   9.989 -1.0808  0.4311 -1.5540
   99OSM    H3G 9933   2.320   3.227  10.072 -1.0750  1.2768  1.3106
   99OSM    C4F 9934   2.301   3.387   9.942  0.8081  0.6102 -0.2835
   99OSM    H4F 9935   2.258   3.482   9.979  1.8257  1.4497 -1.2076
   99OSM    H4G 9936   2.211   3.325   9.920  0.3439  1.2929 -0.3393
   99OSM    C5F 9937   2.382   3.412   9.811 -0.1607 -0.6396  0.0993
   99OSM    H5F 9938   2.415   3.313   9.773 -0.3404 -0.1407 -1.4343
   99OSM    H5G 9939   2.474   3.469   9.836 -0.0025 -1.0096  0.3691
   99OSM    C6F 9940   2.302   3.476   9.698 -0.0439  0.8284  0.0377
   99OSM    H6F 9941   2.257   3.564   9.748  1.1039  0.7911  1.1963
   99OSM    H6G 9942   2.214   3.416   9.666 -0.3571  1.8162 -1.0013
   99OSM    C7F 9943   2.383   3.501   9.568  0.0256  0.0495 -0.8151
   99OSM    H7F 9944   2.417   3.409   9.515 -0.1208 -0.0955 -0.6597
   99OSM    H7G 9945   2.468   3.571   9.582 -0.4207  0.7937 -1.6946
   99OSM    C8F 9946   2.290   3.560   9.468  0.5587  0.3199  0.8874
   99OSM    H8F 9947   2.361   3.591   9.388  2.3659 -2.5179  1.2486
   99OSM    H8G 9948   2.239   3.649   9.513 -1.0753  0.5762 -1.3144
   99OSM    C9F 9949   2.190   3.466   9.411 -0.0053 -0.5659  0.2188
   99OSM    H9F 9950   2.090   3.463   9.455 -0.2079 -2.9889 -0.2752
   99OSM   C10F 9951   2.196   3.398   9.293  0.1132  0.8957  0.0996
   99OSM   H10F 9952   2.107   3.338   9.272 -1.0593  1.7326  2.3823
   99OSM   C11F 9953   2.306   3.399   9.194  0.0991 -0.3405 -0.5777
   99OSM   H11F 9954   2.358   3.300   9.191 -0.4810 -0.7262  0.8673
   99OSM   H11G 9955   2.374   3.475   9.237 -0.5311 -0.7200  1.1585
   99OSM   C12F 9956   2.246   3.447   9.067 -0.1677 -0.3391  0.2438
   99OSM   H12F 9957   2.320   3.464   8.986 -2.8512 -1.2790 -2.6188
   99OSM   H12G 9958   2.203   3.548   9.084 -0.3673 -0.6712  1.8790
   99OSM   C13F 9959   2.122   3.373   9.007 -0.7683  0.2065 -0.5256
   99OSM   H13F 9960   2.078   3.434   8.926  1.8884 -1.2378 -3.2573
   99OSM   H13G 9961   2.053   3.347   9.091  2.9717 -0.8185  2.5320
   99OSM   C14F 9962   2.170   3.244   8.934 -0.3966 -0.3909  0.4180
   99OSM   H14F 9963   2.223   3.169   8.996  2.4358  0.2449 -1.0717
   99OSM   H14G 9964   2.235   3.269   8.847 -1.7449  0.4317 -0.4026
   99OSM   C15F 9965   2.063   3.164   8.867 -0.3212 -0.1558 -0.0583
   99OSM   H15F 9966   2.025   3.226   8.783  1.5752  0.5169 -0.4879
   99OSM   H15G 9967   1.976   3.156   8.936 -3.0019  3.0178 -2.6993
   99OSM   C16F 9968   2.104   3.028   8.822  0.4588 -0.2253 -0.4440
   99OSM   H16F 9969   2.141   2.971   8.910 -0.1509  0.8591  0.5413
   99OSM   H16G 9970   2.190   3.028   8.752  0.6570 -0.3190 -0.2066
   99OSM   C17F 9971   1.988   2.948   8.767 -0.3765 -0.1456 -0.2776
   99OSM   H17F 9972   1.964   2.997   8.671  0.6784  1.9196  0.4495
   99OSM   H17G 9973   1.899   2.950   8.834 -1.0534 -0.2519 -1.1673
   99OSM   C18F 9974   2.024   2.804   8.737 -0.8807 -0.4683  0.6685
   99OSM   H18F 9975   2.014   2.751   8.834 -1.3719 -1.8786 -0.1214
   99OSM   H18G 9976   2.131   2.800   8.707 -0.7786  1.5416  0.6286
   99OSM   H18H 9977   1.965   2.764   8.652  0.7841 -1.0889 -0.2404
  100OSM      N 9978   4.134   3.401  10.749  0.0252 -0.0478 -0.0400
  100OSM    C15 9979   4.102   3.250  10.756  0.1095  0.0301  1.2198
  100OSM   H15A 9980   4.170   3.191  10.696  0.5452 -0.3383  2.0615
  100OSM   H15B 9981   4.002   3.230  10.721  0.5791 -1.0907  0.4586
  100OSM   H15C 9982   4.107   3.216  10.858 -1.0101  2.7039  2.2527
  100OSM    C14 9983   4.036   3.474  10.838 -0.4690 -1.1219  0.0640
  100OSM   H14A 9984   4.063   3.577  10.821 -0.1523 -1.0921  0.7129
  100OSM   H14B 9985   4.036   3.437  10.940  1.1538  1.6237  1.1554
  100OSM   H14C 9986   3.936   3.469  10.797 -0.9267 -2.4783  1.2430
  100OSM    C13 9987   4.269   3.431  10.800  0.0680 -0.7389  0.5143
  100OSM   H13A 9988   4.345   3.383  10.740  0.6690 -1.3476  1.7417
  100OSM   H13B 9989   4.282   3.374  10.890 -0.6104 -1.3193  0.2596
  100OSM   H13C 9990   4.290   3.536  10.800  0.6530 -0.8466  1.8714
  100OSM    C12 9991   4.114   3.455  10.604  0.1662 -0.1317 -0.4744
  100OSM   H12A 9992   4.012   3.439  10.571  0.0966 -1.9548  0.4871
  100OSM   H12B 9993   4.186   3.412  10.536  1.3501 -4.7904  3.1798
  100OSM    C11 9994   4.136   3.613  10.594 -0.6748 -0.3483  0.5841
  100OSM   H11A 9995   4.152   3.641  10.488 -1.3644 -0.5191  0.4281
  100OSM   H11B 9996   4.231   3.647  10.641 -0.3457 -1.3939  0.6894
  100OSM      P 9997   4.026   3.836  10.673  0.0311  0.2702  0.5753
  100OSM    O13 9998   3.920   3.875  10.765  0.2754  0.0783 -0.2229
  100OSM    O14 9999   4.172   3.874  10.700  0.4165 -0.1777  0.7617
  100OSM    O1110000   3.974   3.915  10.542 -0.8193 -0.4028 -0.2766
  100OSM    O1210001   4.017   3.683  10.640 -0.3522 -0.3671  0.4778
  100OSM    C1S10002   4.051   3.907  10.419  0.4528 -0.2916 -0.1724
  100OSM    H1S10003   4.032   3.803  10.383  1.7899 -0.1253 -1.4332
  100OSM    H1T10004   4.160   3.908  10.440  0.3048 -0.5275  0.6602
  100OSM     NF10005   4.052   3.974  10.185 -0.1725 -0.8399  0.3383
  100OSM    HNF10006   4.129   4.023  10.144 -0.4269 -1.0988 -0.4711
  100OSM    C2S10007   4.004   4.014  10.320  0.0673  0.2724  0.1709
  100OSM    H2S10008   3.893   4.009  10.322  0.0845  0.0942  1.2342
  100OSM    C3S10009   4.036   4.163  10.361 -0.0436 -0.2403 -0.4704
  100OSM    H3S10010   4.146   4.180  10.358 -0.3005  1.5874 -0.7462
  100OSM     O310011   4.007   4.194  10.496 -0.2830  0.4256 -0.2387
  100OSM    HO310012   4.000   4.104  10.530 -0.2035  0.7939  0.7812
  100OSM    C4S10013   3.974   4.262  10.269  0.3576  0.3524  0.3148
  100OSM    H4S10014   3.866   4.277  10.279  0.3501  0.5379 -0.0283
  100OSM    C5S10015   4.038   4.338  10.173  0.3056  0.0664  0.8003
  100OSM    H5S10016   4.144   4.323  10.146  0.8404  0.5428  2.4844
  100OSM    C6S10017   3.969   4.422  10.075 -0.2710 -0.3040  0.0252
  100OSM    H6S10018   4.000   4.527  10.093  4.9875 -1.1817 -1.9573
  100OSM    H6T10019   3.860   4.409  10.095 -0.5485 -0.2380 -1.3758
  100OSM    C7S10020   3.981   4.383   9.926  0.0264  0.0107 -0.3418
  100OSM    H7S10021   4.087   4.402   9.899  0.3995 -1.2338  0.1695
  100OSM    H7T10022   3.923   4.455   9.864  0.3200  0.5823  0.0353
  100OSM    C8S10023   3.949   4.238   9.902  0.2965 -0.4786  0.6624
  100OSM    H8S10024   3.845   4.206   9.921  0.3502 -2.2757 -1.6168
  100OSM    H8T10025   4.017   4.171   9.960 -1.1839 -1.3065  1.4879
  100OSM    C9S10026   3.978   4.193   9.751  0.4644 -0.4842  0.5255
  100OSM    H9S10027   3.969   4.082   9.747  0.4711 -0.4478 -0.9566
  100OSM    H9T10028   4.081   4.222   9.719  0.2314 -1.3945 -1.1575
  100OSM   C10S10029   3.883   4.261   9.652 -0.0123  0.6970  0.3522
  100OSM   H10S10030   3.883   4.370   9.671 -1.4913  0.5505  1.3148
  100OSM   H10T10031   3.779   4.228   9.669 -0.4475  1.7431 -0.1805
  100OSM   C11S10032   3.918   4.236   9.505  0.3469  0.6087  0.3106
  100OSM   H11S10033   3.892   4.133   9.474  2.7045 -0.6256  2.1130
  100OSM   H11T10034   4.029   4.244   9.503  0.3074  1.6122  1.0441
  100OSM   C12S10035   3.868   4.336   9.401 -0.8224 -0.4812  0.8154
  100OSM   H12S10036   3.909   4.434   9.433  0.4276 -0.5480 -0.4460
  100OSM   H12T10037   3.758   4.336   9.415 -0.6226 -0.1002  2.6035
  100OSM   C13S10038   3.926   4.313   9.257 -0.3046  0.1947 -0.3724
  100OSM   H13S10039   3.873   4.220   9.228  0.2577 -0.9948  2.0906
  100OSM   H13T10040   4.034   4.287   9.256 -1.0829 -3.7776 -0.6019
  100OSM   C14S10041   3.914   4.442   9.170  0.0332  0.2000 -0.0643
  100OSM   H14S10042   3.976   4.521   9.216 -0.9490  1.2014 -0.4051
  100OSM   H14T10043   3.806   4.471   9.177  0.0928 -0.0140  2.9323
  100OSM   C15S10044   3.944   4.405   9.022  1.2477  0.0860 -0.5560
  100OSM   H15S10045   3.883   4.317   8.992  1.5789 -0.7239  1.0378
  100OSM   H15T10046   4.052   4.377   9.016  1.8497  1.9870  0.5878
  100OSM   C16S10047   3.901   4.510   8.922  0.1232  1.0007 -0.1701
  100OSM   H16S10048   3.912   4.609   8.970  0.1048  0.5456  0.8016
  100OSM   H16T10049   3.792   4.506   8.902 -0.4085  2.4353  2.0618
  100OSM   C17S10050   3.969   4.497   8.782  0.0351  0.0124  0.3545
  100OSM   H17S10051   3.957   4.394   8.743 -0.7054 -0.4713  1.7887
  100OSM   H17T10052   4.076   4.527   8.790  0.4467 -1.3729  0.3167
  100OSM   C18S10053   3.896   4.585   8.675  0.1501 -0.5601 -0.0283
  100OSM   H18S10054   3.889   4.691   8.705  1.7044 -0.5846  0.5202
  100OSM   H18T10055   3.795   4.547   8.650 -0.9231  2.6882 -1.0540
  100OSM   H18U10056   3.950   4.597   8.578 -1.0814  0.5962 -0.5925
  100OSM    C1F10057   4.004   3.865  10.126  1.0552  0.2599  0.5018
  100OSM     OF10058   3.914   3.799  10.181 -0.4457 -0.0846 -0.0130
  100OSM    C2F10059   4.061   3.824   9.993  0.0570  0.0005 -0.0614
  100OSM    H2F10060   4.128   3.737  10.011  0.9789  0.6000 -0.4763
  100OSM    H2G10061   4.116   3.910   9.949  0.4275 -0.2233 -0.0425
  100OSM    C3F10062   3.956   3.780   9.881 -0.4992  0.2885 -0.3384
  100OSM    H3F10063   3.901   3.872   9.855  0.6965  1.7043  1.8354
  100OSM    H3G10064   3.884   3.706   9.924 -1.2189  1.7106  1.0170
  100OSM    C4F10065   4.019   3.716   9.758 -0.6412  0.5854 -0.2866
  100OSM    H4F10066   4.083   3.628   9.783  0.4859  1.9586  1.9106
  100OSM    H4G10067   4.080   3.801   9.720 -0.7207  1.2960  1.1320
  100OSM    C5F10068   3.914   3.683   9.648  0.4132 -0.1005  0.0118
  100OSM    H5F10069   3.961   3.694   9.548 -1.0645  1.1472 -0.5879
  100OSM    H5G10070   3.830   3.755   9.655 -0.6278 -1.3873  1.9008
  100OSM    C6F10071   3.852   3.546   9.648 -0.0340  0.4656  0.7291
  100OSM    H6F10072   3.774   3.544   9.569 -0.2991  0.6789  0.9831
  100OSM    H6G10073   3.812   3.516   9.747  2.0906 -2.2243  0.9148
  100OSM    C7F10074   3.952   3.424   9.620  0.3020 -0.6350 -0.1869
  100OSM    H7F10075   4.018   3.437   9.708  2.1574  2.4565 -1.8446
  100OSM    H7G10076   4.030   3.427   9.540  0.0622 -1.3766 -0.4571
  100OSM    C8F10077   3.897   3.278   9.635  0.1558 -0.3231 -0.4212
  100OSM    H8F10078   3.830   3.263   9.723 -1.0552  0.6941 -1.1467
  100OSM    H8G10079   3.986   3.215   9.658  2.0658  1.4974 -2.4218
  100OSM    C9F10080   3.826   3.230   9.509 -0.0542 -0.4013 -0.3276
  100OSM    H9F10081   3.718   3.246   9.502  0.0129 -0.7629 -4.1309
  100OSM   C10F10082   3.886   3.159   9.414  0.0095 -0.3481 -0.1920
  100OSM   H10F10083   3.825   3.119   9.332  0.6686 -0.2163 -0.7542
  100OSM   C11F10084   4.024   3.115   9.417 -0.4847  0.6324  0.1440
  100OSM   H11F10085   4.034   3.047   9.504  1.8503  2.5372  1.4970
  100OSM   H11G10086   4.088   3.205   9.430 -0.7652  0.6558  1.5010
  100OSM   C12F10087   4.058   3.028   9.295  0.2365  0.0688  0.0191
  100OSM   H12F10088   3.988   2.945   9.277 -1.3134  1.1024  1.0274
  100OSM   H12G10089   4.162   2.993   9.314  0.1571 -0.0970  0.1502
  100OSM   C13F10090   4.063   3.112   9.169  0.8691 -0.4252  0.1199
  100OSM   H13F10091   4.124   3.202   9.193 -1.1357  0.0620  4.1614
  100OSM   H13G10092   3.969   3.168   9.149  1.7418  0.8155 -0.7141
  100OSM   C14F10093   4.117   3.036   9.042 -0.2189 -0.0034  0.5702
  100OSM   H14F10094   4.065   2.938   9.038  0.3881 -0.3020 -1.9578
  100OSM   H14G10095   4.227   3.018   9.046 -0.2150 -0.0622  0.2452
  100OSM   C15F10096   4.086   3.110   8.909  0.0129 -0.0598 -0.1774
  100OSM   H15F10097   3.977   3.123   8.890  0.3277  0.4451 -1.7432
  100OSM   H15G10098   4.125   3.051   8.824 -1.0619  1.4641 -1.7995
  100OSM   C16F10099   4.140   3.256   8.899 -0.2295 -0.0276  0.4083
  100OSM   H16F10100   4.104   3.310   8.989 -0.6736 -0.1519  0.3081
  100OSM   H16G10101   4.109   3.321   8.814 -1.0361 -1.1505 -0.1841
  100OSM   C17F10102   4.291   3.261   8.899  0.1457 -0.0536  0.5277
  100OSM   H17F10103   4.324   3.238   8.795 -1.4165  1.9151 -0.4901
  100OSM   H17G10104   4.319   3.186   8.975 -3.6226 -1.5260  0.7080
  100OSM   C18F10105   4.336   3.403   8.929  0.1317 -0.0412  0.2592
  100OSM   H18F10106   4.446   3.412   8.944  0.0403  0.9303  0.4068
  100OSM   H18G10107   4.301   3.433   9.030  2.1268  2.1014  0.3929
  100OSM   H18H10108   4.307   3.473   8.848  1.5714  2.5595  1.8400
  101OSM      N10109   0.527   2.315  10.979 -0.1487  0.7864  0.0190
  101OSM    C1510110   0.621   2.413  10.917 -0.0213 -0.4341  0.5716
  101OSM   H15A10111   0.575   2.506  10.890  0.8791 -0.0493  0.3121
  101OSM   H15B10112   0.675   2.378  10.830  0.3098 -0.8678  0.9455
  101OSM   H15C10113   0.701   2.428  10.988  0.2497 -0.0870  0.1929
  101OSM    C1410114   0.597   2.184  10.982 -0.3346  0.3459  0.1172
  101OSM   H14A10115   0.545   2.103  11.032  0.9386 -0.6548 -0.1017
  101OSM   H14B10116   0.692   2.195  11.033  0.2570 -1.0920 -0.6127
  101OSM   H14C10117   0.612   2.165  10.877  2.2804 -0.6531  0.5936
  101OSM    C1310118   0.497   2.355  11.113 -0.1348 -0.4117 -0.8379
  101OSM   H13A10119   0.593   2.375  11.159 -0.8998  1.9373 -0.1220
  101OSM   H13B10120   0.454   2.271  11.164  0.5815 -0.5288 -0.4048
  101OSM   H13C10121   0.441   2.446  11.129 -1.6517 -1.6291  1.1850
  101OSM    C1210122   0.397   2.316  10.905  0.4444 -0.6128 -0.0607
  101OSM   H12A10123   0.375   2.416  10.871  1.5453 -0.0580  0.7809
  101OSM   H12B10124   0.313   2.282  10.964 -0.3835 -2.7812 -2.3009
  101OSM    C1110125   0.397   2.224  10.779  0.0250 -0.3168  0.1863
  101OSM   H11A10126   0.494   2.238  10.728 -0.8004  2.0203 -0.8565
  101OSM   H11B10127   0.322   2.274  10.714  1.0093 -0.5201 -1.1445
  101OSM      P10128   0.239   2.009  10.842  0.1112 -0.0127  0.0399
  101OSM    O1310129   0.269   1.879  10.908  0.3610  0.1968  0.2708
  101OSM    O1410130   0.138   2.088  10.912 -0.2583 -0.0562 -0.1072
  101OSM    O1110131   0.179   1.993  10.696 -0.3750  0.1719 -0.1899
  101OSM    O1210132   0.373   2.087  10.813  0.1060 -0.2305 -0.6836
  101OSM    C1S10133   0.258   1.918  10.605  0.2269 -0.1146 -0.6436
  101OSM    H1S10134   0.257   1.812  10.639  2.3450  0.3465  1.0820
  101OSM    H1T10135   0.363   1.948  10.584 -0.2069  0.8192 -1.6086
  101OSM     NF10136   0.297   1.875  10.365 -0.2453 -0.2138 -0.6147
  101OSM    HNF10137   0.383   1.912  10.329 -1.3580  1.2123 -1.9564
  101OSM    C2S10138   0.210   1.955  10.458  0.6233 -0.4503  1.1292
  101OSM    H2S10139   0.103   1.926  10.453  0.0663  1.6805 -1.0941
  101OSM    C3S10140   0.213   2.109  10.424  0.1474 -0.0166 -0.0462
  101OSM    H3S10141   0.320   2.138  10.415  0.8017 -2.1162  0.4717
  101OSM     O310142   0.148   2.199  10.513 -0.0910  0.5952  0.5060
  101OSM    HO310143   0.109   2.139  10.577  0.0008 -2.7871 -2.3009
  101OSM    C4S10144   0.140   2.123  10.295  0.1090 -0.1204  0.0362
  101OSM    H4S10145   0.037   2.087  10.307 -0.2492  1.0828  0.6730
  101OSM    C5S10146   0.181   2.189  10.183  0.1833  0.4676 -0.2071
  101OSM    H5S10147   0.278   2.240  10.194  0.1368  0.1884  2.0335
  101OSM    C6S10148   0.115   2.215  10.051  0.1315  0.2585  0.3345
  101OSM    H6S10149   0.070   2.316  10.043 -2.3210 -0.8113 -0.5792
  101OSM    H6T10150   0.029   2.148  10.028 -0.2485  0.4718  1.1158
  101OSM    C7S10151   0.226   2.182   9.948 -0.7013  0.0937 -0.3716
  101OSM    H7S10152   0.186   2.201   9.846  2.7161  2.0479 -1.5011
  101OSM    H7T10153   0.240   2.072   9.952 -1.4304  0.0174  0.1183
  101OSM    C8S10154   0.354   2.265   9.948 -0.2233  0.0928 -0.4441
  101OSM    H8S10155   0.411   2.244   9.855  0.4000 -0.1692 -0.0134
  101OSM    H8T10156   0.429   2.239  10.026 -0.5488  0.7598  0.1072
  101OSM    C9S10157   0.334   2.422   9.951  0.6843 -0.2528  0.5857
  101OSM    H9S10158   0.430   2.464   9.989  0.3993 -1.1157  2.3707
  101OSM    H9T10159   0.253   2.455  10.019  0.5752 -0.6385  0.6486
  101OSM   C10S10160   0.322   2.480   9.808  0.0944 -0.4117  0.6446
  101OSM   H10S10161   0.235   2.447   9.747 -0.3359  3.0350 -0.8252
  101OSM   H10T10162   0.418   2.445   9.764  0.4026 -1.6308  2.1729
  101OSM   C11S10163   0.324   2.633   9.806  0.5668  0.3847 -0.2004
  101OSM   H11S10164   0.411   2.675   9.862  0.9377  0.9347 -1.1590
  101OSM   H11T10165   0.234   2.679   9.852 -0.2424  0.1016 -1.4433
  101OSM   C12S10166   0.325   2.692   9.666  0.0417 -0.8585  0.4839
  101OSM   H12S10167   0.397   2.636   9.603  0.4014  0.3722 -0.2511
  101OSM   H12T10168   0.361   2.798   9.668  1.3966 -1.2455 -1.1132
  101OSM   C13S10169   0.190   2.704   9.593  0.1884  0.1972 -0.3824
  101OSM   H13S10170   0.148   2.602   9.582  1.8676 -0.3825 -1.9632
  101OSM   H13T10171   0.205   2.738   9.488 -1.9793  1.2704 -0.3881
  101OSM   C14S10172   0.073   2.778   9.664  0.1197  0.8061 -0.3524
  101OSM   H14S10173   0.109   2.878   9.698  1.3125  0.2476  0.0889
  101OSM   H14T10174   0.054   2.711   9.750 -0.7308 -1.0913 -1.9334
  101OSM   C15S10175  -0.059   2.794   9.591  0.0947 -0.0598 -0.1882
  101OSM   H15S10176  -0.141   2.849   9.642  0.4268  0.9218 -0.6867
  101OSM   H15T10177  -0.105   2.700   9.551  0.3777  0.9429 -3.1542
  101OSM   C16S10178  -0.034   2.878   9.467 -0.7855  0.2135  0.8316
  101OSM   H16S10179   0.027   2.831   9.387 -0.9191  3.1186 -1.1288
  101OSM   H16T10180   0.024   2.969   9.493 -0.2795  0.4748 -1.1180
  101OSM   C17S10181  -0.153   2.931   9.394  0.3892 -0.2360  0.0099
  101OSM   H17S10182  -0.210   2.998   9.462  0.6596 -0.5858  0.5922
  101OSM   H17T10183  -0.206   2.837   9.370  2.2950 -1.4090  0.1639
  101OSM   C18S10184  -0.117   3.011   9.263  1.0472  0.3075 -0.8561
  101OSM   H18S10185  -0.009   3.026   9.245  0.5503  1.5693 -3.2941
  101OSM   H18T10186  -0.178   3.104   9.266 -0.2251 -0.4823 -1.0051
  101OSM   H18U10187  -0.164   2.964   9.174 -1.4611 -1.1818  1.0908
  101OSM    C1F10188   0.279   1.743  10.346 -0.6178 -0.3407 -0.0425
  101OSM     OF10189   0.179   1.687  10.380 -0.3634  0.2741 -0.0564
  101OSM    C2F10190   0.392   1.664  10.285  0.4833 -0.1222 -0.6158
  101OSM    H2F10191   0.396   1.577  10.354 -0.1977  0.7548  0.5702
  101OSM    H2G10192   0.485   1.720  10.308 -0.1568  0.7763 -0.1566
  101OSM    C3F10193   0.381   1.633  10.131  0.0267 -0.7341  0.2517
  101OSM    H3F10194   0.297   1.562  10.118  1.4953 -2.4157 -0.5067
  101OSM    H3G10195   0.475   1.576  10.114 -0.0722 -0.8354  0.0443
  101OSM    C4F10196   0.377   1.761  10.042  0.7794 -0.2502  0.1242
  101OSM    H4F10197   0.459   1.834  10.057  0.4334  0.4437 -1.2309
  101OSM    H4G10198   0.282   1.815  10.065  0.2859 -0.6424 -0.8958
  101OSM    C5F10199   0.359   1.723   9.896 -0.0585 -0.4096 -0.6400
  101OSM    H5F10200   0.275   1.651   9.882 -0.4961  0.3904 -2.3923
  101OSM    H5G10201   0.445   1.660   9.866 -0.7393 -2.2111  0.9544
  101OSM    C6F10202   0.347   1.842   9.803  0.0615  0.4377 -0.1555
  101OSM    H6F10203   0.248   1.891   9.815  0.3935  0.9593  0.5351
  101OSM    H6G10204   0.422   1.916   9.838  0.1857  0.2110  0.0613
  101OSM    C7F10205   0.349   1.812   9.648  0.2795 -0.2147  0.5610
  101OSM    H7F10206   0.272   1.734   9.627  0.8294 -0.2297 -1.5187
  101OSM    H7G10207   0.447   1.764   9.625  0.3301  0.1114  0.1027
  101OSM    C8F10208   0.342   1.937   9.556  0.3192  0.0373  0.0064
  101OSM    H8F10209   0.433   1.995   9.579  1.1366 -1.5100  0.8426
  101OSM    H8G10210   0.255   1.984   9.608  0.1390 -0.9806  0.6663
  101OSM    C9F10211   0.334   1.915   9.409 -0.2158 -0.5406  0.1412
  101OSM    H9F10212   0.362   1.815   9.373 -0.5997 -1.2238  1.6741
  101OSM   C10F10213   0.266   1.997   9.321  0.3009 -0.4824 -0.4210
  101OSM   H10F10214   0.252   1.972   9.214 -0.8920 -0.8351 -0.1966
  101OSM   C11F10215   0.207   2.131   9.366 -0.3365  0.4793 -0.1484
  101OSM   H11F10216   0.187   2.136   9.475  0.9140 -0.5214  0.1451
  101OSM   H11G10217   0.106   2.137   9.320 -1.2844 -1.4163  1.5359
  101OSM   C12F10218   0.304   2.243   9.328  0.0267 -0.4578 -0.3538
  101OSM   H12F10219   0.345   2.220   9.227  0.8194 -3.7223  0.6129
  101OSM   H12G10220   0.389   2.226   9.397 -1.6234  1.1177  2.2066
  101OSM   C13F10221   0.246   2.384   9.337  0.6716 -0.2808 -0.4048
  101OSM   H13F10222   0.233   2.399   9.446  0.7595  2.3718 -0.6986
  101OSM   H13G10223   0.146   2.383   9.288  1.1319  2.6800 -1.5936
  101OSM   C14F10224   0.340   2.494   9.267 -0.0644 -0.2294 -0.3257
  101OSM   H14F10225   0.389   2.443   9.182 -1.3074 -3.2870  0.6609
  101OSM   H14G10226   0.419   2.530   9.336 -0.3385 -1.9639  0.9610
  101OSM   C15F10227   0.258   2.610   9.202 -0.9278 -0.1955  0.1194
  101OSM   H15F10228   0.246   2.692   9.276 -1.9564 -1.1722  1.0568
  101OSM   H15G10229   0.155   2.575   9.181 -1.0137  0.1206 -0.0021
  101OSM   C16F10230   0.319   2.658   9.065  0.3167 -0.1867 -0.5431
  101OSM   H16F10231   0.254   2.732   9.013 -1.6005 -2.6001 -1.7652
  101OSM   H16G10232   0.313   2.574   8.994  0.8243 -1.2842  0.6700
  101OSM   C17F10233   0.457   2.727   9.075  0.1975  0.2071 -0.0575
  101OSM   H17F10234   0.519   2.674   9.150  4.3316  2.8832 -1.2660
  101OSM   H17G10235   0.457   2.833   9.107  1.0110  0.2620 -0.2072
  101OSM   C18F10236   0.539   2.714   8.946 -0.4595  0.0363  0.2150
  101OSM   H18F10237   0.471   2.749   8.866  1.1685 -0.1195 -1.2999
  101OSM   H18G10238   0.572   2.610   8.926  0.4059 -0.4022  3.3423
  101OSM   H18H10239   0.624   2.785   8.949  1.3929 -1.9157  5.7314
  102OSM      N10240   2.276   5.693  11.069  0.3510  0.2929  0.2443
  102OSM    C1510241   2.374   5.781  11.145  0.2606 -0.3060  0.5732
  102OSM   H15A10242   2.332   5.792  11.245 -0.4597 -1.9190  0.4765
  102OSM   H15B10243   2.388   5.877  11.097 -2.4404  0.1054  0.4481
  102OSM   H15C10244   2.467   5.727  11.151 -0.3182 -1.3642  0.2896
  102OSM    C1410245   2.272   5.556  11.126  0.1510  0.4387 -0.7203
  102OSM   H14A10246   2.194   5.542  11.200 -1.3625  0.8634 -2.1801
  102OSM   H14B10247   2.367   5.528  11.169 -0.1522 -3.3463 -2.1397
  102OSM   H14C10248   2.250   5.476  11.057  2.7833 -0.8765 -0.1768
  102OSM    C1310249   2.140   5.751  11.068  0.1236 -0.3827 -0.3880
  102OSM   H13A10250   2.096   5.766  11.166  2.3197 -0.1490  0.6067
  102OSM   H13B10251   2.067   5.687  11.020 -0.3015  0.5246 -0.9920
  102OSM   H13C10252   2.123   5.848  11.023 -1.0169 -1.2679 -1.9760
  102OSM    C1210253   2.325   5.673  10.924 -0.6859 -0.1844 -0.0294
  102OSM   H12A10254   2.430   5.651  10.922 -0.5549  0.4041  0.3198
  102OSM   H12B10255   2.328   5.772  10.881  1.8079  0.5186  1.6113
  102OSM    C1110256   2.251   5.575  10.834  0.6430 -0.6260  0.6034
  102OSM   H11A10257   2.265   5.579  10.724 -0.2894 -0.7735  0.4693
  102OSM   H11B10258   2.141   5.586  10.849  0.1402  1.0520 -3.0837
  102OSM      P10259   2.386   5.354  10.797 -0.2705  0.0144  0.3013
  102OSM    O1310260   2.520   5.409  10.837  0.3846  0.0942  0.2785
  102OSM    O1410261   2.367   5.213  10.838 -0.3789  0.1435  0.4485
  102OSM    O1110262   2.368   5.380  10.641  0.2192  0.3556 -0.4429
  102OSM    O1210263   2.275   5.437  10.871  0.3052 -0.1078  0.5453
  102OSM    C1S10264   2.244   5.323  10.596 -0.1265 -0.5795  0.8152
  102OSM    H1S10265   2.159   5.387  10.628  2.1387  3.6335 -0.7149
  102OSM    H1T10266   2.231   5.214  10.616 -3.3260 -0.2971  0.7859
  102OSM     NF10267   2.111   5.297  10.384  0.6593 -0.3593 -0.0317
  102OSM    HNF10268   2.116   5.209  10.337 -2.5160 -0.7531  0.1514
  102OSM    C2S10269   2.234   5.346  10.442 -0.0528 -1.1873 -0.7689
  102OSM    H2S10270   2.243   5.455  10.421  0.6301 -0.8193  1.2300
  102OSM    C3S10271   2.358   5.297  10.364 -0.2340  0.3961 -0.1601
  102OSM    H3S10272   2.361   5.187  10.382  3.2967  0.3907 -0.0799
  102OSM     O310273   2.484   5.339  10.421  0.7155 -0.2135  0.0180
  102OSM    HO310274   2.455   5.356  10.511  1.3997  0.1776  0.1642
  102OSM    C4S10275   2.350   5.338  10.220 -0.2307  0.4872 -0.2693
  102OSM    H4S10276   2.344   5.448  10.208 -2.2732  0.3360 -1.0282
  102OSM    C5S10277   2.336   5.252  10.113 -0.6476 -0.0726 -0.0070
  102OSM    H5S10278   2.348   5.143  10.123 -4.5975 -0.5586  0.8113
  102OSM    C6S10279   2.317   5.303   9.972 -0.8744 -0.0160  0.1016
  102OSM    H6S10280   2.403   5.272   9.909 -0.0384 -0.9520  1.6363
  102OSM    H6T10281   2.312   5.414   9.976 -1.8301 -0.0733  2.2936
  102OSM    C7S10282   2.202   5.241   9.887 -0.0798 -0.1954 -0.1726
  102OSM    H7S10283   2.116   5.214   9.951  1.8945 -1.0362  2.2911
  102OSM    H7T10284   2.248   5.157   9.829 -1.5984 -0.1890 -1.4729
  102OSM    C8S10285   2.159   5.354   9.789  0.0657 -0.0160 -0.3301
  102OSM    H8S10286   2.249   5.381   9.730 -1.5166  2.2134 -1.9014
  102OSM    H8T10287   2.110   5.442   9.835 -1.1221 -0.7384 -0.1634
  102OSM    C9S10288   2.058   5.295   9.693 -1.0275 -0.6937  0.1198
  102OSM    H9S10289   1.972   5.259   9.754 -1.1859  0.9604  0.9314
  102OSM    H9T10290   2.118   5.214   9.646  0.5672 -0.1514  1.1336
  102OSM   C10S10291   2.010   5.396   9.588 -0.8151  0.1195  0.0123
  102OSM   H10S10292   2.101   5.424   9.531 -0.1576  0.0836  1.0143
  102OSM   H10T10293   1.978   5.487   9.643  1.0196 -0.4160  2.0968
  102OSM   C11S10294   1.916   5.340   9.479  0.2169 -0.2227  0.1905
  102OSM   H11S10295   1.826   5.293   9.522 -0.5535  1.6194  0.6969
  102OSM   H11T10296   1.965   5.255   9.427 -2.0053 -2.7457  1.9691
  102OSM   C12S10297   1.863   5.457   9.388  0.0539  1.0219 -0.1842
  102OSM   H12S10298   1.945   5.528   9.363  0.0097  0.5784 -1.7094
  102OSM   H12T10299   1.777   5.509   9.435 -2.8901 -3.5307  0.1044
  102OSM   C13S10300   1.815   5.402   9.245 -0.2701  0.2809 -1.2294
  102OSM   H13S10301   1.728   5.337   9.267 -0.1364  0.7693  1.0279
  102OSM   H13T10302   1.898   5.345   9.198 -1.7953 -1.8542 -1.4910
  102OSM   C14S10303   1.774   5.532   9.154  0.4508  0.3971  0.2652
  102OSM   H14S10304   1.875   5.566   9.122 -0.2012  0.2630 -2.0735
  102OSM   H14T10305   1.718   5.607   9.215  0.4080  0.8237 -0.2923
  102OSM   C15S10306   1.704   5.497   9.024  0.1850  0.5468  0.1022
  102OSM   H15S10307   1.656   5.593   8.992  0.1592  0.3040 -0.6070
  102OSM   H15T10308   1.625   5.422   9.045  0.9105  0.0968  1.2857
  102OSM   C16S10309   1.797   5.477   8.906 -1.1180  0.8605  0.4983
  102OSM   H16S10310   1.848   5.380   8.923 -0.6956  0.6230 -1.8248
  102OSM   H16T10311   1.867   5.562   8.899 -3.1300  2.5458 -0.5632
  102OSM   C17S10312   1.710   5.471   8.772 -0.5455 -0.2128 -0.1980
  102OSM   H17S10313   1.666   5.570   8.749  0.7174  0.7303  1.2840
  102OSM   H17T10314   1.621   5.406   8.789 -0.7449  0.1787  0.2811
  102OSM   C18S10315   1.777   5.420   8.647  0.2578 -0.1456 -0.0704
  102OSM   H18S10316   1.848   5.494   8.602 -1.1185  0.4607 -1.3375
  102OSM   H18T10317   1.693   5.402   8.576 -0.3361  0.4124  0.4819
  102OSM   H18U10318   1.826   5.326   8.679 -0.1278  0.4800  2.5469
  102OSM    C1F10319   1.995   5.361  10.404 -0.2803 -0.3818  0.3723
  102OSM     OF10320   1.984   5.453  10.484  0.0166  0.4794  0.7358
  102OSM    C2F10321   1.872   5.310  10.314  0.2653  0.0042 -0.6670
  102OSM    H2F10322   1.814   5.254  10.390  1.4607 -0.4525 -0.0694
  102OSM    H2G10323   1.913   5.244  10.235 -1.2600 -1.7805 -0.0287
  102OSM    C3F10324   1.781   5.425  10.258 -0.2168 -0.0126  0.8996
  102OSM    H3F10325   1.840   5.511  10.219  0.2024  0.6423  2.8390
  102OSM    H3G10326   1.721   5.471  10.340 -0.5634  0.6883  0.2643
  102OSM    C4F10327   1.677   5.382  10.161  0.3166  0.0990 -0.1206
  102OSM    H4F10328   1.615   5.474  10.148 -0.7501 -0.4854  0.7097
  102OSM    H4G10329   1.609   5.308  10.206  1.3428 -0.3924  0.6716
  102OSM    C5F10330   1.724   5.339  10.027  0.6124  0.2589 -0.0065
  102OSM    H5F10331   1.783   5.245  10.033  3.9025  2.1289 -0.4724
  102OSM    H5G10332   1.790   5.409   9.972  0.1243  0.4937 -0.2915
  102OSM    C6F10333   1.613   5.341   9.928  0.0435 -0.2244  0.8722
  102OSM    H6F10334   1.561   5.438   9.936  0.7409  0.0468  2.9609
  102OSM    H6G10335   1.542   5.259   9.953 -0.9554  0.2703 -0.2610
  102OSM    C7F10336   1.651   5.333   9.778  0.7092 -0.0421 -0.3228
  102OSM    H7F10337   1.717   5.248   9.751  1.7432  0.8519 -0.6875
  102OSM    H7G10338   1.705   5.428   9.758  0.1053  0.8763  2.0876
  102OSM    C8F10339   1.525   5.328   9.689  0.4717 -0.3573 -0.2582
  102OSM    H8F10340   1.566   5.360   9.590 -0.0922 -0.8538 -0.6619
  102OSM    H8G10341   1.442   5.385   9.735  0.6406 -0.5837  0.3274
  102OSM    C9F10342   1.471   5.189   9.665 -0.0446 -0.2651 -0.3101
  102OSM    H9F10343   1.450   5.131   9.756 -2.4613 -0.0829 -0.6930
  102OSM   C10F10344   1.460   5.120   9.553 -0.1920 -0.1098  0.4130
  102OSM   H10F10345   1.406   5.025   9.560 -2.6658  1.0250 -1.6741
  102OSM   C11F10346   1.482   5.176   9.412  0.2135  0.0751 -0.3607
  102OSM   H11F10347   1.578   5.232   9.407  0.0753  0.4959  1.1658
  102OSM   H11G10348   1.398   5.242   9.383  1.4224  1.9007  0.1092
  102OSM   C12F10349   1.478   5.058   9.312  0.5478 -0.3638 -0.1378
  102OSM   H12F10350   1.382   5.004   9.303  0.4853 -0.1273 -0.9211
  102OSM   H12G10351   1.559   4.985   9.333 -0.8761 -2.2365 -0.8592
  102OSM   C13F10352   1.501   5.095   9.170 -0.9157  0.6400  0.1659
  102OSM   H13F10353   1.544   5.003   9.125  0.1783  0.1498  2.0839
  102OSM   H13G10354   1.585   5.167   9.168 -0.9722  0.8454  2.6915
  102OSM   C14F10355   1.360   5.125   9.104  0.0356  0.1221 -0.1948
  102OSM   H14F10356   1.312   5.211   9.155 -0.2945 -1.1970  1.8442
  102OSM   H14G10357   1.293   5.037   9.114 -0.2667  0.5038  1.5671
  102OSM   C15F10358   1.375   5.154   8.955  0.0661 -0.0745 -0.3754
  102OSM   H15F10359   1.466   5.213   8.930  0.3326 -0.3543 -0.0694
  102OSM   H15G10360   1.292   5.212   8.909  0.4912  0.1347 -0.8965
  102OSM   C16F10361   1.384   5.032   8.866  0.9684  0.0478 -0.5862
  102OSM   H16F10362   1.289   4.976   8.877  0.3008  0.7975 -2.1229
  102OSM   H16G10363   1.477   4.981   8.898  0.0124 -1.4394 -0.0850
  102OSM   C17F10364   1.383   5.054   8.716  0.4951  0.1773 -0.8668
  102OSM   H17F10365   1.284   5.097   8.689 -0.3531 -0.0439  1.6088
  102OSM   H17G10366   1.378   4.956   8.663 -1.3069  0.8409 -2.0269
  102OSM   C18F10367   1.489   5.144   8.660  0.2651  0.0296 -0.0377
  102OSM   H18F10368   1.585   5.090   8.675 -1.2041 -3.1945 -1.2701
  102OSM   H18G10369   1.481   5.249   8.698  0.0252  1.1558 -2.9556
  102OSM   H18H10370   1.484   5.160   8.550  0.8709  1.8250  0.1656
  103OSM      N10371   0.344   1.158  11.185  0.1177 -0.0264  0.2861
  103OSM    C1510372   0.474   1.111  11.217 -0.2411  0.3239  0.2891
  103OSM   H15A10373   0.531   1.094  11.127 -1.9623  0.2081 -0.8348
  103OSM   H15B10374   0.471   1.019  11.273  1.4404 -1.8521 -2.9125
  103OSM   H15C10375   0.527   1.187  11.272  2.7944 -0.2677 -1.6190
  103OSM    C1410376   0.250   1.142  11.304  0.1254 -0.3496 -0.3310
  103OSM   H14A10377   0.148   1.114  11.282  0.8723 -2.7131 -1.0797
  103OSM   H14B10378   0.258   1.222  11.376 -0.9710 -1.6390  1.3049
  103OSM   H14C10379   0.294   1.060  11.359  0.8994  0.0085 -0.4024
  103OSM    C1310380   0.350   1.305  11.141  0.1689  0.2755  0.4459
  103OSM   H13A10381   0.251   1.350  11.146 -1.1390 -2.3956  0.5963
  103OSM   H13B10382   0.390   1.318  11.042  0.8007 -1.6812  0.4018
  103OSM   H13C10383   0.409   1.360  11.212  0.1529  1.1986 -0.2448
  103OSM    C1210384   0.281   1.075  11.076 -0.2828  0.3006 -0.1101
  103OSM   H12A10385   0.183   1.119  11.064 -0.3644 -0.1537 -1.2545
  103OSM   H12B10386   0.276   0.970  11.101 -0.8988  0.1301 -0.8901
  103OSM    C1110387   0.339   1.071  10.928  0.6226  0.1347 -0.4408
  103OSM   H11A10388   0.364   1.170  10.884 -1.6720  0.4990 -1.0634
  103OSM   H11B10389   0.256   1.021  10.873  0.2286  0.8982 -0.5525
  103OSM      P10390   0.445   0.832  10.932 -0.0509  0.2952  0.1846
  103OSM    O1310391   0.579   0.769  10.905 -0.2856 -0.1547 -0.1694
  103OSM    O1410392   0.367   0.793  11.052 -0.3546  0.1575 -0.1296
  103OSM    O1110393   0.359   0.786  10.810  0.0986 -0.3293  0.6386
  103OSM    O1210394   0.449   0.992  10.922  0.0302  0.5441 -0.2330
  103OSM    C1S10395   0.398   0.825  10.673 -0.2557 -0.4498  0.2139
  103OSM    H1S10396   0.494   0.880  10.666  0.0123 -0.8702  0.5337
  103OSM    H1T10397   0.312   0.882  10.633 -0.2552 -0.3933  0.2953
  103OSM     NF10398   0.455   0.729  10.432  0.4780 -0.3390 -0.5000
  103OSM    HNF10399   0.389   0.765  10.367  0.2544  1.1236  0.4658
  103OSM    C2S10400   0.415   0.698  10.574  1.0022 -0.2308  0.0554
  103OSM    H2S10401   0.494   0.633  10.617  0.0456 -1.9227 -0.6286
  103OSM    C3S10402   0.284   0.614  10.587 -0.0532 -0.0161 -0.0527
  103OSM    H3S10403   0.195   0.671  10.553 -2.7616 -1.7997  3.4094
  103OSM     O310404   0.245   0.571  10.720  0.1794  0.3899 -0.4605
  103OSM    HO310405   0.275   0.637  10.782  1.1755  1.0167 -1.5803
  103OSM    C4S10406   0.297   0.495  10.497  0.8567  0.4744 -0.2336
  103OSM    H4S10407   0.222   0.492  10.416  1.6996 -1.6028 -1.0212
  103OSM    C5S10408   0.367   0.383  10.511 -0.4277 -0.6371  0.8949
  103OSM    H5S10409   0.435   0.369  10.597 -0.5016 -3.8581  0.5673
  103OSM    C6S10410   0.363   0.264  10.409  0.1083 -0.0007 -0.6028
  103OSM    H6S10411   0.333   0.174  10.467 -0.6069  0.5878 -0.0378
  103OSM    H6T10412   0.469   0.253  10.378  0.9080 -1.6546  2.3352
  103OSM    C7S10413   0.277   0.289  10.279  0.6789 -0.0795  0.2063
  103OSM    H7S10414   0.307   0.392  10.251  1.8230 -0.4522 -0.0016
  103OSM    H7T10415   0.171   0.287  10.313  0.1737  1.7533 -1.1318
  103OSM    C8S10416   0.291   0.179  10.171 -0.1800 -0.7332  0.7769
  103OSM    H8S10417   0.272   0.080  10.217 -1.6487 -0.4184  0.8868
  103OSM    H8T10418   0.397   0.170  10.140 -0.7396 -1.1449 -1.1546
  103OSM    C9S10419   0.213   0.215  10.038 -0.5994  0.7387 -0.5843
  103OSM    H9S10420   0.106   0.235  10.059 -0.3731 -0.1202  1.6101
  103OSM    H9T10421   0.220   0.123   9.976  3.2879 -0.7723  1.7118
  103OSM   C10S10422   0.274   0.337   9.961 -0.0996  0.5772 -0.1671
  103OSM   H10S10423   0.381   0.313   9.945  0.0480  1.3772 -0.4229
  103OSM   H10T10424   0.257   0.425  10.028 -2.1173  0.0762  0.0655
  103OSM   C11S10425   0.195   0.377   9.838  0.4669 -0.5925  0.4315
  103OSM   H11S10426   0.243   0.464   9.789 -1.2603  0.9685  1.3968
  103OSM   H11T10427   0.094   0.416   9.861 -0.3801 -2.2048 -0.3942
  103OSM   C12S10428   0.171   0.257   9.740 -0.5126 -0.6048  0.2938
  103OSM   H12S10429   0.108   0.176   9.782 -1.1438 -0.8033 -1.0008
  103OSM   H12T10430   0.268   0.212   9.709 -0.5749 -0.9612  0.6147
  103OSM   C13S10431   0.108   0.312   9.614 -0.5341  0.4826  0.3895
  103OSM   H13S10432   0.175   0.391   9.574  2.1780 -1.7858  0.1517
  103OSM   H13T10433   0.003   0.348   9.616 -1.3313 -1.6287 -0.5329
  103OSM   C14S10434   0.107   0.211   9.497 -0.6849 -0.0008  0.4841
  103OSM   H14S10435   0.027   0.136   9.515 -0.7663  0.0217  0.2179
  103OSM   H14T10436   0.203   0.155   9.506 -1.3034 -1.4821 -1.4697
  103OSM   C15S10437   0.104   0.273   9.361 -0.2009  0.0377 -0.0597
  103OSM   H15S10438   0.197   0.331   9.343 -0.8947  0.6273 -2.0669
  103OSM   H15T10439   0.020   0.346   9.355 -0.2011 -0.0577 -1.7412
  103OSM   C16S10440   0.107   0.169   9.240 -0.1219 -0.4991  0.0452
  103OSM   H16S10441   0.016   0.111   9.265  0.0251 -1.0437 -0.6625
  103OSM   H16T10442   0.193   0.100   9.253  0.0088 -0.1911  0.8942
  103OSM   C17S10443   0.107   0.235   9.099  0.4449 -0.0752 -0.2597
  103OSM   H17S10444   0.212   0.259   9.071 -0.5379  1.5775 -2.9772
  103OSM   H17T10445   0.048   0.328   9.117 -1.2634 -1.0727 -0.4709
  103OSM   C18S10446   0.041   0.157   8.991 -0.3300  0.2454 -0.1903
  103OSM   H18S10447   0.019   0.220   8.902 -0.7997  0.8277  0.3285
  103OSM   H18T10448  -0.060   0.126   9.025 -1.1660  4.4977  1.7692
  103OSM   H18U10449   0.104   0.070   8.964 -0.0104  0.5919 -0.5701
  103OSM    C1F10450   0.585   0.742  10.399 -1.0635 -0.4703 -0.6275
  103OSM     OF10451   0.670   0.731  10.490  0.5013  0.7894  0.0189
  103OSM    C2F10452   0.613   0.785  10.256 -0.2108 -0.7249  0.2213
  103OSM    H2F10453   0.671   0.879  10.265 -0.2579 -0.9271  3.6935
  103OSM    H2G10454   0.526   0.802  10.188  1.3844  2.0402 -1.3274
  103OSM    C3F10455   0.715   0.685  10.186  0.1724 -0.4553  0.2534
  103OSM    H3F10456   0.817   0.695  10.230  0.1680  1.2353 -0.0735
  103OSM    H3G10457   0.735   0.731  10.087  1.7685 -1.4236  0.0743
  103OSM    C4F10458   0.678   0.539  10.176 -0.3439 -0.0509 -0.3654
  103OSM    H4F10459   0.674   0.492  10.276  0.2065  0.7633  0.0496
  103OSM    H4G10460   0.760   0.478  10.131 -0.5013 -0.3804 -0.2069
  103OSM    C5F10461   0.549   0.506  10.093 -0.0380  0.4727  0.5496
  103OSM    H5F10462   0.476   0.584  10.121 -0.0792  0.8500 -0.5751
  103OSM    H5G10463   0.502   0.408  10.119 -1.9469  1.4843  1.0908
  103OSM    C6F10464   0.572   0.525   9.945  0.1009 -0.0288  0.2193
  103OSM    H6F10465   0.614   0.626   9.927 -0.3314  0.6058  2.4340
  103OSM    H6G10466   0.475   0.528   9.891  0.0049  1.9085  0.4328
  103OSM    C7F10467   0.667   0.422   9.882  0.3416 -1.1883  0.3143
  103OSM    H7F10468   0.644   0.319   9.916 -1.4412 -0.6384  0.8497
  103OSM    H7G10469   0.772   0.437   9.915  0.6964 -1.7019 -0.5264
  103OSM    C8F10470   0.672   0.421   9.731  0.3722  0.1688 -0.6916
  103OSM    H8F10471   0.753   0.351   9.701 -1.6116 -1.6807 -2.0859
  103OSM    H8G10472   0.692   0.523   9.693 -1.2560  0.7611 -0.0433
  103OSM    C9F10473   0.538   0.369   9.680 -0.9461 -0.5670  0.5046
  103OSM    H9F10474   0.461   0.336   9.751 -0.2990  3.4499  3.4223
  103OSM   C10F10475   0.512   0.384   9.549  0.7736 -0.0318 -1.4804
  103OSM   H10F10476   0.415   0.347   9.514  0.9310 -0.7988 -1.1341
  103OSM   C11F10477   0.602   0.443   9.445 -0.0993 -0.1579 -0.5098
  103OSM   H11F10478   0.711   0.429   9.454 -0.1229 -0.1066 -0.1365
  103OSM   H11G10479   0.591   0.553   9.451 -0.4992 -0.1631 -1.0163
  103OSM   C12F10480   0.554   0.410   9.306 -0.7520 -0.4835  0.3789
  103OSM   H12F10481   0.451   0.452   9.297 -1.2115 -1.3443  1.5282
  103OSM   H12G10482   0.548   0.301   9.288 -0.8230 -0.6974  1.6495
  103OSM   C13F10483   0.636   0.470   9.194 -0.1135 -0.0297 -0.4163
  103OSM   H13F10484   0.739   0.445   9.226 -1.3866 -2.1513  2.5011
  103OSM   H13G10485   0.646   0.581   9.201 -0.2859  0.0076 -0.7119
  103OSM   C14F10486   0.600   0.414   9.058  0.8372 -0.5648 -0.2965
  103OSM   H14F10487   0.573   0.307   9.069  0.2598 -0.2799  1.3451
  103OSM   H14G10488   0.683   0.423   8.985  1.1541 -0.8015  0.0307
  103OSM   C15F10489   0.482   0.493   8.987  0.1789  0.3034  0.1235
  103OSM   H15F10490   0.499   0.602   8.981 -0.4377  0.3574 -1.1027
  103OSM   H15G10491   0.389   0.486   9.047  0.6462 -1.1953  0.7200
  103OSM   C16F10492   0.461   0.432   8.845  0.0630 -0.1129  0.2257
  103OSM   H16F10493   0.445   0.323   8.858  1.9648 -0.6316 -1.4511
  103OSM   H16G10494   0.549   0.434   8.778  0.7378 -2.5346  0.9439
  103OSM   C17F10495   0.350   0.491   8.770 -0.2203  0.2763 -0.3861
  103OSM   H17F10496   0.374   0.597   8.745 -0.0158  0.2807 -0.1721
  103OSM   H17G10497   0.263   0.496   8.840 -1.1427 -1.2021 -1.3664
  103OSM   C18F10498   0.310   0.409   8.653 -0.3389 -0.0507 -0.1289
  103OSM   H18F10499   0.396   0.355   8.608 -0.7931  0.5328 -1.7962
  103OSM   H18G10500   0.261   0.474   8.577 -2.0030  0.4142  1.2604
  103OSM   H18H10501   0.236   0.331   8.680  0.6243 -0.7510  0.5429
  104OSM      N10502   1.369   1.841  10.821  0.1994  0.0521  0.2103
  104OSM    C1510503   1.440   1.862  10.948  0.3270 -0.3101 -0.5331
  104OSM   H15A10504   1.372   1.849  11.031  1.1722 -1.0518  0.0572
  104OSM   H15B10505   1.473   1.964  10.951  0.1396 -0.2253 -1.2099
  104OSM   H15C10506   1.524   1.796  10.962  2.4166  1.9977 -1.5721
  104OSM    C1410507   1.272   1.949  10.801 -0.3214 -0.0523  0.0654
  104OSM   H14A10508   1.318   2.044  10.824 -1.1785  0.0674  1.4330
  104OSM   H14B10509   1.192   1.934  10.873 -1.4696 -1.3604 -1.4327
  104OSM   H14C10510   1.243   1.964  10.698  1.4886 -1.6463 -0.7325
  104OSM    C1310511   1.474   1.844  10.707  0.1434  0.0438 -0.4740
  104OSM   H13A10512   1.537   1.931  10.697  0.0238  0.8471  4.0102
  104OSM   H13B10513   1.429   1.806  10.616 -0.6635  1.9288 -0.9105
  104OSM   H13C10514   1.534   1.758  10.732  1.7655  1.3168  0.1591
  104OSM    C1210515   1.299   1.702  10.821  0.3076  0.2787 -0.3469
  104OSM   H12A10516   1.251   1.680  10.727 -0.4559 -1.2226  0.3649
  104OSM   H12B10517   1.215   1.718  10.888  0.6426  0.4657  0.0295
  104OSM    C1110518   1.387   1.588  10.876 -0.0998  0.7898  0.4364
  104OSM   H11A10519   1.322   1.498  10.884 -2.7174  2.4666 -0.6691
  104OSM   H11B10520   1.412   1.619  10.980 -1.3592  1.4023  0.5758
  104OSM      P10521   1.633   1.499  10.870 -0.1898  0.1488  0.5577
  104OSM    O1310522   1.739   1.604  10.868 -0.0983 -0.5117 -0.0034
  104OSM    O1410523   1.590   1.439  10.998 -0.2386 -0.1644 -0.3485
  104OSM    O1110524   1.664   1.375  10.764  0.3997 -0.7453 -0.3680
  104OSM    O1210525   1.501   1.563  10.799 -0.3595  0.5280  0.1012
  104OSM    C1S10526   1.593   1.341  10.649 -0.2701  0.5801 -0.3506
  104OSM    H1S10527   1.484   1.363  10.648  0.0456  2.4628  1.0959
  104OSM    H1T10528   1.601   1.231  10.638 -1.3501  0.0820  2.8691
  104OSM     NF10529   1.592   1.388  10.398  0.2728 -0.1194  0.2033
  104OSM    HNF10530   1.647   1.323  10.347  0.4833 -0.6872  1.1300
  104OSM    C2S10531   1.662   1.414  10.523  0.8113 -0.0937 -0.5052
  104OSM    H2S10532   1.649   1.524  10.532 -0.4945 -0.1905 -1.0107
  104OSM    C3S10533   1.810   1.386  10.509 -0.7241  0.7771  0.3089
  104OSM    H3S10534   1.828   1.284  10.469 -1.8326  0.4682  0.5566
  104OSM     O310535   1.869   1.386  10.632 -0.7478 -0.1875  0.2936
  104OSM    HO310536   1.800   1.413  10.693 -1.6178 -0.6772 -0.4499
  104OSM    C4S10537   1.879   1.494  10.416 -0.3537  0.1270 -0.8502
  104OSM    H4S10538   1.882   1.599  10.450  0.3710 -0.1438 -0.0132
  104OSM    C5S10539   1.947   1.462  10.302 -0.3831  0.8764 -0.1066
  104OSM    H5S10540   1.960   1.356  10.276 -1.4824  0.5545  0.6181
  104OSM    C6S10541   2.013   1.559  10.204  0.1778 -1.1204 -0.1891
  104OSM    H6S10542   2.026   1.662  10.245  1.3347  0.0677 -3.2018
  104OSM    H6T10543   1.950   1.557  10.112  1.0617 -0.3090 -0.8290
  104OSM    C7S10544   2.154   1.511  10.174  0.0860  0.7898  0.0520
  104OSM    H7S10545   2.161   1.406  10.210 -1.7605  1.2870  2.0669
  104OSM    H7T10546   2.230   1.557  10.240  1.4620 -2.6048  1.0660
  104OSM    C8S10547   2.190   1.548  10.024 -0.0039 -0.0625  0.0241
  104OSM    H8S10548   2.301   1.541  10.020  0.0842  1.4515 -0.4718
  104OSM    H8T10549   2.167   1.650   9.988 -3.2338  0.1454  2.2046
  104OSM    C9S10550   2.122   1.451   9.925 -0.3536 -0.3705  0.4012
  104OSM    H9S10551   2.014   1.472   9.934  0.0117  1.4181  1.0252
  104OSM    H9T10552   2.143   1.343   9.943 -0.2988 -0.4298 -0.0123
  104OSM   C10S10553   2.159   1.477   9.781 -0.1422  0.1654  0.2355
  104OSM   H10S10554   2.268   1.460   9.773 -0.2241  0.4807 -1.9967
  104OSM   H10T10555   2.140   1.584   9.760  0.0157 -0.1139 -1.4113
  104OSM   C11S10556   2.069   1.403   9.685  0.3579  0.1972  0.3309
  104OSM   H11S10557   1.965   1.441   9.697  0.5589  0.3774  1.6498
  104OSM   H11T10558   2.073   1.293   9.699 -0.2772  0.3246  1.6393
  104OSM   C12S10559   2.124   1.427   9.541  0.7716 -0.1502 -0.1899
  104OSM   H12S10560   2.230   1.393   9.532  1.2095  0.7944  1.1089
  104OSM   H12T10561   2.124   1.538   9.534  0.0369  0.1273  2.6674
  104OSM   C13S10562   2.029   1.369   9.433 -0.0759  0.6131 -0.1260
  104OSM   H13S10563   1.925   1.405   9.449  0.4109  2.3560 -0.6699
  104OSM   H13T10564   2.010   1.259   9.432  2.7766 -0.0065  1.9487
  104OSM   C14S10565   2.082   1.404   9.291  0.2865  1.0900 -0.1194
  104OSM   H14S10566   2.188   1.373   9.303 -0.0301 -1.2371 -2.5372
  104OSM   H14T10567   2.077   1.515   9.295  1.0349  1.1186  0.0118
  104OSM   C15S10568   2.007   1.336   9.181  0.0601  0.5551  0.4357
  104OSM   H15S10569   1.898   1.322   9.194 -0.1184 -0.3520 -1.7003
  104OSM   H15T10570   2.057   1.237   9.180  1.1520  1.0600 -1.5864
  104OSM   C16S10571   2.035   1.398   9.045 -0.5113 -0.8617 -0.5251
  104OSM   H16S10572   2.146   1.396   9.032 -0.7159 -1.3019 -2.4600
  104OSM   H16T10573   2.001   1.504   9.049 -1.6346 -1.2568  2.0573
  104OSM   C17S10574   1.962   1.347   8.925  0.2765  0.0143  0.0844
  104OSM   H17S10575   1.969   1.237   8.906  1.2218  0.2753 -1.3134
  104OSM   H17T10576   2.001   1.399   8.834 -0.2194  0.0739 -0.0946
  104OSM   C18S10577   1.807   1.370   8.912 -0.0251  0.0050  0.2495
  104OSM   H18S10578   1.774   1.342   8.810 -0.0384 -0.9935  0.5173
  104OSM   H18T10579   1.776   1.475   8.935  1.8778  0.4015  1.1347
  104OSM   H18U10580   1.756   1.310   8.990  0.1059 -0.1158  0.2417
  104OSM    C1F10581   1.462   1.419  10.368 -0.3776 -0.5418  0.4772
  104OSM     OF10582   1.384   1.467  10.453 -0.0849  0.3294  0.2686
  104OSM    C2F10583   1.409   1.385  10.223  0.4039  0.3487 -0.3024
  104OSM    H2F10584   1.359   1.286  10.230 -2.1636  1.3823 -2.4089
  104OSM    H2G10585   1.492   1.388  10.150 -0.1005  1.7717 -0.8686
  104OSM    C3F10586   1.302   1.488  10.170 -1.0761  0.6121 -0.0501
  104OSM    H3F10587   1.350   1.586  10.149 -0.6689  0.0706 -1.7736
  104OSM    H3G10588   1.216   1.503  10.240 -1.2118 -1.7909  0.3764
  104OSM    C4F10589   1.237   1.442  10.039 -0.3589 -0.0082  0.5247
  104OSM    H4F10590   1.156   1.513  10.010 -0.0485 -0.0689 -0.5538
  104OSM    H4G10591   1.216   1.333  10.038  1.2908 -0.3618 -1.1253
  104OSM    C5F10592   1.332   1.462   9.915  0.0464  0.0001  0.3196
  104OSM    H5F10593   1.418   1.392   9.908 -0.8053 -1.0182 -0.0518
  104OSM    H5G10594   1.376   1.564   9.923  1.6788 -0.6284 -0.2260
  104OSM    C6F10595   1.259   1.459   9.784 -0.3457 -0.2429 -0.1992
  104OSM    H6F10596   1.335   1.487   9.709  1.7501  0.2970  1.9983
  104OSM    H6G10597   1.183   1.541   9.786  0.0470  0.1995 -1.9536
  104OSM    C7F10598   1.198   1.328   9.737  0.5279  0.3230 -0.3577
  104OSM    H7F10599   1.118   1.347   9.663 -0.6150 -0.9148  0.5049
  104OSM    H7G10600   1.149   1.275   9.821  2.5754 -0.1263  0.6296
  104OSM    C8F10601   1.288   1.228   9.671  0.1549 -0.8131  0.7974
  104OSM    H8F10602   1.230   1.135   9.657  0.4925 -0.6154 -2.9062
  104OSM    H8G10603   1.372   1.216   9.743  1.2232  1.4118  0.0508
  104OSM    C9F10604   1.339   1.273   9.536  0.1836  0.3737 -0.4998
  104OSM    H9F10605   1.401   1.364   9.526 -2.1288  1.9591 -1.3719
  104OSM   C10F10606   1.311   1.212   9.416  0.2210 -0.2674  0.3792
  104OSM   H10F10607   1.353   1.255   9.324 -0.5081  1.8056  0.9566
  104OSM   C11F10608   1.225   1.095   9.392 -0.2856 -0.1725  0.3621
  104OSM   H11F10609   1.209   1.042   9.489  1.7664 -0.4198  0.5975
  104OSM   H11G10610   1.273   1.023   9.322  1.6776  0.7361  0.7331
  104OSM   C12F10611   1.084   1.141   9.336  0.5373  0.5443 -0.3918
  104OSM   H12F10612   1.011   1.076   9.390 -0.1468 -0.2677 -2.1842
  104OSM   H12G10613   1.085   1.104   9.232  1.7879 -1.1702  0.1962
  104OSM   C13F10614   1.047   1.288   9.346  0.1488 -0.6127 -0.0566
  104OSM   H13F10615   1.123   1.344   9.288  2.4820 -0.1752  3.1748
  104OSM   H13G10616   1.051   1.321   9.452  1.1877  0.3015 -0.3673
  104OSM   C14F10617   0.910   1.326   9.291 -0.5248 -0.2878  1.0658
  104OSM   H14F10618   0.919   1.285   9.188  1.6411 -0.5080  1.2964
  104OSM   H14G10619   0.909   1.436   9.275 -0.1520 -0.3111  0.8655
  104OSM   C15F10620   0.787   1.256   9.361 -1.1445  0.2500  0.0927
  104OSM   H15F10621   0.781   1.286   9.468 -1.2938 -2.2392  0.8353
  104OSM   H15G10622   0.805   1.151   9.331  0.1288  0.1899  1.0194
  104OSM   C16F10623   0.652   1.289   9.299  0.0088  0.4931 -0.0651
  104OSM   H16F10624   0.643   1.266   9.190 -2.7874  0.6595  0.0684
  104OSM   H16G10625   0.633   1.397   9.320 -3.2741 -0.3563  1.9514
  104OSM   C17F10626   0.554   1.208   9.385  0.4708 -0.6284  0.0765
  104OSM   H17F10627   0.581   1.221   9.492 -0.1224 -2.2153  0.4469
  104OSM   H17G10628   0.579   1.102   9.362  1.2184 -0.1208 -1.5574
  104OSM   C18F10629   0.398   1.214   9.367 -0.1078 -0.2980  0.3373
  104OSM   H18F10630   0.368   1.320   9.385  1.3184  0.1712  0.1021
  104OSM   H18G10631   0.330   1.147   9.423 -0.9007  2.1024  2.4822
  104OSM   H18H10632   0.378   1.196   9.260  0.5153 -0.7580  0.2885
  105OSM      N10633   0.445   4.214  11.033  0.9488 -0.1247 -0.0604
  105OSM    C1510634   0.430   4.350  11.093 -0.3536 -0.1687 -0.0962
  105OSM   H15A10635   0.485   4.429  11.044  0.6359  0.2278  1.5829
  105OSM   H15B10636   0.466   4.340  11.194  0.3221 -0.5422 -0.3578
  105OSM   H15C10637   0.326   4.378  11.091 -0.5238 -0.7947 -0.1145
  105OSM    C1410638   0.585   4.181  11.056  0.4936  0.2651  0.0124
  105OSM   H14A10639   0.608   4.164  11.160  0.4272 -3.5600 -0.4652
  105OSM   H14B10640   0.647   4.262  11.021 -0.3297  1.4717  1.2676
  105OSM   H14C10641   0.611   4.088  11.007  1.3948  0.2354  0.5165
  105OSM    C1310642   0.350   4.114  11.088  1.2997  0.3739  0.3171
  105OSM   H13A10643   0.353   4.019  11.038 -0.1671 -0.2957  1.4401
  105OSM   H13B10644   0.252   4.159  11.081  1.1347 -0.1244 -0.7536
  105OSM   H13C10645   0.375   4.095  11.191 -0.0834 -1.2329  0.4012
  105OSM    C1210646   0.415   4.221  10.885 -0.2228  0.0102  0.1755
  105OSM   H12A10647   0.482   4.293  10.839  1.2450 -1.3345  0.0956
  105OSM   H12B10648   0.312   4.254  10.880 -0.6549 -1.3694 -0.6951
  105OSM    C1110649   0.429   4.098  10.789  0.2858  0.0455 -0.1349
  105OSM   H11A10650   0.526   4.048  10.809 -0.5968 -2.3231 -1.3785
  105OSM   H11B10651   0.420   4.130  10.683  0.8343  0.2866 -0.1104
  105OSM      P10652   0.186   4.003  10.795 -0.2753  0.1930 -0.3137
  105OSM    O1310653   0.119   3.914  10.892  0.3835 -0.1664 -0.2418
  105OSM    O1410654   0.137   4.139  10.790 -0.1277 -0.7705  0.4852
  105OSM    O1110655   0.162   3.950  10.648  0.5044  0.2179 -0.4018
  105OSM    O1210656   0.338   3.996  10.818  0.1860  0.6865  0.4705
  105OSM    C1S10657   0.186   3.812  10.622  0.2056  0.0189  0.8308
  105OSM    H1S10658   0.104   3.751  10.666  0.4584 -0.7559  0.2525
  105OSM    H1T10659   0.281   3.782  10.670 -0.5765  0.2234  2.5735
  105OSM     NF10660   0.216   3.636  10.442  0.4123  0.1925 -0.4000
  105OSM    HNF10661   0.307   3.601  10.420 -0.2617 -1.0759 -1.3069
  105OSM    C2S10662   0.200   3.778  10.471  0.5247  0.5658  0.1177
  105OSM    H2S10663   0.104   3.802  10.421  2.2246  0.6907 -3.4721
  105OSM    C3S10664   0.321   3.862  10.413 -0.5765  0.0911 -0.6390
  105OSM    H3S10665   0.407   3.820  10.469 -2.6004 -2.3511  0.8879
  105OSM     O310666   0.329   4.004  10.437 -0.5806  0.0474  0.2802
  105OSM    HO310667   0.266   4.006  10.509  0.8752 -0.0084  1.6134
  105OSM    C4S10668   0.331   3.832  10.259  0.1383 -0.6243  0.1613
  105OSM    H4S10669   0.383   3.739  10.234  1.5871  0.4351 -0.9896
  105OSM    C5S10670   0.253   3.895  10.161 -0.0422  0.1739  0.3807
  105OSM    H5S10671   0.181   3.969  10.199  1.2944  1.5907  0.2620
  105OSM    C6S10672   0.246   3.845  10.020  0.6493 -0.2302  0.0456
  105OSM    H6S10673   0.237   3.935   9.955 -1.6635  0.6905  1.5160
  105OSM    H6T10674   0.150   3.791  10.006  0.9045 -0.7179  0.1716
  105OSM    C7S10675   0.362   3.766   9.967 -0.9478 -0.1173 -0.0325
  105OSM    H7S10676   0.385   3.668  10.015 -0.4151  0.9638  2.0358
  105OSM    H7T10677   0.454   3.826   9.985  0.7065 -1.8188 -2.2241
  105OSM    C8S10678   0.346   3.758   9.813  0.1686 -0.1524  0.2136
  105OSM    H8S10679   0.321   3.859   9.774  2.1861  0.7526  1.1123
  105OSM    H8T10680   0.261   3.689   9.794  0.6200 -1.4904  2.6809
  105OSM    C9S10681   0.472   3.704   9.738 -0.8247  0.3152 -0.8188
  105OSM    H9S10682   0.496   3.606   9.784  0.9768  1.3607  0.5987
  105OSM    H9T10683   0.564   3.766   9.750 -0.3759 -0.1408 -1.7812
  105OSM   C10S10684   0.458   3.671   9.588  0.1943  0.2320 -0.5289
  105OSM   H10S10685   0.471   3.762   9.526  0.3637  0.9625  0.5574
  105OSM   H10T10686   0.359   3.623   9.576  0.2492 -0.1271  0.3484
  105OSM   C11S10687   0.566   3.574   9.537 -0.4037 -0.0965 -0.1792
  105OSM   H11S10688   0.588   3.500   9.616 -0.4826  1.9393  1.8506
  105OSM   H11T10689   0.668   3.618   9.533 -0.1365 -0.6414  0.5087
  105OSM   C12S10690   0.531   3.495   9.404 -0.0491  0.0809  0.3257
  105OSM   H12S10691   0.427   3.457   9.412 -1.1864  2.5867 -1.3764
  105OSM   H12T10692   0.596   3.405   9.395 -1.1266 -0.7131  0.2454
  105OSM   C13S10693   0.531   3.598   9.289  0.8119  0.3901  0.1606
  105OSM   H13S10694   0.628   3.654   9.284  2.3182 -2.0759 -0.0301
  105OSM   H13T10695   0.461   3.679   9.317  1.7994  0.1973  3.6803
  105OSM   C14S10696   0.504   3.547   9.141 -0.5588 -0.0961 -0.3588
  105OSM   H14S10697   0.466   3.638   9.090 -0.9848  0.0608  0.2183
  105OSM   H14T10698   0.432   3.462   9.141  1.8486 -2.2364 -0.4867
  105OSM   C15S10699   0.624   3.498   9.067  0.2617  0.4854 -0.0872
  105OSM   H15S10700   0.671   3.414   9.122 -1.2058  0.5691  1.3546
  105OSM   H15T10701   0.698   3.581   9.065 -0.3227  1.0259  0.4517
  105OSM   C16S10702   0.596   3.443   8.926  0.4261 -0.4880 -0.3725
  105OSM   H16S10703   0.549   3.519   8.860 -3.6688 -1.2039  1.3954
  105OSM   H16T10704   0.529   3.355   8.939 -2.0039  1.1134 -1.2368
  105OSM   C17S10705   0.725   3.389   8.859 -0.0189 -0.1368  0.0175
  105OSM   H17S10706   0.785   3.320   8.922  1.6526  0.8983 -0.3780
  105OSM   H17T10707   0.783   3.480   8.832 -2.0476  0.6215 -2.2045
  105OSM   C18S10708   0.699   3.322   8.724  0.5679 -0.1805 -0.3777
  105OSM   H18S10709   0.607   3.263   8.745  0.7534  0.2382  1.9226
  105OSM   H18T10710   0.787   3.260   8.697 -0.4449 -2.3547  1.0233
  105OSM   H18U10711   0.683   3.395   8.642 -0.6029  1.4694  1.2164
  105OSM    C1F10712   0.117   3.539  10.461 -0.2143  0.9348  0.1293
  105OSM     OF10713   0.013   3.568  10.514  0.0706 -0.5249 -1.0445
  105OSM    C2F10714   0.146   3.401  10.428  0.1463  0.2400 -0.2421
  105OSM    H2F10715   0.107   3.331  10.505  0.0521  1.1341  0.5411
  105OSM    H2G10716   0.257   3.388  10.429  0.0009 -1.6182 -1.8373
  105OSM    C3F10717   0.093   3.374  10.283 -0.5296 -0.3368  0.0404
  105OSM    H3F10718  -0.017   3.379  10.275 -0.4721  2.2197  0.1679
  105OSM    H3G10719   0.118   3.266  10.273 -1.1727 -0.5433  0.6199
  105OSM    C4F10720   0.159   3.456  10.165 -0.3757 -0.1389 -0.0874
  105OSM    H4F10721   0.266   3.476  10.187  0.0969  0.2350 -2.4826
  105OSM    H4G10722   0.101   3.550  10.150 -0.3892  0.1258  1.4398
  105OSM    C5F10723   0.132   3.382  10.034 -0.2864 -0.0852 -0.4500
  105OSM    H5F10724   0.023   3.360  10.032 -0.1547 -0.9527  0.7465
  105OSM    H5G10725   0.188   3.286  10.041  1.0419  0.5646 -1.6153
  105OSM    C6F10726   0.184   3.450   9.906 -0.7341 -0.3671  0.2767
  105OSM    H6F10727   0.292   3.474   9.913 -0.8277  0.8717 -1.7524
  105OSM    H6G10728   0.139   3.552   9.901 -0.5191 -0.3329 -1.2180
  105OSM    C7F10729   0.153   3.371   9.785  0.0525  0.0333 -0.2206
  105OSM    H7F10730   0.164   3.265   9.816 -1.1635 -0.2441 -0.6981
  105OSM    H7G10731   0.229   3.381   9.705 -0.8662 -0.8613 -1.2362
  105OSM    C8F10732   0.016   3.401   9.721  0.6107 -0.1561  0.4116
  105OSM    H8F10733   0.020   3.509   9.695 -0.6192 -0.5134 -1.4133
  105OSM    H8G10734  -0.070   3.386   9.789  0.5689  0.0134  0.3963
  105OSM    C9F10735  -0.006   3.318   9.597  0.6290 -0.0886  0.3678
  105OSM    H9F10736  -0.055   3.220   9.609  0.0264 -0.0462 -1.4384
  105OSM   C10F10737  -0.001   3.355   9.473 -0.3090  0.3382 -0.2202
  105OSM   H10F10738  -0.013   3.281   9.393  0.4485  0.7392 -0.7234
  105OSM   C11F10739   0.043   3.491   9.425  0.2590 -0.0247  0.3326
  105OSM   H11F10740   0.099   3.556   9.496  0.9075  0.4675 -0.5984
  105OSM   H11G10741  -0.043   3.558   9.404 -0.0944 -0.1641  1.3102
  105OSM   C12F10742   0.132   3.475   9.296  0.5192  0.0460  0.2149
  105OSM   H12F10743   0.226   3.420   9.317 -0.5301 -1.2760  1.7297
  105OSM   H12G10744   0.166   3.579   9.276 -1.3255  0.3409 -1.8316
  105OSM   C13F10745   0.050   3.424   9.173  0.2305  0.3669  0.0880
  105OSM   H13F10746  -0.055   3.460   9.175  0.8621  2.3540 -0.3043
  105OSM   H13G10747   0.038   3.314   9.168 -0.7896  0.4958 -0.5371
  105OSM   C14F10748   0.109   3.492   9.051 -0.0121 -0.3928 -0.7423
  105OSM   H14F10749   0.219   3.479   9.061  0.1500  1.7172  1.0924
  105OSM   H14G10750   0.090   3.601   9.054  0.2389 -0.3722  0.4071
  105OSM   C15F10751   0.059   3.427   8.927  0.1023 -0.3628  0.9665
  105OSM   H15F10752  -0.048   3.438   8.897  1.4262 -0.1059 -4.8055
  105OSM   H15G10753   0.081   3.320   8.946  3.7231  0.0245 -0.3661
  105OSM   C16F10754   0.126   3.492   8.798 -0.6688 -0.2256  0.4668
  105OSM   H16F10755   0.106   3.435   8.705  1.1642  1.3583 -0.9734
  105OSM   H16G10756   0.236   3.497   8.811 -0.5491 -0.1520 -0.5474
  105OSM   C17F10757   0.060   3.631   8.766  0.0877 -0.1433 -0.3194
  105OSM   H17F10758   0.103   3.705   8.837  1.1846  0.9038 -1.9870
  105OSM   H17G10759  -0.050   3.627   8.760  0.1384  0.3553 -2.4894
  105OSM   C18F10760   0.104   3.681   8.626 -0.1922 -0.3291  0.8144
  105OSM   H18F10761   0.039   3.770   8.610  0.2084 -0.2810 -0.6758
  105OSM   H18G10762   0.074   3.605   8.551  0.1760  1.5888 -1.4192
  105OSM   H18H10763   0.213   3.693   8.614 -0.1789 -1.8050 -1.0110
  106OSM      N10764   5.166   2.935  10.613 -0.5110  0.1160  0.1255
  106OSM    C1510765   5.135   2.812  10.536 -0.2299 -0.3895 -0.4769
  106OSM   H15A10766   5.035   2.816  10.496 -0.7328 -0.3951  0.7215
  106OSM   H15B10767   5.141   2.719  10.591  0.2687 -0.8035 -1.2266
  106OSM   H15C10768   5.199   2.802  10.450 -2.3843  0.1093 -2.2305
  106OSM    C1410769   5.078   2.958  10.733  0.3642  0.5212 -0.7434
  106OSM   H14A10770   5.109   2.887  10.807 -0.1334  2.6139  1.6309
  106OSM   H14B10771   4.973   2.950  10.706  0.4617  0.4079 -1.0904
  106OSM   H14C10772   5.088   3.052  10.787 -1.2201  0.2549  0.0795
  106OSM    C1310773   5.307   2.915  10.665  0.2405  0.2578  0.6718
  106OSM   H13A10774   5.373   2.903  10.580  0.9264  2.5279  0.8298
  106OSM   H13B10775   5.318   2.817  10.710 -0.4509 -1.0253 -1.7677
  106OSM   H13C10776   5.348   2.995  10.724  0.6173  1.7033 -1.4503
  106OSM    C1210777   5.159   3.047  10.516  0.0381 -0.3863  0.6124
  106OSM   H12A10778   5.195   3.140  10.558 -1.0044  1.6306 -2.5966
  106OSM   H12B10779   5.056   3.057  10.485  0.1115 -0.3462  0.3729
  106OSM    C1110780   5.228   3.037  10.379 -0.4759 -0.7246 -0.6958
  106OSM   H11A10781   5.192   3.125  10.321  2.1587  1.0385  0.1695
  106OSM   H11B10782   5.192   2.946  10.326 -0.6096 -1.0642 -0.0293
  106OSM      P10783   5.447   3.169  10.443 -0.0331  0.0598 -0.0821
  106OSM    O1310784   5.385   3.217  10.567  0.1156 -0.0156  0.2586
  106OSM    O1410785   5.595   3.135  10.455 -0.4811  0.2851 -0.0296
  106OSM    O1110786   5.424   3.267  10.322  0.0976 -0.6103 -0.6946
  106OSM    O1210787   5.373   3.037  10.387  0.4362  0.2309  0.2368
  106OSM    C1S10788   5.458   3.228  10.187  0.7265  0.2679 -0.1376
  106OSM    H1S10789   5.524   3.139  10.182  0.0705 -0.1987 -0.5723
  106OSM    H1T10790   5.503   3.312  10.130 -1.5653  0.7978 -1.2956
  106OSM     NF10791   5.371   3.162   9.953 -0.4527 -0.0869 -0.0652
  106OSM    HNF10792   5.343   3.208   9.869 -0.4084 -2.3515 -1.4087
  106OSM    C2S10793   5.334   3.204  10.090 -0.3373  0.1449  0.1602
  106OSM    H2S10794   5.282   3.116  10.134  1.8010 -1.4203 -0.2585
  106OSM    C3S10795   5.245   3.327  10.092 -0.5997  0.4138  0.4728
  106OSM    H3S10796   5.303   3.410  10.046 -0.0489 -1.4628 -2.4778
  106OSM     O310797   5.212   3.374  10.222 -0.4090  0.0838  0.1242
  106OSM    HO310798   5.289   3.362  10.279  2.6625  5.0866 -2.1807
  106OSM    C4S10799   5.120   3.310  10.016  0.1345 -0.3334  0.7651
  106OSM    H4S10800   5.067   3.217  10.038 -0.5512 -0.8115 -2.3241
  106OSM    C5S10801   5.063   3.405   9.939 -0.1548  0.6881 -0.1452
  106OSM    H5S10802   5.107   3.505   9.950  2.2674 -0.4946  1.9161
  106OSM    C6S10803   4.938   3.397   9.854 -0.1242  0.3141 -0.2919
  106OSM    H6S10804   4.873   3.485   9.876  1.4723  2.2701 -2.8289
  106OSM    H6T10805   4.882   3.307   9.887 -1.0870  1.3407  0.9672
  106OSM    C7S10806   4.963   3.396   9.703  0.1530 -0.4514  0.3012
  106OSM    H7S10807   5.030   3.479   9.673 -0.7846  0.5819  1.0091
  106OSM    H7T10808   4.862   3.395   9.658  0.1821 -3.0268  0.1289
  106OSM    C8S10809   5.019   3.258   9.650 -0.0092 -0.5873 -0.5112
  106OSM    H8S10810   4.950   3.180   9.689  0.7359  0.0495  2.3090
  106OSM    H8T10811   5.118   3.240   9.696  0.4599 -0.6751 -1.5291
  106OSM    C9S10812   5.024   3.264   9.492  0.1670 -0.3742  0.4289
  106OSM    H9S10813   5.111   3.331   9.476 -0.5256  0.3805 -0.2685
  106OSM    H9T10814   4.922   3.297   9.464  1.4378  3.0015 -0.6952
  106OSM   C10S10815   5.063   3.122   9.430 -0.0586 -0.4921 -0.2045
  106OSM   H10S10816   4.970   3.067   9.456 -0.6071 -0.5563 -2.1262
  106OSM   H10T10817   5.150   3.091   9.491  0.9401 -0.9720 -1.8124
  106OSM   C11S10818   5.091   3.126   9.279  0.2767 -0.5532  0.4283
  106OSM   H11S10819   5.194   3.162   9.261  0.1394 -0.7407 -0.7912
  106OSM   H11T10820   5.033   3.211   9.235 -0.5800 -0.2498  2.0710
  106OSM   C12S10821   5.075   2.998   9.206  0.2598  0.3294  0.0104
  106OSM   H12S10822   4.974   2.958   9.225  0.2240  0.2227 -0.4116
  106OSM   H12T10823   5.156   2.934   9.248  1.2110  0.9980 -0.7579
  106OSM   C13S10824   5.079   3.017   9.056 -0.2194 -0.2484  0.2873
  106OSM   H13S10825   5.175   3.067   9.031 -1.2743  0.4718 -2.7866
  106OSM   H13T10826   4.997   3.088   9.032  1.7684  1.5096 -1.6783
  106OSM   C14S10827   5.077   2.885   8.969  0.1332 -0.4077  0.5243
  106OSM   H14S10828   5.061   2.909   8.861  2.0100  3.7688  0.9660
  106OSM   H14T10829   4.988   2.828   9.002 -0.0007  0.0496  0.9654
  106OSM   C15S10830   5.193   2.794   9.000 -0.7558 -0.3792 -0.1645
  106OSM   H15S10831   5.161   2.696   8.958 -3.3629 -0.2806  1.4209
  106OSM   H15T10832   5.215   2.779   9.108  1.7207  1.6587 -0.2883
  106OSM   C16S10833   5.330   2.828   8.930 -0.7890 -0.4203  0.1041
  106OSM   H16S10834   5.396   2.899   8.983 -0.6449 -0.6891  0.2901
  106OSM   H16T10835   5.313   2.868   8.828 -1.8954 -0.2098  0.3630
  106OSM   C17S10836   5.414   2.697   8.912  0.1401 -0.5063  0.5867
  106OSM   H17S10837   5.348   2.637   8.845 -4.0290 -0.2070  3.9648
  106OSM   H17T10838   5.423   2.647   9.010  1.7541 -0.8048  0.3075
  106OSM   C18S10839   5.551   2.715   8.846 -0.0598 -0.0412 -0.6703
  106OSM   H18S10840   5.536   2.777   8.755 -1.5435 -0.4457 -0.7298
  106OSM   H18T10841   5.588   2.612   8.828 -0.2761 -0.4154  0.9130
  106OSM   H18U10842   5.619   2.758   8.923  2.7221  0.6166 -3.3097
  106OSM    C1F10843   5.442   3.052   9.931 -0.1386  0.4463  0.5586
  106OSM     OF10844   5.461   2.971  10.023 -0.2663 -0.0585 -0.2613
  106OSM    C2F10845   5.486   3.033   9.790  0.7945 -0.0780  0.6495
  106OSM    H2F10846   5.563   3.108   9.761  0.8052 -0.8805 -1.5281
  106OSM    H2G10847   5.398   3.046   9.725  1.2589 -3.6905 -0.9529
  106OSM    C3F10848   5.538   2.888   9.759 -0.4634  0.2936 -0.3351
  106OSM    H3F10849   5.633   2.860   9.809  1.3806  1.0781 -3.1320
  106OSM    H3G10850   5.557   2.894   9.649 -0.3062  0.7547 -0.2858
  106OSM    C4F10851   5.439   2.772   9.786 -0.1337  0.0888 -0.0820
  106OSM    H4F10852   5.340   2.794   9.741 -0.1058  0.0071 -0.1807
  106OSM    H4G10853   5.431   2.758   9.896 -1.5591  0.5024 -0.1007
  106OSM    C5F10854   5.492   2.636   9.727 -0.0936  0.2737 -0.3563
  106OSM    H5F10855   5.416   2.558   9.750  0.1477 -0.0755 -0.7426
  106OSM    H5G10856   5.586   2.595   9.770  0.3263  0.6270 -0.9428
  106OSM    C6F10857   5.509   2.634   9.573  0.6310 -0.4069 -0.8521
  106OSM    H6F10858   5.589   2.708   9.552  0.2066  1.0999  2.3023
  106OSM    H6G10859   5.413   2.675   9.534  1.0053  1.1845 -0.1464
  106OSM    C7F10860   5.542   2.495   9.501  0.2127 -0.0195 -0.4611
  106OSM    H7F10861   5.467   2.426   9.546 -0.8220  1.6833  0.5312
  106OSM    H7G10862   5.648   2.468   9.518 -0.1605 -0.1321  2.0594
  106OSM    C8F10863   5.510   2.493   9.350 -0.3414 -0.0723  0.9594
  106OSM    H8F10864   5.407   2.530   9.335  0.2752  0.9695 -1.1276
  106OSM    H8G10865   5.505   2.385   9.324 -1.4435  0.3680 -0.8460
  106OSM    C9F10866   5.611   2.563   9.258 -0.1567 -0.3691  0.7969
  106OSM    H9F10867   5.690   2.494   9.224 -0.6651 -0.0923 -1.1050
  106OSM   C10F10868   5.610   2.694   9.220 -0.3649  0.3576  0.2199
  106OSM   H10F10869   5.691   2.724   9.152  0.6847 -2.0038  0.3289
  106OSM   C11F10870   5.512   2.790   9.266  0.1425  0.7878 -0.2213
  106OSM   H11F10871   5.442   2.744   9.339  0.4401 -1.8854 -1.4741
  106OSM   H11G10872   5.446   2.824   9.184 -0.7407 -6.3822 -3.2549
  106OSM   C12F10873   5.577   2.906   9.341 -0.1685 -0.9389  0.5234
  106OSM   H12F10874   5.653   2.955   9.277 -1.5278 -0.2809 -0.6514
  106OSM   H12G10875   5.629   2.876   9.435  1.1122  0.6966  0.3801
  106OSM   C13F10876   5.470   3.010   9.375  0.4233  1.1724  0.4081
  106OSM   H13F10877   5.390   2.970   9.441 -0.5661  0.1126 -1.3629
  106OSM   H13G10878   5.415   3.027   9.280  1.9127 -0.2124 -0.7592
  106OSM   C14F10879   5.521   3.139   9.430 -0.8617 -0.0632 -0.6553
  106OSM   H14F10880   5.589   3.193   9.361  0.8629 -0.1986  0.8802
  106OSM   H14G10881   5.587   3.117   9.516  0.3485  1.8218 -1.0560
  106OSM   C15F10882   5.414   3.241   9.472  0.0085 -0.1691  0.0908
  106OSM   H15F10883   5.346   3.191   9.543  0.2604 -0.3853  0.1808
  106OSM   H15G10884   5.352   3.257   9.381 -0.3618 -1.4597  0.1075
  106OSM   C16F10885   5.469   3.380   9.501  0.1377  0.6901  0.3960
  106OSM   H16F10886   5.528   3.406   9.410 -3.2578 -0.0384 -2.2332
  106OSM   H16G10887   5.542   3.374   9.584  0.4126  1.2434  0.2030
  106OSM   C17F10888   5.362   3.482   9.534  0.3481  0.0483 -0.4270
  106OSM   H17F10889   5.270   3.458   9.477  0.2120  0.2833 -0.3109
  106OSM   H17G10890   5.393   3.576   9.484 -0.4630 -0.1903 -1.4141
  106OSM   C18F10891   5.331   3.498   9.690 -0.5672 -0.0186  1.1544
  106OSM   H18F10892   5.423   3.537   9.740 -0.2232  0.7595 -0.0520
  106OSM   H18G10893   5.292   3.399   9.722 -0.2037 -0.5531 -0.0130
  106OSM   H18H10894   5.258   3.579   9.716 -1.3905 -0.5883  0.6711
  107OSM      N10895   0.791   0.040  10.785 -1.1287  0.4190 -0.1111
  107OSM    C1510896   0.662   0.047  10.719  0.0966  0.1720  0.2907
  107OSM   H15A10897   0.665   0.107  10.630 -0.5430 -0.9523 -0.5179
  107OSM   H15B10898   0.594   0.085  10.794 -1.0810  0.8719 -1.0865
  107OSM   H15C10899   0.622  -0.051  10.698  1.7221 -0.3836 -0.3877
  107OSM    C1410900   0.785  -0.064  10.896  0.3446  0.0220  0.1335
  107OSM   H14A10901   0.858  -0.052  10.975  0.0819  1.0051  0.2441
  107OSM   H14B10902   0.785  -0.165  10.858 -1.0999 -0.2384  0.7558
  107OSM   H14C10903   0.698  -0.034  10.953  0.3320  2.0768 -0.8780
  107OSM    C1310904   0.898  -0.014  10.697 -0.3124  0.7316  0.2028
  107OSM   H13A10905   0.997  -0.006  10.741 -0.6823 -0.8789  1.4450
  107OSM   H13B10906   0.899   0.031  10.599 -0.4838 -0.6293 -0.4459
  107OSM   H13C10907   0.884  -0.116  10.665 -0.5829  1.1309 -1.0014
  107OSM    C1210908   0.831   0.173  10.842 -0.2030 -0.8824  0.3364
  107OSM   H12A10909   0.928   0.155  10.885 -0.4397 -1.7608  0.5197
  107OSM   H12B10910   0.756   0.197  10.917 -0.9266 -3.8922  0.6799
  107OSM    C1110911   0.855   0.292  10.736 -0.6167 -0.2882  1.4535
  107OSM   H11A10912   0.833   0.397  10.766 -2.4020 -0.4093  0.6894
  107OSM   H11B10913   0.783   0.267  10.655 -0.0156  0.4733  0.6649
  107OSM      P10914   1.109   0.320  10.760  0.5720  0.2236 -0.2798
  107OSM    O1310915   1.112   0.463  10.799  0.1159  0.1112 -0.2660
  107OSM    O1410916   1.139   0.221  10.865 -0.0452  0.4231  0.6014
  107OSM    O1110917   1.214   0.312  10.642  0.0364  0.2011  0.2923
  107OSM    O1210918   0.984   0.284  10.673 -0.2439  0.6785  0.1304
  107OSM    C1S10919   1.244   0.191  10.570 -0.0758  0.2312  0.3263
  107OSM    H1S10920   1.185   0.106  10.610 -0.1738 -0.6787 -1.6376
  107OSM    H1T10921   1.353   0.170  10.562 -0.0797 -0.0090  0.9252
  107OSM     NF10922   1.224   0.063  10.353  1.2042  0.4154 -0.2682
  107OSM    HNF10923   1.312   0.037  10.314  0.2460 -1.2916 -1.4722
  107OSM    C2S10924   1.207   0.198  10.417  0.1971 -0.4716 -0.4063
  107OSM    H2S10925   1.105   0.239  10.401  0.7244  0.6588 -1.0098
  107OSM    C3S10926   1.295   0.301  10.349 -0.2889 -0.4962  0.4014
  107OSM    H3S10927   1.392   0.250  10.330 -0.7448 -1.7626  1.3519
  107OSM     O310928   1.319   0.420  10.427 -0.9808  0.0699 -0.5320
  107OSM    HO310929   1.302   0.389  10.516  0.4908 -0.6802 -0.4756
  107OSM    C4S10930   1.238   0.331  10.209  0.0333  0.6204 -0.4599
  107OSM    H4S10931   1.294   0.275  10.133 -0.2657  1.1222 -1.0631
  107OSM    C5S10932   1.135   0.412  10.181 -0.2052 -0.0202 -0.7081
  107OSM    H5S10933   1.098   0.478  10.261  0.4437 -1.7607  1.1037
  107OSM    C6S10934   1.063   0.428  10.051 -0.1272  0.4565 -0.3023
  107OSM    H6S10935   1.056   0.536  10.029 -0.2121  0.8265  1.4329
  107OSM    H6T10936   0.959   0.393  10.067 -0.1990  1.6988  2.4049
  107OSM    C7S10937   1.124   0.348   9.929 -0.1240 -1.2046  0.5392
  107OSM    H7S10938   1.131   0.239   9.952  1.7269 -0.7316  2.4416
  107OSM    H7T10939   1.225   0.390   9.911 -0.5111 -0.6386 -0.3921
  107OSM    C8S10940   1.032   0.350   9.806  0.3334 -0.2963 -0.0220
  107OSM    H8S10941   0.982   0.449   9.790  0.7031  0.3660  2.5334
  107OSM    H8T10942   0.949   0.279   9.826 -1.8555  1.6359 -1.5645
  107OSM    C9S10943   1.085   0.288   9.679  0.0470 -0.7930 -0.4261
  107OSM    H9S10944   1.107   0.181   9.696  0.0518 -0.7617 -0.2317
  107OSM    H9T10945   1.181   0.339   9.655 -0.3004 -0.1471 -0.4696
  107OSM   C10S10946   1.006   0.309   9.547 -0.0405 -0.8973 -1.1420
  107OSM   H10S10947   0.998   0.419   9.535 -0.6827 -0.8860 -0.6066
  107OSM   H10T10948   0.903   0.273   9.567  0.2308 -0.6974  0.8082
  107OSM   C11S10949   1.070   0.243   9.424 -0.7563 -0.4538  0.0158
  107OSM   H11S10950   1.071   0.133   9.439  0.1879 -0.3313  1.0001
  107OSM   H11T10951   1.170   0.283   9.398 -0.7517  0.2942  1.1180
  107OSM   C12S10952   0.987   0.264   9.287  0.4849  0.0363 -0.0264
  107OSM   H12S10953   1.009   0.366   9.247 -2.5075  1.1626  0.9349
  107OSM   H12T10954   0.881   0.253   9.318  0.5113  0.8303  0.3836
  107OSM   C13S10955   1.023   0.173   9.171 -0.0621 -0.7654  0.3424
  107OSM   H13S10956   1.000   0.070   9.205  0.4800 -1.4976 -1.4156
  107OSM   H13T10957   1.130   0.185   9.142  0.1184 -1.0356  0.8820
  107OSM   C14S10958   0.942   0.208   9.043 -0.0281 -0.0025 -0.0385
  107OSM   H14S10959   0.970   0.305   8.998 -1.5246  0.3516 -0.2459
  107OSM   H14T10960   0.832   0.212   9.062 -0.0692 -1.8639  0.3338
  107OSM   C15S10961   0.962   0.106   8.934 -0.1728 -0.2013 -0.5535
  107OSM   H15S10962   0.929   0.008   8.976  0.4424  0.7762  2.4754
  107OSM   H15T10963   1.068   0.094   8.904  0.4775 -0.9836  1.7761
  107OSM   C16S10964   0.877   0.129   8.806 -0.2829  0.4763  0.3621
  107OSM   H16S10965   0.785   0.187   8.829  0.8992  1.7889  1.9515
  107OSM   H16T10966   0.845   0.029   8.769 -2.6450  1.1382  0.4456
  107OSM   C17S10967   0.948   0.187   8.682  0.5288 -0.0971 -0.6236
  107OSM   H17S10968   1.013   0.102   8.652  1.4619 -0.4854  2.1582
  107OSM   H17T10969   1.013   0.273   8.712 -0.0840  0.7427 -1.6239
  107OSM   C18S10970   0.850   0.216   8.567  0.2586 -0.1954  0.6402
  107OSM   H18S10971   0.899   0.259   8.478 -1.3142 -0.7243 -0.5293
  107OSM   H18T10972   0.761   0.278   8.593 -0.4352 -0.5141 -0.8528
  107OSM   H18U10973   0.806   0.125   8.520 -1.4916  0.8289  0.2009
  107OSM    C1F10974   1.134  -0.035  10.379  0.2721  0.2161  1.0459
  107OSM     OF10975   1.024  -0.006  10.431 -0.1258 -0.0307 -0.2671
  107OSM    C2F10976   1.177  -0.178  10.353  0.2021  0.2064  0.5779
  107OSM    H2F10977   1.181  -0.229  10.451 -0.1683 -0.9488 -0.0007
  107OSM    H2G10978   1.283  -0.178  10.318 -0.4015 -2.2241 -1.5198
  107OSM    C3F10979   1.086  -0.261  10.247 -0.3989  0.7989 -0.4498
  107OSM    H3F10980   1.093  -0.211  10.148 -1.7406  0.6603 -0.6329
  107OSM    H3G10981   0.983  -0.249  10.288  0.3627  2.6105  1.1152
  107OSM    C4F10982   1.146  -0.406  10.240 -0.2940 -0.3857  0.4480
  107OSM    H4F10983   1.158  -0.457  10.338  0.2385  1.7859  1.5874
  107OSM    H4G10984   1.248  -0.401  10.197 -1.1295 -1.5433 -1.8307
  107OSM    C5F10985   1.056  -0.498  10.153 -0.4075  0.3658  0.1499
  107OSM    H5F10986   0.951  -0.463  10.168 -0.5223 -0.0304  0.2977
  107OSM    H5G10987   1.081  -0.601  10.185  2.1169  0.4456 -1.3214
  107OSM    C6F10988   1.086  -0.493  10.002  0.3605  0.1538 -0.0075
  107OSM    H6F10989   1.191  -0.473   9.972  0.3420  0.3426  0.0521
  107OSM    H6G10990   1.041  -0.401   9.959  0.7410  0.0943 -0.5475
  107OSM    C7F10991   1.023  -0.619   9.944  0.5006 -0.4660 -0.5171
  107OSM    H7F10992   0.916  -0.619   9.977  0.8935 -1.2898  0.8722
  107OSM    H7G10993   1.067  -0.711   9.988  0.9203  0.5105  1.2066
  107OSM    C8F10994   1.060  -0.627   9.793 -0.0687  0.3356  0.8288
  107OSM    H8F10995   1.045  -0.733   9.765  2.8916  0.9486 -4.0652
  107OSM    H8G10996   1.168  -0.606   9.779 -0.2342  0.7141  0.0566
  107OSM    C9F10997   0.982  -0.535   9.703 -0.9659  0.0412  0.0587
  107OSM    H9F10998   0.932  -0.445   9.741  2.0362  1.8116  0.1012
  107OSM   C10F10999   0.939  -0.566   9.581  0.0943  0.5316 -0.0969
  107OSM   H10F11000   0.884  -0.488   9.527  1.5027  1.8310  0.2792
  107OSM   C11F11001   0.957  -0.695   9.505  0.0404 -0.5599  0.0510
  107OSM   H11F11002   0.946  -0.782   9.573 -1.6620  0.1154  0.7068
  107OSM   H11G11003   1.055  -0.703   9.453 -0.5268  1.0161 -1.3712
  107OSM   C12F11004   0.849  -0.703   9.390  0.0045 -0.3216  0.5958
  107OSM   H12F11005   0.878  -0.618   9.324  1.2023  0.3032  1.8837
  107OSM   H12G11006   0.746  -0.689   9.429 -0.0148  1.0860  0.0913
  107OSM   C13F11007   0.842  -0.829   9.304  0.0457  0.3137  0.2615
  107OSM   H13F11008   0.778  -0.818   9.214  1.7995  0.0371 -1.0889
  107OSM   H13G11009   0.797  -0.913   9.360  0.7096 -0.6275 -0.5989
  107OSM   C14F11010   0.980  -0.862   9.234 -0.3891 -0.6104  0.1116
  107OSM   H14F11011   0.999  -0.970   9.213 -2.0218 -1.7050  3.4890
  107OSM   H14G11012   1.058  -0.862   9.313  1.0612  0.9745 -1.2473
  107OSM   C15F11013   1.006  -0.773   9.115 -0.2020 -0.1113  0.5518
  107OSM   H15F11014   1.011  -0.666   9.145  0.5610  0.1172 -0.3415
  107OSM   H15G11015   0.917  -0.780   9.048 -0.1979 -0.9564  0.6225
  107OSM   C16F11016   1.134  -0.806   9.029  0.6235 -0.2437 -0.4454
  107OSM   H16F11017   1.151  -0.916   9.026  2.5565 -0.0104  0.5093
  107OSM   H16G11018   1.221  -0.768   9.088  1.6982 -1.2697 -1.3253
  107OSM   C17F11019   1.136  -0.724   8.897 -0.5675  0.1220  0.4355
  107OSM   H17F11020   1.145  -0.614   8.900 -2.5533  0.3338 -0.0853
  107OSM   H17G11021   1.038  -0.741   8.849 -0.2252 -1.8655  0.3375
  107OSM   C18F11022   1.248  -0.773   8.802  0.0833  0.0345  0.5355
  107OSM   H18F11023   1.219  -0.845   8.723 -0.5643  1.4942 -0.5947
  107OSM   H18G11024   1.335  -0.812   8.859  0.4029  2.0736  1.5582
  107OSM   H18H11025   1.293  -0.688   8.746 -0.0079 -0.3179 -0.0778
  108OSM      N11026   4.525   1.509  10.916  0.4225  0.9277  0.2809
  108OSM    C1511027   4.593   1.606  11.001  0.5751 -0.0491 -0.6665
  108OSM   H15A11028   4.600   1.575  11.104  0.3085  3.4353  0.5405
  108OSM   H15B11029   4.541   1.701  11.000  0.2047 -0.2030  1.0623
  108OSM   H15C11030   4.695   1.615  10.969  1.0236 -1.0626  0.4275
  108OSM    C1411031   4.548   1.547  10.777  0.2307  0.3261 -0.4433
  108OSM   H14A11032   4.501   1.641  10.752 -0.2547  0.0596 -0.5459
  108OSM   H14B11033   4.493   1.479  10.715 -1.6667  2.0606 -0.7655
  108OSM   H14C11034   4.650   1.548  10.740  0.0136 -0.0904 -1.0712
  108OSM    C1311035   4.581   1.367  10.925  0.1241 -0.0728 -0.2023
  108OSM   H13A11036   4.679   1.358  10.882 -0.4683 -0.3369 -1.5315
  108OSM   H13B11037   4.525   1.294  10.869  0.5154 -0.6919  0.1986
  108OSM   H13C11038   4.585   1.334  11.028  0.4745  1.9482  0.4700
  108OSM    C1211039   4.382   1.489  10.949 -0.0457  0.5679 -0.7251
  108OSM   H12A11040   4.371   1.467  11.054  0.4742  0.3031 -0.7259
  108OSM   H12B11041   4.337   1.399  10.909 -1.8216  1.2054 -0.2884
  108OSM    C1111042   4.277   1.603  10.911 -0.4829  0.2654 -0.0112
  108OSM   H11A11043   4.190   1.566  10.969  0.4346 -0.2190  1.0964
  108OSM   H11B11044   4.255   1.587  10.803 -0.1487  0.0020 -0.0425
  108OSM      P11045   4.326   1.854  10.847 -0.4626  0.2026  0.6532
  108OSM    O1311046   4.325   1.989  10.912 -0.4270  0.0868 -0.0531
  108OSM    O1411047   4.450   1.830  10.769 -0.3735  0.1254  0.1907
  108OSM    O1111048   4.207   1.832  10.746 -0.2100 -0.1428 -0.1266
  108OSM    O1211049   4.313   1.731  10.951  0.1688  0.3888  0.5922
  108OSM    C1S11050   4.192   1.925  10.639 -0.2823 -0.3198  0.0558
  108OSM    H1S11051   4.276   1.918  10.566 -0.9889  2.3650 -1.1065
  108OSM    H1T11052   4.189   2.033  10.664 -2.8339  0.1145 -1.7258
  108OSM     NF11053   4.062   1.966  10.423 -0.1715 -0.4905 -0.2027
  108OSM    HNF11054   4.022   2.057  10.430  1.5146  0.2776  0.1408
  108OSM    C2S11055   4.072   1.885  10.550  0.2223 -0.4403  0.1762
  108OSM    H2S11056   4.091   1.781  10.516  1.7410 -0.9247  2.3137
  108OSM    C3S11057   3.946   1.903  10.632  0.7765 -0.1097  0.3312
  108OSM    H3S11058   3.926   2.011  10.645  0.4196 -0.1137 -0.1659
  108OSM     O311059   3.951   1.836  10.753 -0.2575  0.0819 -0.0935
  108OSM    HO311060   4.042   1.809  10.764 -0.1804 -0.7550 -2.1942
  108OSM    C4S11061   3.823   1.862  10.551 -0.0242 -0.3808  0.9992
  108OSM    H4S11062   3.759   1.947  10.524  0.3947 -0.2509  0.4025
  108OSM    C5S11063   3.781   1.736  10.512  0.4002  0.1211  0.0076
  108OSM    H5S11064   3.827   1.642  10.546  1.8827  0.4495 -1.0259
  108OSM    C6S11065   3.653   1.719  10.424 -0.8540  1.0019 -1.0840
  108OSM    H6S11066   3.571   1.685  10.490  0.4000  1.4701  0.7893
  108OSM    H6T11067   3.673   1.629  10.362  2.8736 -0.2421  1.5714
  108OSM    C7S11068   3.613   1.843  10.345 -0.6016 -0.3196 -0.3538
  108OSM    H7S11069   3.694   1.902  10.296 -0.9643  1.0352  0.6399
  108OSM    H7T11070   3.570   1.920  10.412  0.2982  0.6459 -0.8557
  108OSM    C8S11071   3.508   1.819  10.241  0.1551 -0.7358  0.8288
  108OSM    H8S11072   3.465   1.918  10.217  0.4101 -1.0340 -1.0791
  108OSM    H8T11073   3.423   1.759  10.280 -0.7815 -1.5909 -2.1816
  108OSM    C9S11074   3.559   1.765  10.103  0.3184  0.5550  0.1269
  108OSM    H9S11075   3.599   1.661  10.096  1.3524  0.9891 -0.8138
  108OSM    H9T11076   3.638   1.839  10.080  0.0822 -0.0558 -3.1217
  108OSM   C10S11077   3.451   1.788   9.996  0.2476 -0.0331 -0.1428
  108OSM   H10S11078   3.391   1.880  10.007 -0.3331 -0.6238  2.0795
  108OSM   H10T11079   3.377   1.709  10.021  2.5311 -2.1292  0.4041
  108OSM   C11S11080   3.500   1.797   9.849 -0.2488 -0.2317  0.2293
  108OSM   H11S11081   3.541   1.695   9.832  0.8962  0.2346  0.1197
  108OSM   H11T11082   3.571   1.882   9.843  0.2719 -0.7270 -1.4823
  108OSM   C12S11083   3.384   1.830   9.753  0.1610 -0.2878 -0.4007
  108OSM   H12S11084   3.349   1.931   9.783  0.8221 -0.4366  0.9363
  108OSM   H12T11085   3.289   1.773   9.769 -0.1769  0.7961  1.8877
  108OSM   C13S11086   3.428   1.845   9.606  0.1406  0.0382  0.5125
  108OSM   H13S11087   3.467   1.746   9.574  0.1166  0.1801  0.0312
  108OSM   H13T11088   3.514   1.915   9.602  0.4814 -0.4044 -0.1427
  108OSM   C14S11089   3.304   1.877   9.512  0.5923 -0.0770 -0.4189
  108OSM   H14S11090   3.247   1.959   9.562  2.0866  0.0808  1.1222
  108OSM   H14T11091   3.235   1.790   9.520  1.7270 -0.9683 -0.1038
  108OSM   C15S11092   3.343   1.912   9.372  0.3562  0.2127 -0.4821
  108OSM   H15S11093   3.423   1.840   9.342  1.0346  0.6674  0.2084
  108OSM   H15T11094   3.375   2.017   9.360 -1.1216  0.8962  1.2022
  108OSM   C16S11095   3.226   1.898   9.268 -0.0377 -0.0465 -0.4119
  108OSM   H16S11096   3.149   1.974   9.292 -0.1742 -0.2856 -0.0847
  108OSM   H16T11097   3.177   1.798   9.276  1.0819 -0.5473  0.4831
  108OSM   C17S11098   3.279   1.906   9.125 -1.0962  0.0381  0.8713
  108OSM   H17S11099   3.341   1.816   9.105  1.0056  1.3441  1.1538
  108OSM   H17T11100   3.341   1.998   9.120 -1.0635 -0.0234  0.0583
  108OSM   C18S11101   3.171   1.901   9.023  0.0944 -0.3963  0.8084
  108OSM   H18S11102   3.109   1.993   9.034  0.9412  0.4491 -1.1297
  108OSM   H18T11103   3.106   1.815   9.050 -0.9436  0.3961  0.9067
  108OSM   H18U11104   3.201   1.895   8.917  0.1646  2.1053  0.6176
  108OSM    C1F11105   4.143   1.931  10.325 -0.7597  0.1266  0.2734
  108OSM     OF11106   4.207   1.828  10.328  0.7984 -0.3079  0.0485
  108OSM    C2F11107   4.147   2.030  10.209  0.4912 -0.0856  0.9024
  108OSM    H2F11108   4.234   2.097  10.229  0.1381  1.0141 -1.0169
  108OSM    H2G11109   4.063   2.102  10.219  2.0252  2.0906 -0.7347
  108OSM    C3F11110   4.173   1.959  10.072  0.5252 -0.6685  0.2231
  108OSM    H3F11111   4.089   1.890  10.051 -0.4425  1.1013 -2.0988
  108OSM    H3G11112   4.271   1.907  10.073  1.3036  0.6119 -1.8775
  108OSM    C4F11113   4.178   2.061   9.958 -0.9001  0.6566 -0.1263
  108OSM    H4F11114   4.272   2.049   9.899 -0.5734 -1.5313  0.7334
  108OSM    H4G11115   4.185   2.163  10.000  0.2376  0.8561 -0.7621
  108OSM    C5F11116   4.063   2.042   9.862 -0.4581 -0.0584  0.7953
  108OSM    H5F11117   3.970   2.069   9.915 -1.2846  1.8968 -1.4705
  108OSM    H5G11118   4.059   1.941   9.814  1.2638  0.7957 -1.3651
  108OSM    C6F11119   4.074   2.153   9.755  0.3869 -0.6294 -0.1740
  108OSM    H6F11120   4.082   2.256   9.796  0.8822 -0.1594 -1.4057
  108OSM    H6G11121   3.977   2.143   9.702  1.1718 -0.2750 -1.7321
  108OSM    C7F11122   4.183   2.135   9.645  0.4070  0.0261 -0.1947
  108OSM    H7F11123   4.276   2.149   9.704 -0.6029 -0.3436  1.5594
  108OSM    H7G11124   4.172   2.217   9.572 -2.3249  0.4956  0.5975
  108OSM    C8F11125   4.180   2.001   9.574  0.2711  0.0822  0.3708
  108OSM    H8F11126   4.077   1.986   9.535 -0.5992 -0.4656  2.7161
  108OSM    H8G11127   4.190   1.915   9.643 -0.5695 -1.2209 -1.0601
  108OSM    C9F11128   4.292   1.996   9.472 -0.1922 -0.3675  0.2223
  108OSM    H9F11129   4.383   1.955   9.519  1.3002  1.7493 -0.6377
  108OSM   C10F11130   4.291   2.021   9.337 -0.1731  0.2137 -0.4937
  108OSM   H10F11131   4.389   2.000   9.291 -0.1221 -0.4086 -0.1259
  108OSM   C11F11132   4.179   2.068   9.242 -0.0002 -0.0700  0.0395
  108OSM   H11F11133   4.090   2.076   9.308  1.4576  1.3891  1.9588
  108OSM   H11G11134   4.143   2.000   9.162 -0.5491  1.9181 -1.4803
  108OSM   C12F11135   4.208   2.213   9.185 -0.6510 -0.3673  0.5762
  108OSM   H12F11136   4.267   2.281   9.251  0.4871 -1.2936  0.5582
  108OSM   H12G11137   4.106   2.249   9.162 -1.5037 -3.3868 -0.9058
  108OSM   C13F11138   4.298   2.198   9.055  0.4079  1.2140 -0.4722
  108OSM   H13F11139   4.262   2.111   8.996  1.1737 -0.4186  1.3423
  108OSM   H13G11140   4.399   2.158   9.081 -0.7484 -0.5132  1.7169
  108OSM   C14F11141   4.319   2.327   8.969 -0.1388  0.5800 -0.5192
  108OSM   H14F11142   4.373   2.302   8.875 -3.0270  0.4910 -2.2601
  108OSM   H14G11143   4.369   2.407   9.027  0.4759  0.5271 -0.9687
  108OSM   C15F11144   4.180   2.386   8.914 -1.1141  0.2107  0.0551
  108OSM   H15F11145   4.128   2.413   9.009 -1.4866  1.2900 -0.4476
  108OSM   H15G11146   4.137   2.298   8.862 -2.8017  0.7561  0.4761
  108OSM   C16F11147   4.180   2.507   8.830 -0.0512  0.2705  0.7460
  108OSM   H16F11148   4.073   2.538   8.821 -0.6479 -1.8317 -0.1202
  108OSM   H16G11149   4.219   2.488   8.728 -0.3784  1.1279  0.4519
  108OSM   C17F11150   4.250   2.625   8.903 -0.2072  0.4402 -0.1095
  108OSM   H17F11151   4.360   2.612   8.895 -0.4355 -0.7349 -2.0438
  108OSM   H17G11152   4.222   2.645   9.009 -2.8541  2.6523 -1.1163
  108OSM   C18F11153   4.228   2.764   8.836  1.0874 -0.7112  0.7532
  108OSM   H18F11154   4.258   2.753   8.730  1.1682 -1.5394  0.8562
  108OSM   H18G11155   4.289   2.842   8.886 -0.2473  1.7108 -1.1666
  108OSM   H18H11156   4.121   2.795   8.826  1.4073 -0.4755 -3.8468
  109OSM      N11157   2.337   0.487  11.000  0.1706  0.2651  0.1732
  109OSM    C1511158   2.431   0.368  11.000 -0.6669 -0.2216  0.3620
  109OSM   H15A11159   2.473   0.352  11.098 -0.4087  0.7430  0.4206
  109OSM   H15B11160   2.513   0.379  10.931 -0.5031 -0.3472  0.5338
  109OSM   H15C11161   2.384   0.278  10.965 -0.3263  0.8215 -3.1311
  109OSM    C1411162   2.226   0.452  11.095  0.2222 -1.0530 -0.0745
  109OSM   H14A11163   2.257   0.426  11.195 -0.8752  1.1969  0.9292
  109OSM   H14B11164   2.172   0.366  11.057 -1.0619 -1.1056  1.7767
  109OSM   H14C11165   2.156   0.533  11.105 -4.0187 -4.4906  1.0042
  109OSM    C1311166   2.410   0.603  11.054  0.1690  0.0484 -0.2245
  109OSM   H13A11167   2.332   0.678  11.061 -0.2202 -0.4644  1.6542
  109OSM   H13B11168   2.490   0.639  10.992  0.4505  1.1637  0.7494
  109OSM   H13C11169   2.460   0.578  11.147  1.2666 -1.9827 -1.2959
  109OSM    C1211170   2.296   0.515  10.855  0.3180 -0.5983 -0.0268
  109OSM   H12A11171   2.373   0.523  10.779 -0.0611  1.9625 -0.2252
  109OSM   H12B11172   2.256   0.615  10.854  1.2691 -0.1975  0.4145
  109OSM    C1111173   2.190   0.415  10.799  0.0222  0.9599  0.0379
  109OSM   H11A11174   2.166   0.436  10.693  4.4722 -1.2537 -1.6612
  109OSM   H11B11175   2.103   0.442  10.863 -0.6440  0.8309 -0.8038
  109OSM      P11176   2.118   0.169  10.832  0.0282  0.1945  0.4035
  109OSM    O1311177   2.176   0.035  10.849 -1.0594 -0.6351 -0.5738
  109OSM    O1411178   2.032   0.218  10.940 -0.1130  0.3126 -0.6043
  109OSM    O1111179   2.024   0.165  10.702 -0.3417 -1.0197 -0.3847
  109OSM    O1211180   2.231   0.279  10.809 -0.3114  0.0531 -0.6338
  109OSM    C1S11181   2.083   0.148  10.568  0.1665 -0.0899 -0.1107
  109OSM    H1S11182   2.192   0.167  10.565  0.4879 -1.6300 -4.0590
  109OSM    H1T11183   2.042   0.230  10.505  0.2020 -1.1507 -1.5502
  109OSM     NF11184   2.157  -0.018  10.411 -0.4730  0.1670  0.3527
  109OSM    HNF11185   2.133  -0.003  10.315 -1.1939 -4.4918 -0.4423
  109OSM    C2S11186   2.064   0.009  10.516  0.7068 -0.1116  0.2038
  109OSM    H2S11187   2.073  -0.069  10.595  0.1050  0.4676  0.8530
  109OSM    C3S11188   1.916   0.001  10.470 -0.1607  0.6300 -0.3866
  109OSM    H3S11189   1.905   0.075  10.389  0.1499 -0.7381 -1.7203
  109OSM     O311190   1.825   0.028  10.575 -0.2574  0.3583 -0.1482
  109OSM    HO311191   1.863   0.109  10.612  1.7985  0.2008 -1.7890
  109OSM    C4S11192   1.888  -0.136  10.429  0.4371 -0.0727  0.2645
  109OSM    H4S11193   1.899  -0.215  10.504  1.9474  0.7703  0.9890
  109OSM    C5S11194   1.822  -0.159  10.320 -0.7304 -0.0409  0.1290
  109OSM    H5S11195   1.787  -0.076  10.257  0.9041 -1.1998 -2.4708
  109OSM    C6S11196   1.784  -0.296  10.276  0.0169 -0.2872 -0.5218
  109OSM    H6S11197   1.675  -0.314  10.275 -0.0311 -0.1460 -2.8563
  109OSM    H6T11198   1.837  -0.375  10.335  0.4953  0.9739  0.8103
  109OSM    C7S11199   1.825  -0.324  10.134 -0.3597  0.0177  0.1950
  109OSM    H7S11200   1.935  -0.323  10.123 -0.4254  0.7593 -0.5248
  109OSM    H7T11201   1.786  -0.242  10.069  2.5464  0.4829 -1.1332
  109OSM    C8S11202   1.781  -0.453  10.083 -0.4322  0.5738  0.3717
  109OSM    H8S11203   1.670  -0.453  10.083 -0.4431  1.3881  0.1205
  109OSM    H8T11204   1.822  -0.526  10.155  0.0616  1.0485  0.5823
  109OSM    C9S11205   1.835  -0.486   9.940 -0.2280  0.1019  0.1110
  109OSM    H9S11206   1.804  -0.590   9.916  1.2015 -0.4271  0.4711
  109OSM    H9T11207   1.944  -0.485   9.920 -0.5596  0.2073 -1.9333
  109OSM   C10S11208   1.778  -0.389   9.840 -0.0899  0.0544  0.0522
  109OSM   H10S11209   1.845  -0.300   9.840 -0.5212  0.4852 -3.1570
  109OSM   H10T11210   1.682  -0.353   9.881 -2.1136 -0.8819 -3.4385
  109OSM   C11S11211   1.760  -0.427   9.698 -0.5012  0.3701 -0.0953
  109OSM   H11S11212   1.664  -0.484   9.702  0.4303 -1.3204 -0.6270
  109OSM   H11T11213   1.846  -0.489   9.663  0.0812  1.9064 -1.5054
  109OSM   C12S11214   1.751  -0.309   9.601 -0.1345  0.0031  0.2423
  109OSM   H12S11215   1.852  -0.265   9.588  0.5595 -2.1817 -2.8911
  109OSM   H12T11216   1.684  -0.233   9.646  1.4173  0.4278  1.9394
  109OSM   C13S11217   1.722  -0.357   9.461 -0.0408 -0.0117  0.0815
  109OSM   H13S11218   1.694  -0.271   9.396 -1.2253  0.4478  1.1706
  109OSM   H13T11219   1.634  -0.424   9.466 -0.4176  0.1061 -3.1593
  109OSM   C14S11220   1.842  -0.428   9.396 -0.4995 -0.1347 -0.1748
  109OSM   H14S11221   1.871  -0.519   9.453 -1.2906 -1.5399 -1.9254
  109OSM   H14T11222   1.928  -0.359   9.392  1.1759 -2.1297 -0.5732
  109OSM   C15S11223   1.818  -0.465   9.247  0.8528  0.2440  0.0243
  109OSM   H15S11224   1.789  -0.368   9.201 -0.2385 -1.1195 -2.3400
  109OSM   H15T11225   1.724  -0.525   9.245 -0.8859  2.7448  1.2419
  109OSM   C16S11226   1.931  -0.534   9.169 -0.1052 -0.4055 -0.3950
  109OSM   H16S11227   1.946  -0.639   9.201  0.4486  0.1362  1.2133
  109OSM   H16T11228   2.028  -0.487   9.197  0.3283 -0.1146 -2.2320
  109OSM   C17S11229   1.929  -0.509   9.021  0.0318  0.0861  0.0110
  109OSM   H17S11230   1.915  -0.399   9.011  2.8190  0.6315  1.3315
  109OSM   H17T11231   1.849  -0.572   8.975 -2.4742  0.2743  3.6958
  109OSM   C18S11232   2.065  -0.527   8.953  0.8594 -0.2277 -0.8223
  109OSM   H18S11233   2.140  -0.448   8.979 -0.8487  0.8795  1.0469
  109OSM   H18T11234   2.054  -0.529   8.843 -0.0198 -1.4920 -0.7291
  109OSM   H18U11235   2.097  -0.623   9.000 -1.1759 -0.9001 -0.7381
  109OSM    C1F11236   2.284  -0.056  10.426 -0.1621 -0.1042  0.3376
  109OSM     OF11237   2.326  -0.076  10.539  0.1047  0.2277 -0.6234
  109OSM    C2F11238   2.378  -0.031  10.307 -0.2889  0.3174  0.0973
  109OSM    H2F11239   2.402   0.078  10.310 -1.5947  0.6636 -0.9698
  109OSM    H2G11240   2.332  -0.042  10.207  1.7174  0.0141 -0.8249
  109OSM    C3F11241   2.502  -0.122  10.328  0.7175 -0.3039  0.6698
  109OSM    H3F11242   2.461  -0.225  10.329 -1.8231  0.5898 -1.3246
  109OSM    H3G11243   2.550  -0.086  10.422  1.8827  1.3271 -0.4839
  109OSM    C4F11244   2.601  -0.117  10.210  0.0721 -0.7014 -0.2287
  109OSM    H4F11245   2.695  -0.175  10.228  1.0692  0.9554  0.0752
  109OSM    H4G11246   2.640  -0.014  10.197  0.3350 -0.9872 -1.8546
  109OSM    C5F11247   2.541  -0.176  10.083  0.3961  0.1850  0.2097
  109OSM    H5F11248   2.440  -0.134  10.063  1.0427  0.7252 -2.2345
  109OSM    H5G11249   2.524  -0.286  10.088 -0.1050  0.0988 -2.4281
  109OSM    C6F11250   2.629  -0.136   9.960  0.6610 -0.1141 -0.0117
  109OSM    H6F11251   2.727  -0.179   9.990  0.5233 -0.4622 -0.0566
  109OSM    H6G11252   2.651  -0.027   9.964  0.0848  0.0314 -0.7529
  109OSM    C7F11253   2.598  -0.201   9.825  0.2076  0.0725 -0.1469
  109OSM    H7F11254   2.497  -0.175   9.785  0.6500  0.5436 -0.9759
  109OSM    H7G11255   2.594  -0.310   9.843 -1.8693  0.2235  0.6097
  109OSM    C8F11256   2.706  -0.175   9.714  0.5511 -0.2400 -0.9421
  109OSM    H8F11257   2.798  -0.225   9.752 -1.3760 -3.2212  0.1832
  109OSM    H8G11258   2.724  -0.066   9.704 -3.1369  0.4184 -1.7292
  109OSM    C9F11259   2.666  -0.230   9.578 -0.3774  0.3972 -0.1414
  109OSM    H9F11260   2.577  -0.184   9.533  0.5043  3.2354  0.7387
  109OSM   C10F11261   2.713  -0.344   9.515 -0.1254  0.6622 -0.1394
  109OSM   H10F11262   2.676  -0.362   9.413  0.2768  0.6353 -0.2817
  109OSM   C11F11263   2.821  -0.443   9.563 -0.2769  0.6496 -0.3884
  109OSM   H11F11264   2.774  -0.498   9.647  1.5610  1.5048  1.3089
  109OSM   H11G11265   2.902  -0.389   9.617 -0.9460 -0.6462  2.0320
  109OSM   C12F11266   2.883  -0.525   9.461 -0.4657 -0.4196  0.3851
  109OSM   H12F11267   2.805  -0.564   9.392 -1.0620  0.1150  0.7428
  109OSM   H12G11268   2.924  -0.619   9.504 -0.9543 -0.3704  0.9815
  109OSM   C13F11269   2.996  -0.453   9.387  0.5288  0.1152 -0.1200
  109OSM   H13F11270   3.052  -0.401   9.468 -0.3528 -2.0941  2.0036
  109OSM   H13G11271   2.947  -0.381   9.318 -1.2251  0.0946  1.0634
  109OSM   C14F11272   3.094  -0.553   9.317  0.4644 -0.6512 -0.4240
  109OSM   H14F11273   3.121  -0.624   9.398  1.6406 -0.2823 -0.4768
  109OSM   H14G11274   3.184  -0.495   9.287  0.2427 -0.0931 -0.0246
  109OSM   C15F11275   3.034  -0.614   9.194  0.1545  0.3683  0.0298
  109OSM   H15F11276   2.993  -0.536   9.127  0.7401 -0.8478 -1.8277
  109OSM   H15G11277   2.945  -0.677   9.216  0.6429 -0.3447  0.0012
  109OSM   C16F11278   3.138  -0.694   9.115 -0.1383  0.0590 -0.5005
  109OSM   H16F11279   3.182  -0.773   9.179 -0.1500 -0.7033 -1.4037
  109OSM   H16G11280   3.222  -0.633   9.075  1.3207 -1.5088  0.0219
  109OSM   C17F11281   3.064  -0.771   9.002  0.0667  0.6432 -0.4015
  109OSM   H17F11282   2.969  -0.812   9.044  0.2236  0.3100 -0.3723
  109OSM   H17G11283   3.125  -0.863   8.988  0.7912  0.6400  2.1728
  109OSM   C18F11284   3.022  -0.696   8.871 -0.1212  0.1540 -0.3583
  109OSM   H18F11285   2.977  -0.598   8.897 -3.6130 -0.9330 -1.6844
  109OSM   H18G11286   2.949  -0.759   8.815 -0.5065  1.2224 -1.0882
  109OSM   H18H11287   3.106  -0.667   8.805  0.6739  0.7450  0.8839
  110OSM      N11288   4.075   5.454  11.138  0.2842  0.0802 -0.0538
  110OSM    C1511289   3.976   5.560  11.097 -0.2094 -0.0598 -0.5414
  110OSM   H15A11290   3.934   5.590  11.192 -0.1164 -1.7434  0.0727
  110OSM   H15B11291   3.901   5.525  11.028 -1.7502 -0.7574  1.3837
  110OSM   H15C11292   4.022   5.646  11.050 -0.5739  0.9471  0.8710
  110OSM    C1411293   4.187   5.525  11.221 -1.2027 -0.5141  0.2042
  110OSM   H14A11294   4.235   5.593  11.153 -2.9690  2.2476  1.5399
  110OSM   H14B11295   4.260   5.453  11.256 -0.1359 -0.2169 -1.3114
  110OSM   H14C11296   4.150   5.575  11.310 -1.9010  0.5419 -0.6602
  110OSM    C1311297   4.017   5.368  11.231  0.3755 -0.1194 -0.0413
  110OSM   H13A11298   4.083   5.285  11.249  0.9913 -0.3217 -2.8345
  110OSM   H13B11299   3.925   5.324  11.196  1.1135 -2.5533  0.8693
  110OSM   H13C11300   3.992   5.413  11.326  0.5880  2.1181 -0.9889
  110OSM    C1211301   4.128   5.381  11.014 -0.2022  0.0555  0.2027
  110OSM   H12A11302   4.060   5.306  10.979  0.1473 -0.1837  0.0277
  110OSM   H12B11303   4.211   5.323  11.053  0.5271  2.8563  3.2801
  110OSM    C1111304   4.167   5.468  10.892  0.0505  0.5260 -0.0598
  110OSM   H11A11305   4.088   5.531  10.847 -0.9186 -0.2833  0.4579
  110OSM   H11B11306   4.185   5.396  10.810 -3.2144 -0.2880 -0.1896
  110OSM      P11307   4.423   5.491  10.943 -0.3389  0.3409  0.0843
  110OSM    O1311308   4.511   5.595  10.995 -0.1328  0.6135 -0.0330
  110OSM    O1411309   4.416   5.357  11.009 -0.0356 -0.2128 -0.2604
  110OSM    O1111310   4.468   5.472  10.791  0.2614 -0.1231 -0.0802
  110OSM    O1211311   4.281   5.556  10.929  0.0537  0.0698  0.8081
  110OSM    C1S11312   4.476   5.578  10.696 -0.3845 -0.5652 -0.1614
  110OSM    H1S11313   4.556   5.643  10.738  2.1282 -3.8159  0.5095
  110OSM    H1T11314   4.385   5.638  10.678  0.4436  1.4627  1.9602
  110OSM     NF11315   4.579   5.633  10.486 -0.0380 -0.5258  0.2466
  110OSM    HNF11316   4.519   5.682  10.423 -1.1172 -0.2637  1.4327
  110OSM    C2S11317   4.512   5.526  10.563  0.3531 -0.0862 -0.0552
  110OSM    H2S11318   4.598   5.457  10.575 -0.9789 -2.4870 -2.8838
  110OSM    C3S11319   4.397   5.447  10.495  0.5786  0.4337  0.1902
  110OSM    H3S11320   4.305   5.509  10.490 -0.5293 -1.0560  1.3136
  110OSM     O311321   4.372   5.327  10.572  0.6065 -1.0265 -0.4490
  110OSM    HO311322   4.411   5.352  10.656 -0.5450 -0.3559 -0.0925
  110OSM    C4S11323   4.436   5.401  10.363 -0.3566 -0.1916 -0.1048
  110OSM    H4S11324   4.507   5.319  10.349 -0.4759  0.1225 -3.3862
  110OSM    C5S11325   4.383   5.460  10.261 -0.2821  0.1631  0.2194
  110OSM    H5S11326   4.313   5.543  10.279 -0.6650  0.3540 -1.9388
  110OSM    C6S11327   4.402   5.429  10.114  0.8116 -0.5220 -1.4119
  110OSM    H6S11328   4.475   5.501  10.070  1.9098  0.8885  2.3923
  110OSM    H6T11329   4.303   5.442  10.064 -0.1045  0.3073  0.5327
  110OSM    C7S11330   4.459   5.289  10.081 -0.4475  0.3477  0.1966
  110OSM    H7S11331   4.400   5.204  10.123 -2.2561  0.9693 -0.9587
  110OSM    H7T11332   4.555   5.251  10.121 -1.1412 -2.2215 -0.3825
  110OSM    C8S11333   4.469   5.260   9.931  0.2515  0.0732  0.0797
  110OSM    H8S11334   4.498   5.358   9.887  0.2547  1.2248  2.4731
  110OSM    H8T11335   4.378   5.218   9.884  1.0839  1.0419 -2.6227
  110OSM    C9S11336   4.585   5.165   9.902 -0.0190  0.2424  0.7207
  110OSM    H9S11337   4.553   5.065   9.938 -1.9260  0.1837 -0.9027
  110OSM    H9T11338   4.677   5.187   9.959  0.8935 -1.4290 -0.0414
  110OSM   C10S11339   4.615   5.181   9.745 -0.1129 -0.0653  0.2062
  110OSM   H10S11340   4.627   5.289   9.723  0.8915 -0.4799 -1.4223
  110OSM   H10T11341   4.525   5.159   9.685  0.0638  1.3398 -0.6025
  110OSM   C11S11342   4.735   5.092   9.703  0.2584  1.0018  0.2180
  110OSM   H11S11343   4.703   4.986   9.711  0.8146  0.8030 -0.1429
  110OSM   H11T11344   4.818   5.111   9.775  1.6243  1.0867 -1.3131
  110OSM   C12S11345   4.788   5.111   9.558  0.4434 -0.4343  0.3199
  110OSM   H12S11346   4.871   5.039   9.545  0.5995 -0.4714  1.4090
  110OSM   H12T11347   4.823   5.215   9.542 -2.3075  0.3300 -1.6294
  110OSM   C13S11348   4.681   5.087   9.454  0.7223 -0.2171 -0.4576
  110OSM   H13S11349   4.591   5.150   9.470  1.2957  0.6884 -0.7091
  110OSM   H13T11350   4.663   4.977   9.453 -1.0700  0.0227  0.7837
  110OSM   C14S11351   4.730   5.115   9.310 -0.1187 -0.1122 -0.1424
  110OSM   H14S11352   4.831   5.075   9.287 -0.2122 -0.1037 -0.5787
  110OSM   H14T11353   4.752   5.223   9.298 -2.7183  0.4846 -0.3184
  110OSM   C15S11354   4.637   5.062   9.205 -0.5204  0.2436 -0.1137
  110OSM   H15S11355   4.533   5.100   9.214 -1.1512 -1.1801 -1.0115
  110OSM   H15T11356   4.633   4.952   9.221  0.5818  0.3186  0.8360
  110OSM   C16S11357   4.690   5.088   9.070  0.5073 -0.6499  0.0111
  110OSM   H16S11358   4.785   5.031   9.059  1.8160  1.2706  0.7066
  110OSM   H16T11359   4.712   5.197   9.058  0.6072 -0.1591  3.5266
  110OSM   C17S11360   4.588   5.046   8.960 -0.7945  0.2801 -0.2208
  110OSM   H17S11361   4.497   5.101   8.991 -0.1611  0.2466  1.8366
  110OSM   H17T11362   4.553   4.941   8.973 -0.6252  0.1488 -0.7689
  110OSM   C18S11363   4.641   5.068   8.815 -0.2960  0.1296 -0.1062
  110OSM   H18S11364   4.554   5.072   8.747  1.5374 -2.3469 -2.8480
  110OSM   H18T11365   4.697   4.975   8.791  3.1921  2.0487 -0.1770
  110OSM   H18U11366   4.715   5.151   8.804 -1.1045  1.0362  1.0200
  110OSM    C1F11367   4.695   5.687  10.531  0.1262  0.4499  0.4424
  110OSM     OF11368   4.771   5.629  10.610  0.2830  0.1546 -0.8872
  110OSM    C2F11369   4.721   5.824  10.490 -0.3099  0.2556 -0.2938
  110OSM    H2F11370   4.824   5.841  10.528 -0.3545 -0.3429  0.1114
  110OSM    H2G11371   4.649   5.895  10.535 -0.2263 -0.6449  1.2985
  110OSM    C3F11372   4.704   5.842  10.335 -0.5460  0.4136 -0.1523
  110OSM    H3F11373   4.600   5.811  10.314  0.1269 -0.9925 -1.5912
  110OSM    H3G11374   4.773   5.769  10.288 -0.7448  1.4269 -2.1608
  110OSM    C4F11375   4.741   5.990  10.298 -0.2420  0.3377 -0.5965
  110OSM    H4F11376   4.850   6.010  10.309 -0.3405  1.7512 -1.8451
  110OSM    H4G11377   4.686   6.054  10.369 -0.9971 -1.3691  0.4194
  110OSM    C5F11378   4.713   6.020  10.149 -0.0115 -0.1936  0.9013
  110OSM    H5F11379   4.608   5.985  10.147 -0.3284  0.5837  2.6083
  110OSM    H5G11380   4.776   5.945  10.096  1.4937  2.2900 -1.0783
  110OSM    C6F11381   4.725   6.177  10.115 -0.0656 -0.3580  0.2668
  110OSM    H6F11382   4.828   6.206  10.146 -0.4965  2.3725 -0.5504
  110OSM    H6G11383   4.650   6.232  10.176  0.3740  0.4042  0.1397
  110OSM    C7F11384   4.723   6.201   9.963 -0.2608 -0.2388  1.1360
  110OSM    H7F11385   4.616   6.192   9.932 -0.0901  2.4253 -0.6420
  110OSM    H7G11386   4.774   6.122   9.905  0.4898  1.0515 -0.0200
  110OSM    C8F11387   4.770   6.340   9.911 -0.5577  0.3234 -0.4766
  110OSM    H8F11388   4.773   6.327   9.801 -2.7307 -0.1514 -0.5277
  110OSM    H8G11389   4.878   6.356   9.934 -0.3867  0.0571 -1.0969
  110OSM    C9F11390   4.684   6.447   9.969  0.4034  0.2251 -0.1625
  110OSM    H9F11391   4.739   6.496  10.050  0.7116  0.0511 -0.2659
  110OSM   C10F11392   4.553   6.480   9.938 -0.2293 -0.5850  0.2899
  110OSM   H10F11393   4.505   6.563   9.992  0.2863 -1.3781  2.0214
  110OSM   C11F11394   4.480   6.416   9.823 -0.5848 -0.0107 -0.4658
  110OSM   H11F11395   4.381   6.383   9.860 -0.1158  0.0962  0.9186
  110OSM   H11G11396   4.532   6.326   9.784  1.6463  1.8404 -2.0837
  110OSM   C12F11397   4.449   6.528   9.715 -0.8797  0.7760  0.6925
  110OSM   H12F11398   4.540   6.586   9.687  0.8733 -1.6498  1.0463
  110OSM   H12G11399   4.371   6.600   9.746 -0.6855  0.6416  1.5295
  110OSM   C13F11400   4.401   6.452   9.587  0.6092  0.1087 -0.1611
  110OSM   H13F11401   4.410   6.515   9.495 -2.4345  0.0762 -0.6034
  110OSM   H13G11402   4.295   6.427   9.608  0.4850  0.2259 -0.6375
  110OSM   C14F11403   4.477   6.329   9.533 -0.5889  0.6567 -0.6548
  110OSM   H14F11404   4.470   6.237   9.596  1.3007  0.5636 -0.5213
  110OSM   H14G11405   4.584   6.349   9.553 -0.9161  1.5284  0.3191
  110OSM   C15F11406   4.460   6.297   9.390  0.4725  0.7945  0.2591
  110OSM   H15F11407   4.484   6.391   9.336  1.9969 -0.3083 -1.0623
  110OSM   H15G11408   4.352   6.284   9.364  0.6078  1.2590 -0.5770
  110OSM   C16F11409   4.536   6.175   9.332 -0.3550 -0.4083  0.4652
  110OSM   H16F11410   4.508   6.080   9.382  1.2218 -0.5244  1.2132
  110OSM   H16G11411   4.646   6.187   9.344 -0.0370  1.7920 -3.1293
  110OSM   C17F11412   4.510   6.183   9.181 -0.2016 -0.1354  0.1099
  110OSM   H17F11413   4.537   6.286   9.149  0.7236 -0.7488 -1.1103
  110OSM   H17G11414   4.402   6.163   9.162 -0.6423  2.4152 -0.4386
  110OSM   C18F11415   4.612   6.091   9.102  0.2682  0.1158 -0.1382
  110OSM   H18F11416   4.714   6.133   9.113 -0.6894  2.2448  1.3329
  110OSM   H18G11417   4.579   6.101   8.996 -1.7516 -0.8226  0.3367
  110OSM   H18H11418   4.604   5.983   9.129 -1.0463  0.0584 -0.6437
  111OSM      N11419   5.944   3.263  10.910  0.3994  0.0900  0.3539
  111OSM    C1511420   5.925   3.164  11.018 -0.0333  1.0577  0.0182
  111OSM   H15A11421   5.828   3.179  11.063 -1.8825 -3.0162 -2.0263
  111OSM   H15B11422   6.000   3.174  11.094  0.0680  1.1201 -0.0883
  111OSM   H15C11423   5.936   3.068  10.970 -0.3857  1.5327 -1.0598
  111OSM    C1411424   5.946   3.397  10.970  0.0533  0.4606  0.4785
  111OSM   H14A11425   5.863   3.418  11.035 -2.2199 -0.1005 -2.0975
  111OSM   H14B11426   5.955   3.477  10.898 -0.2246  1.2651  1.3102
  111OSM   H14C11427   6.037   3.407  11.028  2.3886 -1.6053 -2.4454
  111OSM    C1311428   6.079   3.242  10.854 -0.2253  0.1134  0.2352
  111OSM   H13A11429   6.105   3.318  10.782  1.2345 -1.3056 -0.8071
  111OSM   H13B11430   6.100   3.148  10.805 -1.2490 -0.1952  0.3704
  111OSM   H13C11431   6.151   3.276  10.926 -1.5510  2.5557  0.4998
  111OSM    C1211432   5.829   3.243  10.809 -0.0995 -0.5736 -0.0324
  111OSM   H12A11433   5.745   3.286  10.861 -1.7551 -3.1036 -0.4773
  111OSM   H12B11434   5.810   3.138  10.796 -0.0124 -0.8444  1.7823
  111OSM    C1111435   5.838   3.317  10.676  0.3729  0.3050 -0.2740
  111OSM   H11A11436   5.777   3.277  10.593 -0.5545  0.8076  0.1464
  111OSM   H11B11437   5.939   3.303  10.631  0.0252 -2.4673 -0.3493
  111OSM      P11438   5.673   3.514  10.744  0.2867  0.1334  0.6281
  111OSM    O1311439   5.608   3.424  10.837  0.3721  0.1795 -0.4994
  111OSM    O1411440   5.701   3.652  10.801  0.1841  0.2831  0.7017
  111OSM    O1111441   5.578   3.530  10.610 -0.3188  0.0766 -0.0509
  111OSM    O1211442   5.815   3.452  10.695 -0.1953 -0.4461  0.2421
  111OSM    C1S11443   5.637   3.593  10.498  0.0618  1.1074  0.1450
  111OSM    H1S11444   5.713   3.523  10.458 -0.4449 -0.4886  1.7932
  111OSM    H1T11445   5.673   3.694  10.526  0.8968  1.0183 -0.5890
  111OSM     NF11446   5.611   3.697  10.271  0.2444  0.0809  0.0628
  111OSM    HNF11447   5.611   3.796  10.264 -2.9856  0.2761  1.1452
  111OSM    C2S11448   5.536   3.630  10.383 -0.1432  0.5842 -0.3277
  111OSM    H2S11449   5.479   3.540  10.351 -0.6700  0.7375  0.1575
  111OSM    C3S11450   5.425   3.724  10.437 -0.7555  0.2357 -0.1193
  111OSM    H3S11451   5.483   3.809  10.481 -0.5958 -0.8799  1.9694
  111OSM     O311452   5.356   3.662  10.545 -0.5453 -0.6664  0.4020
  111OSM    HO311453   5.410   3.585  10.565 -0.6432  0.0501  4.1000
  111OSM    C4S11454   5.330   3.757  10.332 -0.1076  0.2961 -0.1830
  111OSM    H4S11455   5.276   3.683  10.272 -1.2378  1.5747 -0.7868
  111OSM    C5S11456   5.304   3.884  10.290  0.3478  0.2849 -0.1642
  111OSM    H5S11457   5.362   3.967  10.332  2.2020 -0.6418 -0.8174
  111OSM    C6S11458   5.214   3.931  10.178  0.4136  0.7421 -0.2972
  111OSM    H6S11459   5.170   4.027  10.211 -1.6541 -0.3176  0.1618
  111OSM    H6T11460   5.118   3.879  10.158  0.2685  1.4937 -1.6987
  111OSM    C7S11461   5.290   3.942  10.041  0.1800 -0.4170 -0.4050
  111OSM    H7S11462   5.323   3.841  10.008 -3.4412 -2.0051  0.4131
  111OSM    H7T11463   5.382   4.004  10.043 -0.4928  0.8788 -3.4891
  111OSM    C8S11464   5.201   3.992   9.925  0.2836 -0.2127  0.4621
  111OSM    H8S11465   5.164   4.093   9.953 -0.3651  0.4254 -2.3423
  111OSM    H8T11466   5.109   3.932   9.911 -1.1503  1.5488  1.9536
  111OSM    C9S11467   5.280   3.995   9.794 -0.4304 -0.0261  0.0580
  111OSM    H9S11468   5.321   3.892   9.786 -4.0236 -1.6389  0.6012
  111OSM    H9T11469   5.368   4.063   9.804  0.3086 -0.7434 -1.2406
  111OSM   C10S11470   5.194   4.008   9.669 -0.3161  0.6661 -0.5114
  111OSM   H10S11471   5.139   4.104   9.665 -0.8296  0.4362  0.6989
  111OSM   H10T11472   5.119   3.926   9.675 -1.5008  1.8029  2.0711
  111OSM   C11S11473   5.274   3.976   9.546 -0.3610  0.5825  0.5844
  111OSM   H11S11474   5.334   3.883   9.555  0.9406  0.9810 -2.5348
  111OSM   H11T11475   5.351   4.052   9.523  1.1348 -1.1874 -0.6159
  111OSM   C12S11476   5.180   3.955   9.426 -0.3944 -0.2758  0.7468
  111OSM   H12S11477   5.241   3.947   9.333 -0.9011  1.1884  0.2597
  111OSM   H12T11478   5.103   4.036   9.422  1.1690  1.2981  1.1708
  111OSM   C13S11479   5.118   3.812   9.430 -0.2562  0.2400  0.2537
  111OSM   H13S11480   5.052   3.822   9.518 -0.9900 -2.1880  0.0521
  111OSM   H13T11481   5.187   3.731   9.462 -2.3633 -1.0998  1.6214
  111OSM   C14S11482   5.041   3.778   9.301  0.1879  0.1266 -0.3020
  111OSM   H14S11483   5.113   3.766   9.217  0.3055  1.9214 -0.4981
  111OSM   H14T11484   4.966   3.858   9.289 -2.2420 -1.8882  0.6053
  111OSM   C15S11485   4.955   3.655   9.308 -0.2624 -0.3416  0.4930
  111OSM   H15S11486   4.909   3.646   9.408  1.5233  0.0492  1.3828
  111OSM   H15T11487   5.022   3.566   9.298 -1.9085 -1.5698  0.0178
  111OSM   C16S11488   4.850   3.656   9.191 -0.1632  0.5779 -1.1533
  111OSM   H16S11489   4.897   3.672   9.092  0.5374 -0.4149 -1.0017
  111OSM   H16T11490   4.779   3.740   9.206 -2.4673 -1.6411  1.6122
  111OSM   C17S11491   4.779   3.516   9.190 -0.3627  0.6715 -0.9096
  111OSM   H17S11492   4.733   3.511   9.291  0.7226 -0.5085 -0.4513
  111OSM   H17T11493   4.851   3.432   9.187 -1.7074 -0.8312  2.8315
  111OSM   C18S11494   4.665   3.485   9.092  0.2685  0.3945  0.0873
  111OSM   H18S11495   4.693   3.429   9.001 -1.2529 -0.4145  0.0848
  111OSM   H18T11496   4.615   3.583   9.079  0.8100  0.5814 -0.6079
  111OSM   H18U11497   4.596   3.416   9.145  0.0202  2.1505  2.1906
  111OSM    C1F11498   5.699   3.634  10.191  0.4666 -0.4546  0.2350
  111OSM     OF11499   5.723   3.518  10.206 -0.4730  0.4186 -0.4599
  111OSM    C2F11500   5.752   3.714  10.084  0.6388  0.4127  0.2744
  111OSM    H2F11501   5.844   3.668  10.041  0.0326  1.5496 -2.4410
  111OSM    H2G11502   5.776   3.814  10.126  1.9575 -0.4957  1.7874
  111OSM    C3F11503   5.646   3.738   9.970 -0.6188  0.2086 -0.4537
  111OSM    H3F11504   5.566   3.805  10.008 -0.6685 -1.7405  3.4251
  111OSM    H3G11505   5.600   3.649   9.924 -0.5150  0.6825 -1.5078
  111OSM    C4F11506   5.727   3.806   9.857  0.3209 -0.4269 -0.6675
  111OSM    H4F11507   5.790   3.734   9.801  0.0285 -0.4171 -1.0066
  111OSM    H4G11508   5.794   3.890   9.883  0.7349 -0.8156 -0.4671
  111OSM    C5F11509   5.619   3.864   9.768 -0.4497  0.2762  0.4112
  111OSM    H5F11510   5.540   3.921   9.822  0.8964  0.2607  2.4942
  111OSM    H5G11511   5.552   3.792   9.716 -1.5930  2.3750 -1.2027
  111OSM    C6F11512   5.659   3.967   9.663  0.4289 -0.1545 -0.8981
  111OSM    H6F11513   5.679   4.056   9.726 -0.5563  0.4006 -1.3485
  111OSM    H6G11514   5.570   3.997   9.604 -1.2841  0.6425  1.9085
  111OSM    C7F11515   5.768   3.922   9.572  0.0916 -0.3679  0.1676
  111OSM    H7F11516   5.730   3.829   9.523  1.1261  0.7066 -2.9031
  111OSM    H7G11517   5.869   3.915   9.617 -0.3125  1.9817  1.6234
  111OSM    C8F11518   5.791   4.024   9.460  0.4322  0.7105 -0.6265
  111OSM    H8F11519   5.822   4.116   9.515  0.1358  0.6439 -0.3481
  111OSM    H8G11520   5.689   4.030   9.418  1.4915 -2.0801 -4.0860
  111OSM    C9F11521   5.896   3.983   9.359  0.5601 -0.0173  0.4545
  111OSM    H9F11522   5.994   3.957   9.401  1.0705  2.3823  0.8703
  111OSM   C10F11523   5.892   3.964   9.227  0.3661 -0.1920 -0.7206
  111OSM   H10F11524   5.980   3.919   9.178  1.2301  0.4058  0.2435
  111OSM   C11F11525   5.775   3.988   9.142 -0.4207  0.4973 -0.4413
  111OSM   H11F11526   5.801   4.063   9.064  3.2430 -1.7514 -1.6268
  111OSM   H11G11527   5.687   4.025   9.199  1.3553  1.8455  1.6000
  111OSM   C12F11528   5.707   3.868   9.077 -0.6869 -0.3981  0.4277
  111OSM   H12F11529   5.788   3.796   9.055 -0.9113 -0.6205  0.3341
  111OSM   H12G11530   5.669   3.904   8.979  1.0378  1.1658  0.2638
  111OSM   C13F11531   5.586   3.814   9.148 -0.4720  0.1799  0.0178
  111OSM   H13F11532   5.525   3.900   9.183  2.4030  2.4376 -0.1021
  111OSM   H13G11533   5.628   3.765   9.239 -1.1753 -1.0800 -0.3104
  111OSM   C14F11534   5.491   3.721   9.083  0.1671 -1.1396 -0.3992
  111OSM   H14F11535   5.467   3.758   8.980  1.3730 -3.5233 -1.6267
  111OSM   H14G11536   5.395   3.708   9.137 -1.5136  1.2069 -2.6013
  111OSM   C15F11537   5.555   3.583   9.063  0.1091 -0.6034 -0.7379
  111OSM   H15F11538   5.590   3.541   9.160 -1.4577 -0.0418  0.0897
  111OSM   H15G11539   5.645   3.585   8.997 -2.0406  2.4606 -3.9233
  111OSM   C16F11540   5.454   3.473   9.025  0.7192 -0.0271 -0.2362
  111OSM   H16F11541   5.407   3.489   8.925  0.4846 -0.3679 -0.1824
  111OSM   H16G11542   5.362   3.485   9.088  0.4118 -1.8784 -0.2913
  111OSM   C17F11543   5.513   3.336   9.041  0.2565  0.3548  0.7395
  111OSM   H17F11544   5.539   3.324   9.149  0.1611  0.3826  0.7656
  111OSM   H17G11545   5.607   3.325   8.982  1.5646 -0.6881  2.8625
  111OSM   C18F11546   5.419   3.220   9.017  0.2128 -0.0147 -0.0362
  111OSM   H18F11547   5.320   3.251   9.055 -0.1266 -0.8988 -0.1717
  111OSM   H18G11548   5.459   3.126   9.061  0.5097 -1.2322 -2.6581
  111OSM   H18H11549   5.408   3.196   8.909  2.0161 -0.0195 -0.2625
  112OSM      N11550   3.734   1.283  10.929 -0.7722 -0.0686 -0.0955
  112OSM    C1511551   3.656   1.158  10.970 -0.1085  0.0536  0.6068
  112OSM   H15A11552   3.663   1.156  11.078 -0.1926  0.2308  0.6156
  112OSM   H15B11553   3.702   1.074  10.921 -1.2231 -0.5093  0.4853
  112OSM   H15C11554   3.551   1.162  10.941  0.7100 -0.0456 -2.8419
  112OSM    C1411555   3.676   1.399  11.001 -0.0950 -0.7120  0.1259
  112OSM   H14A11556   3.574   1.414  10.969 -0.3226  0.7579  1.4473
  112OSM   H14B11557   3.743   1.478  10.972  0.5326 -1.1581  0.3341
  112OSM   H14C11558   3.665   1.377  11.107  1.3222 -0.6696  0.2937
  112OSM    C1311559   3.879   1.268  10.976  0.5473  0.0461 -0.7967
  112OSM   H13A11560   3.926   1.194  10.912 -0.5347 -1.2946 -0.0972
  112OSM   H13B11561   3.874   1.222  11.074  3.2744 -0.5510 -0.8681
  112OSM   H13C11562   3.931   1.362  10.985 -0.5498  0.5729  0.3889
  112OSM    C1211563   3.732   1.303  10.773 -0.3340 -0.1971 -0.1891
  112OSM   H12A11564   3.784   1.221  10.726  0.6162  1.8333 -2.9607
  112OSM   H12B11565   3.788   1.393  10.749  1.2032 -1.2507 -0.6723
  112OSM    C1111566   3.594   1.317  10.700  0.4593 -0.1735  0.1021
  112OSM   H11A11567   3.610   1.318  10.590  0.6875 -2.0469  0.0826
  112OSM   H11B11568   3.551   1.408  10.748 -2.6036 -1.7869  0.6641
  112OSM      P11569   3.355   1.212  10.664 -0.2439 -0.2202 -0.0177
  112OSM    O1311570   3.314   1.071  10.653 -0.3648 -0.4931 -0.2992
  112OSM    O1411571   3.263   1.300  10.739  0.3552  0.6955 -0.4214
  112OSM    O1111572   3.386   1.270  10.517 -0.1103  0.2822 -0.8626
  112OSM    O1211573   3.497   1.220  10.731 -0.7767 -0.2855  0.3105
  112OSM    C1S11574   3.278   1.337  10.443 -0.2677  0.8846 -0.1533
  112OSM    H1S11575   3.211   1.395  10.510  1.8612  3.1289  0.1819
  112OSM    H1T11576   3.219   1.267  10.380  0.3419  1.7093 -1.6865
  112OSM     NF11577   3.236   1.498  10.259  0.3673 -0.0717 -0.1890
  112OSM    HNF11578   3.205   1.462  10.172  1.1715  0.1753 -0.5795
  112OSM    C2S11579   3.339   1.422  10.328  0.3313 -0.5181  0.3022
  112OSM    H2S11580   3.417   1.494  10.361  1.8909 -0.6787 -2.6517
  112OSM    C3S11581   3.418   1.328  10.237 -0.2113  0.1542 -0.0324
  112OSM    H3S11582   3.353   1.240  10.220  0.2311 -0.0462 -0.6961
  112OSM     O311583   3.542   1.279  10.292  0.3226  0.1244 -0.2984
  112OSM    HO311584   3.540   1.293  10.387 -0.7634 -0.8102 -0.1562
  112OSM    C4S11585   3.456   1.392  10.107 -0.4186 -0.1363  0.3071
  112OSM    H4S11586   3.483   1.499  10.108 -1.6896  0.1969  0.1071
  112OSM    C5S11587   3.454   1.327   9.987  0.3180 -0.0975  0.5236
  112OSM    H5S11588   3.432   1.221   9.968  3.0227 -0.2228 -2.9734
  112OSM    C6S11589   3.502   1.386   9.855 -0.1625  0.4256 -0.1614
  112OSM    H6S11590   3.601   1.345   9.824 -0.0233 -1.1605  2.1349
  112OSM    H6T11591   3.510   1.497   9.860  0.9180  0.3320  0.4344
  112OSM    C7S11592   3.418   1.347   9.730  0.4920 -0.1214 -0.3106
  112OSM    H7S11593   3.315   1.378   9.756 -0.0541 -1.4008 -0.8359
  112OSM    H7T11594   3.437   1.237   9.724 -0.4331 -0.2197 -2.4249
  112OSM    C8S11595   3.466   1.423   9.611  0.7110  0.2065  0.3695
  112OSM    H8S11596   3.574   1.397   9.604  1.2159  2.1333  0.2476
  112OSM    H8T11597   3.458   1.534   9.613  2.2440  0.3449  0.5717
  112OSM    C9S11598   3.406   1.369   9.483  0.0173 -0.0053 -0.5577
  112OSM    H9S11599   3.295   1.363   9.488 -0.0002 -0.2685 -1.0995
  112OSM    H9T11600   3.440   1.264   9.467  1.3801 -0.1793  2.7647
  112OSM   C10S11601   3.446   1.452   9.364  0.3453  0.1268 -0.3213
  112OSM   H10S11602   3.544   1.504   9.365  0.1496  0.5047 -0.4579
  112OSM   H10T11603   3.380   1.542   9.364  0.6951  0.6243  4.0221
  112OSM   C11S11604   3.427   1.362   9.238 -0.6986 -0.7698 -0.4940
  112OSM   H11S11605   3.325   1.319   9.249 -2.0951  2.7274  2.2023
  112OSM   H11T11606   3.496   1.277   9.257 -1.1059 -0.5815  2.1071
  112OSM   C12S11607   3.456   1.425   9.106  0.1860  0.0360  0.4691
  112OSM   H12S11608   3.565   1.435   9.087  0.0712 -0.6118 -0.6096
  112OSM   H12T11609   3.412   1.527   9.092 -1.1262 -0.8760 -3.2173
  112OSM   C13S11610   3.395   1.335   8.991  0.4431  0.0052 -0.4082
  112OSM   H13S11611   3.291   1.318   9.025 -0.8902  2.1941 -2.9874
  112OSM   H13T11612   3.454   1.241   8.995  0.6982  0.0495 -2.4014
  112OSM   C14S11613   3.393   1.418   8.861  0.1413 -0.1881  0.2409
  112OSM   H14S11614   3.491   1.459   8.829  0.5783 -0.9221  0.6195
  112OSM   H14T11615   3.337   1.509   8.892 -1.9222 -1.6172  0.9451
  112OSM   C15S11616   3.318   1.349   8.753  0.4960  0.2500 -1.5414
  112OSM   H15S11617   3.226   1.301   8.794  1.0332  0.4590 -0.0196
  112OSM   H15T11618   3.394   1.275   8.721 -0.1862 -2.3979  2.2863
  112OSM   C16S11619   3.278   1.431   8.635  0.0006  0.3980  0.3917
  112OSM   H16S11620   3.292   1.540   8.654  0.3852  0.8244 -2.0796
  112OSM   H16T11621   3.167   1.428   8.622 -0.0311  1.3110  0.3610
  112OSM   C17S11622   3.341   1.391   8.502  0.1569 -0.2693  0.4560
  112OSM   H17S11623   3.327   1.285   8.472 -3.1899  0.4645 -0.9729
  112OSM   H17T11624   3.452   1.403   8.503  0.1614  0.2672 -1.6892
  112OSM   C18S11625   3.285   1.475   8.387  0.2064  0.3667 -0.3553
  112OSM   H18S11626   3.320   1.446   8.286  0.6302  2.4907 -0.8510
  112OSM   H18T11627   3.326   1.575   8.411 -1.9634  0.9540  1.1860
  112OSM   H18U11628   3.175   1.471   8.397  0.3604  1.4864  3.4646
  112OSM    C1F11629   3.169   1.597  10.320  0.5526 -0.4955 -0.4083
  112OSM     OF11630   3.208   1.626  10.430  0.4924  0.0973 -0.0833
  112OSM    C2F11631   3.062   1.664  10.248 -0.3013 -0.1196  0.1341
  112OSM    H2F11632   2.978   1.697  10.314 -0.5560 -0.3166 -0.0929
  112OSM    H2G11633   3.040   1.582  10.177  0.1905 -0.6713  0.6095
  112OSM    C3F11634   3.096   1.794  10.175  0.2072 -0.1454 -1.1873
  112OSM    H3F11635   3.179   1.788  10.101  0.4331 -1.3328 -0.8448
  112OSM    H3G11636   3.128   1.868  10.251 -1.4277  1.0467 -1.6170
  112OSM    C4F11637   2.977   1.854  10.095 -0.3511  0.7192 -0.2444
  112OSM    H4F11638   2.901   1.877  10.172 -0.7308  1.0026 -0.6967
  112OSM    H4G11639   2.939   1.774  10.028  2.8008  0.6695 -2.1699
  112OSM    C5F11640   3.014   1.978  10.014 -0.0740  0.7799 -0.0084
  112OSM    H5F11641   3.097   1.946   9.948  1.3693  2.6139  0.8369
  112OSM    H5G11642   3.046   2.061  10.080 -2.0608  1.3764  0.2881
  112OSM    C6F11643   2.897   2.047   9.934  0.0311 -1.2950 -0.3177
  112OSM    H6F11644   2.939   2.136   9.883  0.1457 -0.1753  1.6081
  112OSM    H6G11645   2.820   2.083  10.005  1.1640 -2.1383  1.4153
  112OSM    C7F11646   2.827   1.958   9.834  0.2319  0.4080 -0.3394
  112OSM    H7F11647   2.736   2.014   9.802  0.6137  0.7477 -0.8446
  112OSM    H7G11648   2.793   1.862   9.878 -0.4584 -0.0570 -1.8165
  112OSM    C8F11649   2.916   1.929   9.718  0.2931 -0.3325  0.6069
  112OSM    H8F11650   2.866   1.853   9.654  1.1362 -1.3149  1.0915
  112OSM    H8G11651   3.012   1.882   9.748 -0.0743 -2.3172 -1.0722
  112OSM    C9F11652   2.933   2.050   9.622 -0.2063 -0.0374 -0.0622
  112OSM    H9F11653   2.970   2.140   9.674  0.9215 -1.1920  1.2034
  112OSM   C10F11654   2.917   2.041   9.485  0.2781 -0.1093  0.1805
  112OSM   H10F11655   2.922   2.134   9.428 -0.2498 -0.6524 -0.7790
  112OSM   C11F11656   2.866   1.923   9.403 -0.3225 -0.3563 -0.2851
  112OSM   H11F11657   2.830   1.836   9.461  0.1782  0.9095  2.0670
  112OSM   H11G11658   2.953   1.891   9.342 -0.4656  0.6981 -1.0641
  112OSM   C12F11659   2.758   1.970   9.306  0.9930 -0.6314  0.2325
  112OSM   H12F11660   2.660   1.984   9.357 -0.0180  1.9027 -2.1229
  112OSM   H12G11661   2.737   1.882   9.241  0.7860 -0.3521 -0.0830
  112OSM   C13F11662   2.797   2.074   9.203 -0.6673  0.0271  0.3473
  112OSM   H13F11663   2.885   2.036   9.148  0.5898  3.2010 -0.0440
  112OSM   H13G11664   2.831   2.168   9.251  0.3644  0.6962 -1.5686
  112OSM   C14F11665   2.673   2.099   9.115 -0.4928 -0.7988 -1.3499
  112OSM   H14F11666   2.598   2.152   9.177  0.2478  0.0665 -1.1687
  112OSM   H14G11667   2.642   1.994   9.095  0.2365 -1.0809 -1.0245
  112OSM   C15F11668   2.702   2.180   8.988 -0.0156  0.1260  0.4179
  112OSM   H15F11669   2.770   2.266   9.007  1.2639 -0.6501 -0.4759
  112OSM   H15G11670   2.608   2.228   8.954 -1.0288 -1.2072  1.2334
  112OSM   C16F11671   2.771   2.094   8.879 -0.3222  0.2439  0.2849
  112OSM   H16F11672   2.719   2.000   8.851  0.1531  0.5291 -1.6976
  112OSM   H16G11673   2.869   2.066   8.923 -0.7204  0.7669  1.5378
  112OSM   C17F11674   2.810   2.164   8.750 -0.1754 -0.1441 -0.0616
  112OSM   H17F11675   2.872   2.093   8.690  0.2580  1.1241 -1.1601
  112OSM   H17G11676   2.871   2.254   8.772 -1.0168  0.1004  1.4529
  112OSM   C18F11677   2.692   2.208   8.670  0.4921 -0.9028 -0.3316
  112OSM   H18F11678   2.628   2.269   8.737  1.2155 -0.2075 -0.2617
  112OSM   H18G11679   2.634   2.121   8.631  1.6396 -1.6212 -0.4807
  112OSM   H18H11680   2.715   2.271   8.581 -1.2691  0.5012  0.1503
  113OSM      N11681   4.551   0.127  10.933 -0.2858 -0.8173  0.3051
  113OSM    C1511682   4.575   0.248  11.022 -0.3714 -0.0837 -0.0148
  113OSM   H15A11683   4.682   0.258  11.034 -0.4468 -0.1767  0.8181
  113OSM   H15B11684   4.535   0.223  11.119 -0.0599  1.2559  0.4910
  113OSM   H15C11685   4.536   0.334  10.970  1.5974  0.7129 -0.2878
  113OSM    C1411686   4.615   0.009  10.991 -0.0694  0.5908  0.8482
  113OSM   H14A11687   4.717   0.027  11.021  0.2654 -0.9496  0.7157
  113OSM   H14B11688   4.610  -0.085  10.937 -4.7982  0.1703  1.5699
  113OSM   H14C11689   4.564  -0.017  11.083  1.1167  1.1420  1.6965
  113OSM    C1311690   4.396   0.113  10.940  0.2624  0.3315  0.3424
  113OSM   H13A11691   4.377   0.086  11.043 -0.4903  0.4375  0.2383
  113OSM   H13B11692   4.359   0.035  10.874 -2.4613 -1.4442  3.6514
  113OSM   H13C11693   4.342   0.203  10.915 -0.8160  0.6016  3.3245
  113OSM    C1211694   4.606   0.163  10.795  0.0609  0.6388 -0.6392
  113OSM   H12A11695   4.609   0.069  10.742 -2.5847 -0.5316  1.0550
  113OSM   H12B11696   4.712   0.183  10.799  0.5439 -1.5523 -1.1170
  113OSM    C1111697   4.559   0.282  10.702 -0.1569  0.5051 -0.2918
  113OSM   H11A11698   4.451   0.282  10.675  0.0661 -1.2644 -1.3220
  113OSM   H11B11699   4.624   0.280  10.612 -0.8729 -1.7645 -0.8181
  113OSM      P11700   4.711   0.484  10.742  0.0279 -0.3019 -0.0921
  113OSM    O1311701   4.708   0.624  10.795  0.3435  0.4412 -0.1026
  113OSM    O1411702   4.826   0.397  10.780 -0.6575 -0.4618 -0.0290
  113OSM    O1111703   4.707   0.502  10.584  0.6809 -0.3917  0.1906
  113OSM    O1211704   4.574   0.406  10.772 -0.2133  0.3731  0.1325
  113OSM    C1S11705   4.658   0.614  10.514 -0.1273  0.3890  0.2182
  113OSM    H1S11706   4.719   0.702  10.541 -2.4998  1.1507  3.7907
  113OSM    H1T11707   4.563   0.650  10.559 -0.2808  0.4049 -0.1150
  113OSM     NF11708   4.680   0.734  10.295 -0.2235 -0.4929 -0.0495
  113OSM    HNF11709   4.596   0.776  10.262 -0.7923 -1.9721 -0.5652
  113OSM    C2S11710   4.664   0.602  10.357  0.2347  0.3621 -0.9387
  113OSM    H2S11711   4.751   0.537  10.333 -1.1386 -1.8996 -0.1310
  113OSM    C3S11712   4.539   0.524  10.307  0.5311 -0.2004 -0.1488
  113OSM    H3S11713   4.445   0.577  10.331 -0.2824 -0.9505 -1.5147
  113OSM     O311714   4.531   0.397  10.368  0.7518 -0.7292 -0.4362
  113OSM    HO311715   4.581   0.401  10.450 -1.5068  0.0032  0.9986
  113OSM    C4S11716   4.535   0.516  10.151 -0.3482  0.2083 -0.0472
  113OSM    H4S11717   4.444   0.560  10.106  0.6627  0.4446 -1.9962
  113OSM    C5S11718   4.602   0.435  10.063 -0.4470  0.2654  0.2200
  113OSM    H5S11719   4.676   0.366  10.107 -0.4289  2.0571  3.3321
  113OSM    C6S11720   4.570   0.430   9.912 -0.7841 -0.4029  0.3382
  113OSM    H6S11721   4.462   0.430   9.889 -0.9186  1.4951  0.8391
  113OSM    H6T11722   4.622   0.338   9.876  2.4430 -0.0110  3.4005
  113OSM    C7S11723   4.636   0.538   9.830 -0.3867 -0.5489 -0.9261
  113OSM    H7S11724   4.742   0.509   9.812 -1.1414 -2.8652 -1.9693
  113OSM    H7T11725   4.628   0.639   9.875  1.0736 -0.6418 -0.3963
  113OSM    C8S11726   4.569   0.541   9.689  0.2901 -0.4468 -0.1231
  113OSM    H8S11727   4.565   0.436   9.651  1.4227  0.0762 -1.7991
  113OSM    H8T11728   4.644   0.598   9.630 -0.4645  1.2887  0.5308
  113OSM    C9S11729   4.426   0.595   9.685  0.1964 -0.2920  0.3699
  113OSM    H9S11730   4.423   0.704   9.706 -0.0085 -0.3408  0.6094
  113OSM    H9T11731   4.357   0.545   9.757 -0.5176  0.9997  0.6246
  113OSM   C10S11732   4.365   0.561   9.549 -0.0879  0.3316 -0.4559
  113OSM   H10S11733   4.256   0.579   9.557  0.1993  2.3034 -0.5933
  113OSM   H10T11734   4.384   0.455   9.523 -2.9091 -0.3161 -0.2408
  113OSM   C11S11735   4.418   0.650   9.435  0.8108 -0.2787 -0.2264
  113OSM   H11S11736   4.525   0.623   9.419  1.1762  0.0410  1.4624
  113OSM   H11T11737   4.416   0.756   9.467  0.0281  0.6596 -3.1045
  113OSM   C12S11738   4.338   0.639   9.304 -0.5972  0.5779 -0.1711
  113OSM   H12S11739   4.228   0.644   9.318 -0.8858  1.3770 -2.2790
  113OSM   H12T11740   4.338   0.532   9.271  1.5192  0.2890  0.6450
  113OSM   C13S11741   4.387   0.733   9.201 -0.1068 -0.2495  0.1661
  113OSM   H13S11742   4.495   0.709   9.194  0.1833  0.9878  0.0171
  113OSM   H13T11743   4.363   0.836   9.236  1.0970 -0.3014  1.2154
  113OSM   C14S11744   4.328   0.703   9.062 -0.0537 -0.3225 -0.0225
  113OSM   H14S11745   4.334   0.595   9.036 -2.0809  0.2804 -3.5048
  113OSM   H14T11746   4.387   0.757   8.985  1.1295 -0.4508  0.7553
  113OSM   C15S11747   4.183   0.734   9.046  0.4155  0.0715  0.5242
  113OSM   H15S11748   4.154   0.842   9.051 -0.4408 -0.1067 -0.2460
  113OSM   H15T11749   4.119   0.678   9.118 -0.2152  0.1029  0.0062
  113OSM   C16S11750   4.142   0.683   8.898 -0.2090  0.0452 -0.1368
  113OSM   H16S11751   4.033   0.690   8.881 -0.3491 -0.5406  0.4564
  113OSM   H16T11752   4.182   0.579   8.896  2.2397  0.9158 -0.1496
  113OSM   C17S11753   4.208   0.750   8.769 -0.7404  0.7059 -0.1947
  113OSM   H17S11754   4.227   0.677   8.687 -1.0848  0.2532  0.1270
  113OSM   H17T11755   4.308   0.792   8.792 -1.6020  1.4046  2.6057
  113OSM   C18S11756   4.129   0.868   8.715  0.4298 -0.4378 -0.3508
  113OSM   H18S11757   4.028   0.827   8.695  0.1348 -0.9860  1.9200
  113OSM   H18T11758   4.181   0.907   8.625 -0.8926  0.0023 -0.9447
  113OSM   H18U11759   4.124   0.950   8.790  0.4236 -2.2878  1.7844
  113OSM    C1F11760   4.805   0.791  10.307  0.1738 -0.0871 -0.4229
  113OSM     OF11761   4.889   0.717  10.352 -0.5811 -0.0898  0.0485
  113OSM    C2F11762   4.819   0.939  10.273 -0.2289 -0.3955  0.2928
  113OSM    H2F11763   4.822   0.987  10.373  1.5279  2.5309 -1.0044
  113OSM    H2G11764   4.725   0.965  10.220 -0.1661 -0.9536 -0.1070
  113OSM    C3F11765   4.956   0.977  10.201  0.7085  0.5527  0.4537
  113OSM    H3F11766   5.044   0.942  10.259  0.0841  0.0016  1.0845
  113OSM    H3G11767   4.963   1.085  10.176 -1.3255  0.6896  0.3310
  113OSM    C4F11768   4.966   0.897  10.066 -0.5985 -0.2066  0.9085
  113OSM    H4F11769   4.935   0.791  10.081 -0.5664 -0.8261 -2.5979
  113OSM    H4G11770   5.073   0.892  10.035 -0.4640 -1.9177  1.5227
  113OSM    C5F11771   4.883   0.960   9.952  0.0898  0.0945  0.2458
  113OSM    H5F11772   4.924   1.062   9.937  1.1391 -0.6241 -2.3321
  113OSM    H5G11773   4.777   0.967   9.984 -0.6294 -1.0748 -1.6950
  113OSM    C6F11774   4.893   0.868   9.828  0.4988  0.1551 -0.6009
  113OSM    H6F11775   4.832   0.779   9.855 -0.3790  0.9122 -0.0200
  113OSM    H6G11776   4.997   0.833   9.810  0.4061  0.0355 -0.9205
  113OSM    C7F11777   4.838   0.932   9.701 -0.1720  0.4184  0.5892
  113OSM    H7F11778   4.911   1.007   9.665 -4.1820  3.0168 -3.0892
  113OSM    H7G11779   4.755   0.999   9.729 -0.5946  0.7124 -1.2214
  113OSM    C8F11780   4.788   0.846   9.588  0.1851 -0.3999 -0.9481
  113OSM    H8F11781   4.689   0.807   9.620  0.4373  1.2532  2.2334
  113OSM    H8G11782   4.859   0.761   9.578  1.9298  0.9589 -0.5962
  113OSM    C9F11783   4.774   0.934   9.467 -0.1438  0.5420 -0.6167
  113OSM    H9F11784   4.686   0.999   9.474 -0.6661 -0.2380  0.4307
  113OSM   C10F11785   4.835   0.930   9.350  0.5804  0.3511 -0.2645
  113OSM   H10F11786   4.791   1.000   9.277  2.7935 -0.1305 -2.1588
  113OSM   C11F11787   4.935   0.824   9.305  0.5606  0.6373  0.3156
  113OSM   H11F11788   4.891   0.723   9.311 -0.0894  0.8547 -0.6225
  113OSM   H11G11789   5.027   0.821   9.367 -0.5532  1.4541  2.0713
  113OSM   C12F11790   4.980   0.838   9.157 -0.5454 -0.4027  0.0783
  113OSM   H12F11791   5.073   0.781   9.134 -0.0854 -0.0621  1.0513
  113OSM   H12G11792   5.001   0.945   9.139  0.2602 -0.5561  0.0935
  113OSM   C13F11793   4.876   0.783   9.063 -0.0906  0.5567 -0.2420
  113OSM   H13F11794   4.778   0.828   9.092  0.4009  1.3707  0.1984
  113OSM   H13G11795   4.855   0.675   9.076  1.1389  0.3144 -0.1892
  113OSM   C14F11796   4.897   0.817   8.912 -0.3624 -0.0410  0.0617
  113OSM   H14F11797   4.910   0.927   8.903 -0.8555 -0.0778 -1.3129
  113OSM   H14G11798   4.804   0.790   8.857 -0.9347  1.4989  0.2277
  113OSM   C15F11799   5.025   0.753   8.848  0.0057 -0.1930  0.6475
  113OSM   H15F11800   5.108   0.802   8.904  2.5175 -0.7230 -2.2934
  113OSM   H15G11801   5.031   0.773   8.739 -0.9785  2.3230  0.9902
  113OSM   C16F11802   5.037   0.598   8.862 -0.0509  0.6069 -0.3085
  113OSM   H16F11803   4.949   0.550   8.815 -0.8525  0.7266  1.0204
  113OSM   H16G11804   5.036   0.593   8.973 -3.1533  1.2781 -0.2300
  113OSM   C17F11805   5.159   0.536   8.794  0.1326  0.7477 -0.2256
  113OSM   H17F11806   5.151   0.426   8.794  0.7597  0.6532 -2.0823
  113OSM   H17G11807   5.254   0.570   8.841  1.4899 -1.3378 -1.2983
  113OSM   C18F11808   5.168   0.558   8.644 -0.0317 -0.6840  0.6120
  113OSM   H18F11809   5.082   0.531   8.580 -0.3255 -0.5684  0.9558
  113OSM   H18G11810   5.252   0.501   8.598 -0.9139  1.1968 -3.8572
  113OSM   H18H11811   5.204   0.662   8.628  0.1791 -1.0631 -1.7754
  114OSM      N11812   5.779   6.123  11.478  0.4564  0.1829  0.1316
  114OSM    C1511813   5.768   6.255  11.560  0.5924 -0.4374 -0.1497
  114OSM   H15A11814   5.690   6.237  11.632  1.6056 -1.5535  0.7345
  114OSM   H15B11815   5.744   6.341  11.500  0.6205  0.2838  0.8493
  114OSM   H15C11816   5.856   6.273  11.620 -1.3549  0.6500  2.6004
  114OSM    C1411817   5.843   6.013  11.558  1.0508 -0.0055  0.0023
  114OSM   H14A11818   5.940   6.045  11.593  0.5206  0.3135  1.2278
  114OSM   H14B11819   5.854   5.925  11.496  0.6285  0.6459 -1.0147
  114OSM   H14C11820   5.785   5.982  11.643  0.6352 -0.4548 -0.4376
  114OSM    C1311821   5.641   6.091  11.450  0.1925  0.2222  0.3114
  114OSM   H13A11822   5.629   6.001  11.391  0.1141  0.8601 -0.6791
  114OSM   H13B11823   5.576   6.163  11.403 -1.6127 -2.3943 -1.5037
  114OSM   H13C11824   5.591   6.061  11.541  2.4146  2.5735  2.4936
  114OSM    C1211825   5.858   6.157  11.357  0.0416  0.4275  0.1391
  114OSM   H12A11826   5.956   6.192  11.387  1.4976 -1.1256 -2.4082
  114OSM   H12B11827   5.809   6.234  11.298  0.7680  0.5333 -0.3423
  114OSM    C1111828   5.880   6.038  11.260 -0.4642  0.2680  0.5529
  114OSM   H11A11829   5.900   6.072  11.156  2.2346 -0.9472  0.5879
  114OSM   H11B11830   5.802   5.960  11.255  0.7695 -0.9877  0.0927
  114OSM      P11831   6.148   6.016  11.294 -0.0958 -0.2147  0.0407
  114OSM    O1311832   6.155   6.164  11.309 -0.0090  0.2225  0.6933
  114OSM    O1411833   6.217   5.946  11.404 -0.0271 -0.6922 -0.5128
  114OSM    O1111834   6.217   5.971  11.154  0.2886 -0.2938  0.0238
  114OSM    O1211835   5.995   5.968  11.309 -0.5975  0.0519  0.0025
  114OSM    C1S11836   6.148   5.870  11.072 -0.2970 -0.7313  0.2964
  114OSM    H1S11837   6.093   5.788  11.122 -0.2682 -1.2582 -0.5104
  114OSM    H1T11838   6.227   5.813  11.017  1.0449  0.1723  1.2151
  114OSM     NF11839   6.007   5.840  10.872  0.3692 -0.1856 -0.6687
  114OSM    HNF11840   6.067   5.790  10.810 -2.2797 -2.1089 -1.8486
  114OSM    C2S11841   6.067   5.937  10.958  0.3511  0.0545 -0.1244
  114OSM    H2S11842   5.983   6.000  10.994  1.1116  1.5999 -0.9274
  114OSM    C3S11843   6.154   6.037  10.875 -0.0040 -0.8209  0.8025
  114OSM    H3S11844   6.238   5.977  10.836  1.9799  0.8965  2.2198
  114OSM     O311845   6.220   6.141  10.938 -0.3941 -0.0845  0.1271
  114OSM    HO311846   6.247   6.103  11.022  0.8535 -2.7548 -1.3422
  114OSM    C4S11847   6.078   6.102  10.767  0.2741 -0.4138  0.2591
  114OSM    H4S11848   5.997   6.173  10.792  1.0471  0.6744 -0.2351
  114OSM    C5S11849   6.086   6.084  10.636 -0.1005  0.1287  0.0163
  114OSM    H5S11850   6.142   5.998  10.596 -1.2216 -0.5557 -0.1210
  114OSM    C6S11851   6.001   6.143  10.529 -0.1622  0.5902  0.2088
  114OSM    H6S11852   5.930   6.215  10.575 -0.1266  0.6191  0.2176
  114OSM    H6T11853   5.943   6.065  10.474 -0.5915  0.7677  0.4013
  114OSM    C7S11854   6.096   6.212  10.425  0.3759 -0.4066 -0.3528
  114OSM    H7S11855   6.172   6.145  10.380  2.9585  0.5465  2.2562
  114OSM    H7T11856   6.151   6.293  10.477 -0.6162 -1.3351  2.3225
  114OSM    C8S11857   6.021   6.277  10.311  0.2706 -0.9992  0.5856
  114OSM    H8S11858   6.090   6.352  10.268 -0.6685 -0.8842 -0.7675
  114OSM    H8T11859   5.944   6.342  10.358 -0.3973  0.2021 -2.0280
  114OSM    C9S11860   5.963   6.179  10.207  0.2672  0.4468  0.2322
  114OSM    H9S11861   5.878   6.123  10.252 -0.6900  1.1450 -0.6363
  114OSM    H9T11862   6.043   6.108  10.177 -0.2715 -0.6686  1.3387
  114OSM   C10S11863   5.912   6.228  10.069  0.4842 -0.1906 -0.0990
  114OSM   H10S11864   5.941   6.334  10.051  1.0752 -0.7371 -2.7227
  114OSM   H10T11865   5.802   6.238  10.071  0.4665 -0.4087  0.1924
  114OSM   C11S11866   5.949   6.147   9.948 -0.0302 -0.1861 -0.5106
  114OSM   H11S11867   5.927   6.041   9.975 -1.5686  0.8394  2.6838
  114OSM   H11T11868   6.058   6.155   9.928  0.7333  0.6786  3.2293
  114OSM   C12S11869   5.860   6.195   9.831  0.1937  0.0449 -0.0054
  114OSM   H12S11870   5.869   6.305   9.817 -0.3693 -0.0043 -0.7894
  114OSM   H12T11871   5.755   6.175   9.861  0.4993 -1.9880 -0.1498
  114OSM   C13S11872   5.875   6.112   9.703 -0.0254  0.3239  0.0934
  114OSM   H13S11873   5.820   6.017   9.715  0.8542 -0.3484 -1.0480
  114OSM   H13T11874   5.981   6.082   9.690  0.6929  2.7992 -0.3473
  114OSM   C14S11875   5.826   6.189   9.582 -0.2812  1.7463  0.6449
  114OSM   H14S11876   5.896   6.274   9.564  3.7893 -1.2546  1.0430
  114OSM   H14T11877   5.722   6.224   9.601 -1.5613 -0.6306 -1.4119
  114OSM   C15S11878   5.810   6.104   9.452  0.1381  0.7408  0.3506
  114OSM   H15S11879   5.709   6.058   9.451 -0.4600  1.9604  1.3656
  114OSM   H15T11880   5.892   6.032   9.432 -1.7270 -1.0779 -1.2028
  114OSM   C16S11881   5.810   6.213   9.337  0.6496  0.6686  0.4203
  114OSM   H16S11882   5.900   6.276   9.352  1.2986 -0.1781  0.1486
  114OSM   H16T11883   5.720   6.274   9.358 -1.1505 -2.0166  1.0071
  114OSM   C17S11884   5.811   6.156   9.195  0.1428 -0.3941 -0.3369
  114OSM   H17S11885   5.733   6.077   9.195  1.0154 -1.3712  2.5632
  114OSM   H17T11886   5.909   6.106   9.195  0.2211 -0.3327  1.8810
  114OSM   C18S11887   5.798   6.266   9.089  1.0736 -0.4341 -0.3865
  114OSM   H18S11888   5.700   6.255   9.038 -0.2990  2.4020  1.3527
  114OSM   H18T11889   5.880   6.251   9.016  0.8875 -1.6844 -0.3710
  114OSM   H18U11890   5.804   6.371   9.124  1.8072 -0.3647 -0.7043
  114OSM    C1F11891   5.905   5.761  10.907 -0.7487  0.5766  0.2853
  114OSM     OF11892   5.837   5.796  11.006 -0.3764  1.0261  0.2705
  114OSM    C2F11893   5.879   5.638  10.816  0.1186  0.1888  0.3032
  114OSM    H2F11894   5.843   5.556  10.882  0.6079 -1.5933 -1.5083
  114OSM    H2G11895   5.968   5.608  10.757  1.5771  1.4752  1.7639
  114OSM    C3F11896   5.769   5.671  10.710  0.1703  0.0145  0.1648
  114OSM    H3F11897   5.681   5.711  10.765  1.6650  2.4202  0.9178
  114OSM    H3G11898   5.735   5.578  10.657 -0.3662 -0.1579  0.7954
  114OSM    C4F11899   5.815   5.764  10.598  0.5690 -0.0542 -0.4513
  114OSM    H4F11900   5.911   5.723  10.561  0.0989 -1.9519  0.3333
  114OSM    H4G11901   5.840   5.869  10.625  0.4714 -0.3442  0.8243
  114OSM    C5F11902   5.715   5.774  10.490  0.0718  0.4805 -0.3711
  114OSM    H5F11903   5.634   5.838  10.530  2.1301  2.8427  0.2435
  114OSM    H5G11904   5.694   5.667  10.468  2.1340 -0.4403  1.7144
  114OSM    C6F11905   5.759   5.830  10.355  0.2986  0.0288  0.3573
  114OSM    H6F11906   5.818   5.756  10.298 -0.3764  0.4077 -0.8624
  114OSM    H6G11907   5.818   5.924  10.358 -1.3463  1.1806 -0.9135
  114OSM    C7F11908   5.630   5.857  10.270  0.9196 -0.2255 -0.0061
  114OSM    H7F11909   5.574   5.943  10.312 -2.9348 -1.5355 -2.0024
  114OSM    H7G11910   5.566   5.767  10.280 -0.1015  0.4590 -0.2701
  114OSM    C8F11911   5.660   5.893  10.123 -0.3172 -0.4430 -0.7871
  114OSM    H8F11912   5.725   5.812  10.082 -1.8049 -1.6280 -0.8909
  114OSM    H8G11913   5.728   5.980  10.139 -0.2030  0.1577 -3.8992
  114OSM    C9F11914   5.542   5.925  10.041  0.0556  0.0764  0.4906
  114OSM    H9F11915   5.477   6.012  10.059 -0.4617  0.2642 -1.9156
  114OSM   C10F11916   5.491   5.857   9.943  0.3367  0.1627  0.8991
  114OSM   H10F11917   5.406   5.902   9.890 -0.3930 -1.4982  0.5922
  114OSM   C11F11918   5.546   5.731   9.874 -0.0980  0.2922  1.1481
  114OSM   H11F11919   5.472   5.648   9.877 -1.4479  1.4066  0.0238
  114OSM   H11G11920   5.647   5.705   9.914  2.4537  4.7558 -1.5485
  114OSM   C12F11921   5.584   5.754   9.719 -0.0529 -0.8795 -0.4286
  114OSM   H12F11922   5.636   5.662   9.683 -2.2294 -2.6138  0.5625
  114OSM   H12G11923   5.649   5.844   9.718  0.2744 -1.1166 -0.5644
  114OSM   C13F11924   5.466   5.782   9.632 -0.0035 -0.0428  0.2282
  114OSM   H13F11925   5.409   5.871   9.667  1.1078  0.3280  1.1514
  114OSM   H13G11926   5.400   5.694   9.646 -1.4115  1.3582  3.7137
  114OSM   C14F11927   5.519   5.770   9.479 -0.3080  0.5987 -0.3579
  114OSM   H14F11928   5.526   5.663   9.452  0.9444  0.9129 -1.3723
  114OSM   H14G11929   5.623   5.809   9.474  0.6992 -1.6491  1.3865
  114OSM   C15F11930   5.428   5.853   9.392 -0.6402  0.0071  0.9544
  114OSM   H15F11931   5.472   5.849   9.290  0.2004 -1.2928  1.3539
  114OSM   H15G11932   5.419   5.956   9.434 -0.9076 -0.1567  1.3004
  114OSM   C16F11933   5.287   5.787   9.389 -0.4339 -0.6214  0.3314
  114OSM   H16F11934   5.216   5.865   9.352  0.2912 -0.0195  0.1852
  114OSM   H16G11935   5.255   5.761   9.492 -1.5814 -0.3347  0.0601
  114OSM   C17F11936   5.269   5.664   9.290  0.3551  0.2390  0.3770
  114OSM   H17F11937   5.163   5.630   9.297  0.0721  0.8246 -0.8265
  114OSM   H17G11938   5.336   5.584   9.328  0.7349  1.0578  1.5037
  114OSM   C18F11939   5.318   5.691   9.144 -0.1883 -0.2049 -0.1992
  114OSM   H18F11940   5.427   5.712   9.140 -0.0310 -0.9394  0.0105
  114OSM   H18G11941   5.253   5.773   9.106 -2.4810 -1.7258  0.2121
  114OSM   H18H11942   5.300   5.602   9.080  2.7725  0.0128 -1.4933
  115OSM      N11943   0.758   1.543   6.084 -0.0740 -0.1730  0.0985
  115OSM    C1511944   0.666   1.598   5.975 -0.5582 -0.8483 -0.4185
  115OSM   H15A11945   0.652   1.541   5.884 -2.9592 -1.3880  0.2193
  115OSM   H15B11946   0.711   1.694   5.954  0.0775  0.4938  5.3700
  115OSM   H15C11947   0.574   1.623   6.025 -0.6365 -0.6887 -0.6444
  115OSM    C1411948   0.697   1.418   6.140  0.3408  0.2429  0.4384
  115OSM   H14A11949   0.665   1.360   6.055 -0.7838  0.9138  0.3728
  115OSM   H14B11950   0.616   1.437   6.210  1.6150 -1.3066  2.4263
  115OSM   H14C11951   0.763   1.362   6.204 -0.7643 -0.5087  0.9468
  115OSM    C1311952   0.892   1.505   6.030  0.3420  0.1364  1.0154
  115OSM   H13A11953   0.958   1.589   6.013  1.3851 -0.9819 -0.8867
  115OSM   H13B11954   0.880   1.455   5.935  3.3498 -0.0890  0.6596
  115OSM   H13C11955   0.949   1.432   6.086 -1.3388 -1.0320  1.2625
  115OSM    C1211956   0.783   1.633   6.204 -0.3227 -0.1733  0.6731
  115OSM   H12A11957   0.861   1.594   6.268  1.6108  0.5460 -1.1346
  115OSM   H12B11958   0.700   1.643   6.272 -2.0843  0.1954 -1.3981
  115OSM    C1111959   0.840   1.775   6.172 -1.0115  0.4139 -0.0424
  115OSM   H11A11960   0.942   1.757   6.132 -1.2955 -3.6440  0.5773
  115OSM   H11B11961   0.857   1.826   6.269 -0.8569 -1.0671  0.7325
  115OSM      P11962   0.639   1.915   6.146  0.4120  0.2350 -0.1586
  115OSM    O1311963   0.614   2.035   6.063 -0.2700 -0.4774  0.1887
  115OSM    O1411964   0.527   1.820   6.157 -0.5825  0.9645  0.3197
  115OSM    O1111965   0.667   1.972   6.289 -0.3519 -0.2697 -0.5205
  115OSM    O1211966   0.760   1.849   6.086 -0.2483 -0.7638  0.0629
  115OSM    C1S11967   0.729   2.098   6.314  0.1171 -0.2716 -0.2314
  115OSM    H1S11968   0.687   2.185   6.260 -0.3068 -0.1157  0.3459
  115OSM    H1T11969   0.830   2.098   6.267 -0.7466  2.4501 -2.3195
  115OSM     NF11970   0.727   2.286   6.481 -0.2674 -0.3521  0.2032
  115OSM    HNF11971   0.815   2.325   6.509 -0.0271  0.1745 -1.2291
  115OSM    C2S11972   0.734   2.143   6.460  0.4974 -0.9313 -0.8302
  115OSM    H2S11973   0.642   2.097   6.503  0.3306  1.0603  1.0596
  115OSM    C3S11974   0.850   2.068   6.538  0.4585  0.0910 -0.0662
  115OSM    H3S11975   0.953   2.102   6.514  0.2216  1.3460  0.5808
  115OSM     O311976   0.835   1.929   6.518 -0.3027  0.3775  0.3922
  115OSM    HO311977   0.777   1.922   6.441  0.2150  1.5102 -0.1243
  115OSM    C4S11978   0.819   2.083   6.687 -0.1697  0.2900  0.5280
  115OSM    H4S11979   0.745   2.011   6.725  0.8139 -0.1371  1.6727
  115OSM    C5S11980   0.878   2.168   6.771 -0.1826 -0.5080 -0.3583
  115OSM    H5S11981   0.962   2.228   6.733  0.0137  0.7092  1.8550
  115OSM    C6S11982   0.840   2.195   6.916 -0.1830 -0.1826 -0.5001
  115OSM    H6S11983   0.812   2.302   6.920 -0.1352 -0.1770 -0.3296
  115OSM    H6T11984   0.926   2.180   6.983 -1.2982  1.1310  1.3121
  115OSM    C7S11985   0.716   2.125   6.970 -0.0163  0.4172 -0.0487
  115OSM    H7S11986   0.730   2.017   6.991  2.7374  1.2893  3.7516
  115OSM    H7T11987   0.626   2.129   6.905  0.1331 -0.2018 -0.3076
  115OSM    C8S11988   0.686   2.183   7.110  1.0470  0.1018 -0.8533
  115OSM    H8S11989   0.576   2.167   7.109  1.1519 -0.6355 -1.3456
  115OSM    H8T11990   0.711   2.290   7.126  3.2648  0.0220 -3.0570
  115OSM    C9S11991   0.731   2.088   7.223 -0.9535 -0.7905  0.0956
  115OSM    H9S11992   0.841   2.097   7.233 -0.9503  0.4896 -0.8003
  115OSM    H9T11993   0.710   1.985   7.187  1.4982 -0.9043 -1.2047
  115OSM   C10S11994   0.664   2.125   7.354 -0.0189  0.1751  0.9898
  115OSM   H10S11995   0.560   2.095   7.332  0.9959 -2.8205 -0.1859
  115OSM   H10T11996   0.667   2.233   7.378  0.0617  0.3726  0.1268
  115OSM   C11S11997   0.714   2.037   7.472 -0.1126  0.0726  0.4006
  115OSM   H11S11998   0.824   2.047   7.482  0.0100 -0.7446  0.0003
  115OSM   H11T11999   0.701   1.931   7.439 -1.1020  0.3759 -0.2103
  115OSM   C12S12000   0.649   2.062   7.605  0.0300 -0.0997  1.3568
  115OSM   H12S12001   0.539   2.055   7.592  0.2107 -1.8838  0.4098
  115OSM   H12T12002   0.665   2.171   7.621  0.4443  0.1625 -0.5575
  115OSM   C13S12003   0.701   1.963   7.707 -0.0481 -0.1986 -0.7214
  115OSM   H13S12004   0.810   1.982   7.716 -0.2602  1.0760 -0.6541
  115OSM   H13T12005   0.664   1.864   7.672 -1.6624 -0.2118  0.8776
  115OSM   C14S12006   0.654   1.981   7.852 -0.3406 -0.4350 -0.4119
  115OSM   H14S12007   0.549   1.958   7.879 -0.4323 -1.2924 -1.4565
  115OSM   H14T12008   0.654   2.085   7.892 -0.9776 -0.7887  0.5508
  115OSM   C15S12009   0.743   1.904   7.947  0.1769 -0.0951 -0.1930
  115OSM   H15S12010   0.846   1.946   7.945  1.6180 -3.3075 -2.3553
  115OSM   H15T12011   0.758   1.808   7.894 -0.3015 -0.8130  0.9524
  115OSM   C16S12012   0.699   1.884   8.092 -0.6563 -0.7330  0.5004
  115OSM   H16S12013   0.609   1.819   8.099 -0.8956 -0.5438 -0.6344
  115OSM   H16T12014   0.666   1.984   8.129 -0.6488 -0.0438 -1.2572
  115OSM   C17S12015   0.817   1.835   8.180  0.3885 -0.0691  0.6048
  115OSM   H17S12016   0.905   1.899   8.158  0.6981 -0.4360  0.7570
  115OSM   H17T12017   0.838   1.732   8.144 -1.8627 -0.5056  0.4064
  115OSM   C18S12018   0.775   1.833   8.328  1.2326 -0.2251  0.1862
  115OSM   H18S12019   0.752   1.932   8.375  0.3060 -1.7897  3.3039
  115OSM   H18T12020   0.863   1.788   8.377  2.1085  1.5320  0.2990
  115OSM   H18U12021   0.685   1.769   8.343  0.4119  1.0616  1.0885
  115OSM    C1F12022   0.627   2.361   6.437 -0.0121 -0.3721  0.2884
  115OSM     OF12023   0.534   2.312   6.372  0.0841 -0.3455  1.1237
  115OSM    C2F12024   0.644   2.507   6.455  0.3534  0.5117 -0.1836
  115OSM    H2F12025   0.620   2.556   6.358 -1.3152  1.3179  0.5897
  115OSM    H2G12026   0.746   2.530   6.492  0.2877 -1.0643  1.0625
  115OSM    C3F12027   0.557   2.560   6.580  0.5566  0.6830 -0.1175
  115OSM    H3F12028   0.447   2.540   6.572  0.6351  0.1092  0.1493
  115OSM    H3G12029   0.572   2.669   6.594 -0.4962  0.7559  0.5583
  115OSM    C4F12030   0.610   2.509   6.717 -0.1459  0.7321  0.3905
  115OSM    H4F12031   0.720   2.499   6.713 -0.0964 -0.7221  2.8423
  115OSM    H4G12032   0.577   2.406   6.744  0.9435  0.3508  0.2857
  115OSM    C5F12033   0.583   2.619   6.830  0.1431  0.0591 -0.8189
  115OSM    H5F12034   0.486   2.671   6.817  1.0513  1.9626 -0.2791
  115OSM    H5G12035   0.662   2.697   6.821  1.4928 -1.1884 -0.2369
  115OSM    C6F12036   0.582   2.553   6.966  0.1871  0.1819  0.2779
  115OSM    H6F12037   0.669   2.484   6.970 -0.4233 -0.6089  0.1609
  115OSM    H6G12038   0.492   2.491   6.986 -1.6275  2.5610 -0.0966
  115OSM    C7F12039   0.590   2.653   7.092  0.0087  0.6851  0.1544
  115OSM    H7F12040   0.516   2.735   7.081 -0.3216  0.6230  1.6648
  115OSM    H7G12041   0.681   2.716   7.090 -1.2189  2.5033 -0.6031
  115OSM    C8F12042   0.573   2.581   7.226  0.2708  0.0211  0.2220
  115OSM    H8F12043   0.675   2.536   7.232  0.8228  0.4714 -3.1654
  115OSM    H8G12044   0.507   2.493   7.216 -1.2263  1.0078  1.1044
  115OSM    C9F12045   0.530   2.659   7.344  0.4190 -0.7304  0.3003
  115OSM    H9F12046   0.424   2.691   7.350  0.5515 -0.4204  1.1353
  115OSM   C10F12047   0.607   2.697   7.441  0.1781  0.3610 -0.1629
  115OSM   H10F12048   0.579   2.761   7.526 -1.4259  3.0594 -2.5494
  115OSM   C11F12049   0.755   2.658   7.444  0.0899 -0.2224 -0.2581
  115OSM   H11F12050   0.801   2.751   7.404 -0.4098  1.2371  2.3367
  115OSM   H11G12051   0.781   2.569   7.383 -1.1337 -0.1727 -0.8832
  115OSM   C12F12052   0.816   2.641   7.582 -0.2356 -0.1187  0.9742
  115OSM   H12F12053   0.798   2.738   7.633  1.9484  0.1307  1.3578
  115OSM   H12G12054   0.925   2.626   7.569  0.0130  2.7885 -1.4651
  115OSM   C13F12055   0.750   2.522   7.656 -0.0852  0.0326 -0.6298
  115OSM   H13F12056   0.760   2.425   7.602 -1.0897 -1.9589  2.5096
  115OSM   H13G12057   0.641   2.541   7.668 -0.6456 -2.5936 -0.8553
  115OSM   C14F12058   0.805   2.508   7.800 -0.5653  0.1000 -0.7536
  115OSM   H14F12059   0.727   2.454   7.859  0.6516 -1.6615 -0.6899
  115OSM   H14G12060   0.826   2.609   7.843  2.2264  0.3403 -2.4460
  115OSM   C15F12061   0.929   2.419   7.797  0.1489  1.0567  0.3937
  115OSM   H15F12062   1.018   2.475   7.760  1.6550  0.4623  2.9404
  115OSM   H15G12063   0.910   2.342   7.719  2.3652 -1.4807  2.1818
  115OSM   C16F12064   0.950   2.339   7.927 -0.2146 -0.0142 -0.4940
  115OSM   H16F12065   0.858   2.284   7.954 -2.0082  0.6101 -4.5933
  115OSM   H16G12066   0.968   2.417   8.004  2.1339 -1.0676  0.1395
  115OSM   C17F12067   1.073   2.244   7.944  0.3707  0.8085  0.4484
  115OSM   H17F12068   1.171   2.294   7.927  0.7505 -0.3889 -1.1365
  115OSM   H17G12069   1.077   2.161   7.870  2.3605  0.0661  1.3451
  115OSM   C18F12070   1.078   2.193   8.087  0.0389  0.1002 -0.0487
  115OSM   H18F12071   0.974   2.164   8.116  0.1747  1.1849  1.6882
  115OSM   H18G12072   1.132   2.258   8.160  1.2992  0.9595 -1.6897
  115OSM   H18H12073   1.136   2.099   8.098  1.6480  1.1058  0.2850
  116OSM      N12074   5.549   0.330   5.999  0.2813 -0.0521  0.6937
  116OSM    C1512075   5.404   0.281   5.993  0.3363 -0.4862  0.1168
  116OSM   H15A12076   5.377   0.226   5.904  0.7522  1.0163 -0.9944
  116OSM   H15B12077   5.335   0.363   6.009  1.1366  0.0424  0.9927
  116OSM   H15C12078   5.396   0.231   6.088  0.0343 -2.2812 -0.8185
  116OSM    C1412079   5.571   0.406   5.871  0.4592  0.3590 -0.6434
  116OSM   H14A12080   5.537   0.344   5.789  0.3762  1.8469 -1.7807
  116OSM   H14B12081   5.677   0.425   5.864  0.3968  0.7493 -0.5243
  116OSM   H14C12082   5.528   0.504   5.878  1.4387  0.6723  1.9561
  116OSM    C1312083   5.563   0.429   6.110  0.6059  0.1160 -0.6520
  116OSM   H13A12084   5.668   0.448   6.128  0.2667  2.1185 -0.6319
  116OSM   H13B12085   5.523   0.379   6.197  0.8914 -2.4774 -1.8887
  116OSM   H13C12086   5.519   0.525   6.087  0.3773  0.6030  1.5969
  116OSM    C1212087   5.650   0.213   6.001  0.5494 -0.6738  0.0841
  116OSM   H12A12088   5.630   0.145   5.920  0.7120 -1.3114  0.5702
  116OSM   H12B12089   5.618   0.164   6.092 -1.4975  0.6026  0.1196
  116OSM    C1112090   5.793   0.231   6.026 -0.5081 -0.0327  0.0981
  116OSM   H11A12091   5.837   0.292   5.944 -0.9326 -1.9946 -1.6755
  116OSM   H11B12092   5.856   0.140   6.018 -1.4279 -0.6351 -0.3696
  116OSM      P12093   5.955   0.332   6.206  0.2528  0.1845 -0.0410
  116OSM    O1312094   6.050   0.217   6.202 -1.0332  0.1472 -0.7900
  116OSM    O1412095   5.996   0.446   6.121 -0.0308  0.5449 -0.0346
  116OSM    O1112096   5.936   0.385   6.350  0.1993 -0.2287  0.0009
  116OSM    O1212097   5.809   0.293   6.157 -0.4766 -0.1188  0.0547
  116OSM    C1S12098   5.844   0.324   6.445  0.3006  0.9135  0.8534
  116OSM    H1S12099   5.884   0.225   6.476 -0.7030  0.3934  0.5240
  116OSM    H1T12100   5.750   0.303   6.391  0.4439  1.7887  0.2350
  116OSM     NF12101   5.751   0.360   6.679 -0.1460  0.3099  0.3482
  116OSM    HNF12102   5.653   0.378   6.673 -0.1881  0.3619  1.0928
  116OSM    C2S12103   5.823   0.420   6.567 -0.3343 -0.2322 -0.3519
  116OSM    H2S12104   5.927   0.455   6.587 -1.0207  2.0245 -0.5364
  116OSM    C3S12105   5.747   0.546   6.520 -0.3713  0.6690 -0.3250
  116OSM    H3S12106   5.645   0.507   6.501  0.3019 -1.0673 -0.4955
  116OSM     O312107   5.797   0.603   6.400  0.7202  0.1234 -0.4514
  116OSM    HO312108   5.855   0.535   6.365  1.3042 -0.0542  0.7904
  116OSM    C4S12109   5.742   0.650   6.632 -0.1925  0.1513  0.1385
  116OSM    H4S12110   5.653   0.636   6.695  0.4144  0.9303  1.2023
  116OSM    C5S12111   5.834   0.748   6.665  0.2109 -0.0671 -0.0004
  116OSM    H5S12112   5.922   0.768   6.602  1.1783  1.2464  1.6888
  116OSM    C6S12113   5.822   0.851   6.781  0.5710  0.1454  0.4786
  116OSM    H6S12114   5.764   0.941   6.754 -2.2453 -1.8126 -0.4593
  116OSM    H6T12115   5.928   0.881   6.796  0.7923 -0.5738  0.3945
  116OSM    C7S12116   5.762   0.817   6.917 -0.4469 -0.1604  0.0369
  116OSM    H7S12117   5.806   0.719   6.946 -1.2463 -1.0124 -1.5065
  116OSM    H7T12118   5.654   0.799   6.901 -0.0266 -1.4648 -1.5742
  116OSM    C8S12119   5.799   0.926   7.023  0.0806 -0.3534 -0.1174
  116OSM    H8S12120   5.908   0.935   7.039 -0.2285  0.6566  1.8062
  116OSM    H8T12121   5.750   0.893   7.117  0.8533 -0.0538  0.4023
  116OSM    C9S12122   5.732   1.063   7.000 -0.0447  0.4453 -0.3126
  116OSM    H9S12123   5.629   1.043   6.964  1.0741 -1.5776 -2.7681
  116OSM    H9T12124   5.788   1.111   6.916  3.3524 -1.2159  0.8321
  116OSM   C10S12125   5.735   1.158   7.125 -0.6543  0.3992  0.1917
  116OSM   H10S12126   5.832   1.168   7.177 -0.8429  1.2131  0.3962
  116OSM   H10T12127   5.669   1.113   7.202  1.2985 -0.9554  1.1483
  116OSM   C11S12128   5.686   1.293   7.083 -0.5118  0.0929  0.2497
  116OSM   H11S12129   5.583   1.285   7.042 -0.4974  0.3193  0.1682
  116OSM   H11T12130   5.753   1.336   7.006  2.4951 -0.3902  2.3968
  116OSM   C12S12131   5.684   1.389   7.197  0.1512 -0.3588 -0.5992
  116OSM   H12S12132   5.682   1.491   7.153 -0.3652  0.1287  0.5354
  116OSM   H12T12133   5.780   1.380   7.253  1.3058 -0.1725 -2.4293
  116OSM   C13S12134   5.571   1.368   7.306 -0.0184  0.7173  0.1015
  116OSM   H13S12135   5.590   1.432   7.395 -1.3392  0.3695  0.6672
  116OSM   H13T12136   5.580   1.263   7.342  0.2804  0.8454  0.4066
  116OSM   C14S12137   5.430   1.390   7.259  0.2536  0.4476  0.9695
  116OSM   H14S12138   5.416   1.352   7.155 -2.6229  0.7355  1.1865
  116OSM   H14T12139   5.415   1.500   7.245 -1.8426 -0.1694 -3.9815
  116OSM   C15S12140   5.327   1.349   7.356 -0.1096  0.4539 -0.1734
  116OSM   H15S12141   5.365   1.405   7.444  3.3955 -1.4250 -0.3230
  116OSM   H15T12142   5.336   1.242   7.385 -0.3457  1.1237  2.6786
  116OSM   C16S12143   5.182   1.384   7.322  0.6721  0.4660 -0.6053
  116OSM   H16S12144   5.155   1.337   7.225  1.4605 -1.7632  0.2030
  116OSM   H16T12145   5.181   1.494   7.309  2.3694  0.5410 -0.3554
  116OSM   C17S12146   5.068   1.340   7.416 -0.6057 -0.2084 -0.1780
  116OSM   H17S12147   5.075   1.230   7.434  0.7183 -0.0271  0.4821
  116OSM   H17T12148   4.972   1.370   7.367  1.3771  0.5266 -4.0411
  116OSM   C18S12149   5.080   1.415   7.553 -0.3776 -0.0029  0.3698
  116OSM   H18S12150   5.052   1.521   7.536  1.0439  0.4570  0.7120
  116OSM   H18T12151   5.183   1.402   7.592  0.7167  0.4922 -2.1437
  116OSM   H18U12152   5.009   1.363   7.620 -1.3025 -0.7687 -1.1632
  116OSM    C1F12153   5.819   0.271   6.752  0.7758  0.7349 -0.3942
  116OSM     OF12154   5.939   0.249   6.741 -0.0514  0.2714 -0.2159
  116OSM    C2F12155   5.732   0.217   6.866  0.0270 -0.5014 -0.1988
  116OSM    H2F12156   5.673   0.136   6.818 -0.5529 -0.7184  0.8587
  116OSM    H2G12157   5.669   0.303   6.896 -2.4635 -1.1112 -3.1591
  116OSM    C3F12158   5.796   0.144   6.975  0.7445 -0.2301  0.2096
  116OSM    H3F12159   5.884   0.197   7.018  0.1521  0.4328  0.6139
  116OSM    H3G12160   5.834   0.047   6.936  0.1186  0.0590 -1.1909
  116OSM    C4F12161   5.695   0.103   7.080  0.3356 -0.3742  0.1747
  116OSM    H4F12162   5.645   0.011   7.043  1.9181 -0.5328 -1.7309
  116OSM    H4G12163   5.623   0.187   7.093  2.4010  1.5973 -0.4374
  116OSM    C5F12164   5.749   0.076   7.215 -0.2630 -0.2118  0.0636
  116OSM    H5F12165   5.810   0.154   7.263  1.9211 -1.7935 -0.0072
  116OSM    H5G12166   5.816  -0.010   7.194  1.4916  1.4800 -1.5690
  116OSM    C6F12167   5.635   0.033   7.314 -0.0470  0.4577 -0.3858
  116OSM    H6F12168   5.698   0.014   7.404  1.2933  0.4499 -1.2963
  116OSM    H6G12169   5.574  -0.058   7.299 -0.3322  0.7952 -1.3797
  116OSM    C7F12170   5.532   0.148   7.346 -0.0902  0.1126 -1.0157
  116OSM    H7F12171   5.460   0.119   7.425  1.9458  1.9243  1.6970
  116OSM    H7G12172   5.480   0.160   7.249  0.9842  1.9010 -1.4329
  116OSM    C8F12173   5.590   0.285   7.404  0.0660  0.5842  0.5898
  116OSM    H8F12174   5.518   0.365   7.375 -0.8176 -0.6420 -0.7468
  116OSM    H8G12175   5.680   0.316   7.348 -0.3650  0.8431  0.0260
  116OSM    C9F12176   5.620   0.274   7.548  0.0771 -0.5435  0.1960
  116OSM    H9F12177   5.696   0.195   7.561 -0.2500 -1.2586 -1.9415
  116OSM   C10F12178   5.552   0.320   7.657 -0.5784  0.7561  0.1824
  116OSM   H10F12179   5.599   0.307   7.756 -1.0236  1.1353  0.4522
  116OSM   C11F12180   5.425   0.407   7.656 -0.2230 -0.8221  0.7428
  116OSM   H11F12181   5.348   0.379   7.731 -2.1951  0.8403 -0.5148
  116OSM   H11G12182   5.386   0.399   7.552 -0.3046 -0.9301  0.7812
  116OSM   C12F12183   5.449   0.561   7.673  0.5256 -0.0843  0.2890
  116OSM   H12F12184   5.354   0.617   7.665  1.0374  0.9049  0.9376
  116OSM   H12G12185   5.519   0.587   7.590  1.6660 -3.3437  0.0785
  116OSM   C13F12186   5.495   0.603   7.812 -0.2447  0.1938 -0.9193
  116OSM   H13F12187   5.487   0.712   7.831  1.1255  0.2769 -0.7072
  116OSM   H13G12188   5.604   0.587   7.823 -0.4815 -0.0519  1.6904
  116OSM   C14F12189   5.426   0.527   7.927  0.2155 -0.8017  0.1028
  116OSM   H14F12190   5.456   0.421   7.911 -1.7199 -1.0752 -2.3637
  116OSM   H14G12191   5.318   0.550   7.923  0.5707  0.8355 -0.5868
  116OSM   C15F12192   5.481   0.565   8.062  0.2151 -0.3564  0.2051
  116OSM   H15F12193   5.466   0.672   8.087  1.3890 -0.5151  1.7407
  116OSM   H15G12194   5.590   0.543   8.065  0.1547 -0.5767  1.2580
  116OSM   C16F12195   5.398   0.501   8.178  0.0341 -0.4663  0.1735
  116OSM   H16F12196   5.378   0.392   8.165  0.5803 -0.6116  0.5133
  116OSM   H16G12197   5.301   0.554   8.166  0.4818  1.1400  2.9654
  116OSM   C17F12198   5.457   0.529   8.311  0.2093 -0.4554 -0.9181
  116OSM   H17F12199   5.376   0.493   8.378 -0.2367  0.9650 -0.6517
  116OSM   H17G12200   5.463   0.640   8.308  2.3457 -0.4601  1.1353
  116OSM   C18F12201   5.588   0.469   8.347  0.3305 -0.0205 -0.8286
  116OSM   H18F12202   5.607   0.493   8.454  0.1312  1.8201 -1.1775
  116OSM   H18G12203   5.674   0.514   8.293  0.1978 -0.7290 -1.6419
  116OSM   H18H12204   5.584   0.364   8.311  0.8989 -1.2174  2.3095
  117OSM      N12205   4.393   1.542   6.062  0.8560 -0.2158  0.9472
  117OSM    C1512206   4.514   1.468   6.005  0.3755 -0.2943 -0.5217
  117OSM   H15A12207   4.598   1.536   6.011 -0.8894  1.2151  1.9410
  117OSM   H15B12208   4.501   1.435   5.903 -0.1641 -1.5644 -0.0523
  117OSM   H15C12209   4.525   1.374   6.057 -3.8559 -1.3289 -1.1034
  117OSM    C1412210   4.336   1.637   5.963  0.0468 -0.0378 -0.9046
  117OSM   H14A12211   4.396   1.723   5.936  2.4138 -1.5368 -0.7204
  117OSM   H14B12212   4.238   1.671   5.992 -0.3089 -1.4661 -0.3483
  117OSM   H14C12213   4.313   1.582   5.873  0.1577 -1.1513 -0.2664
  117OSM    C1312214   4.294   1.437   6.112  0.0089 -0.2032  0.1278
  117OSM   H13A12215   4.339   1.370   6.183 -2.9937 -1.0529  1.3526
  117OSM   H13B12216   4.270   1.376   6.027  0.1553 -0.3010  0.1561
  117OSM   H13C12217   4.201   1.477   6.149 -0.3898 -0.5763 -0.4660
  117OSM    C1212218   4.435   1.628   6.180 -0.0761 -0.3371  0.3023
  117OSM   H12A12219   4.503   1.704   6.145 -1.2906 -0.1526 -1.8656
  117OSM   H12B12220   4.498   1.574   6.249  1.4691  1.5224  0.4218
  117OSM    C1112221   4.326   1.699   6.264 -0.1499 -0.0212  0.0147
  117OSM   H11A12222   4.376   1.715   6.362  0.3481  1.4815 -0.4583
  117OSM   H11B12223   4.245   1.624   6.280  0.1603 -0.1559  1.0377
  117OSM      P12224   4.356   1.955   6.190 -0.2843  0.2491 -0.3165
  117OSM    O1312225   4.494   1.912   6.162 -0.1784 -0.2326 -0.0217
  117OSM    O1412226   4.296   2.048   6.092 -0.2277 -0.3598 -0.4195
  117OSM    O1112227   4.360   2.031   6.328 -0.6182  0.3818  0.2082
  117OSM    O1212228   4.271   1.822   6.207 -0.1534  0.4465 -0.9871
  117OSM    C1S12229   4.309   1.969   6.448  0.1840  0.1904 -0.0617
  117OSM    H1S12230   4.381   1.889   6.476  0.6352  0.7250  0.3546
  117OSM    H1T12231   4.209   1.923   6.435 -0.4462  1.2837  0.7403
  117OSM     NF12232   4.263   2.008   6.689  0.1171  0.1742  0.5388
  117OSM    HNF12233   4.171   2.023   6.723 -0.5795 -0.5504 -0.9200
  117OSM    C2S12234   4.308   2.072   6.567 -0.1975  0.3122 -1.2599
  117OSM    H2S12235   4.413   2.099   6.587 -0.8388  2.4962 -0.5470
  117OSM    C3S12236   4.213   2.197   6.536 -0.2203  1.0818 -0.2403
  117OSM    H3S12237   4.107   2.166   6.522 -0.3960  0.7475  1.6188
  117OSM     O312238   4.238   2.266   6.414  0.0893  0.2796 -0.2820
  117OSM    HO312239   4.289   2.200   6.366  0.4814  0.1369  0.3260
  117OSM    C4S12240   4.226   2.292   6.652  0.0229 -0.3898 -0.3436
  117OSM    H4S12241   4.136   2.288   6.716  0.1344 -0.1082 -0.1658
  117OSM    C5S12242   4.328   2.371   6.676 -0.4422  0.4218  0.4407
  117OSM    H5S12243   4.415   2.375   6.609 -0.5344 -1.9165  0.1143
  117OSM    C6S12244   4.344   2.464   6.788 -0.3733 -0.0196 -0.4321
  117OSM    H6S12245   4.302   2.562   6.759 -0.7167 -0.0338  0.0052
  117OSM    H6T12246   4.452   2.484   6.803 -0.0513 -0.9332 -1.3740
  117OSM    C7S12247   4.296   2.409   6.922 -0.5369  0.5115  0.2976
  117OSM    H7S12248   4.376   2.345   6.966 -2.9602 -3.8425 -1.0257
  117OSM    H7T12249   4.201   2.353   6.906 -0.8837  1.4644 -1.2049
  117OSM    C8S12250   4.269   2.525   7.017 -0.0935  0.2769  0.6480
  117OSM    H8S12251   4.232   2.492   7.117 -0.7294 -1.7045 -0.1967
  117OSM    H8T12252   4.208   2.605   6.969  1.1047  0.8534  0.0330
  117OSM    C9S12253   4.397   2.596   7.056 -0.0620  0.4798  0.4891
  117OSM    H9S12254   4.431   2.632   6.957  0.6219 -2.4688 -0.4348
  117OSM    H9T12255   4.472   2.523   7.092 -0.6031 -0.4780 -0.2709
  117OSM   C10S12256   4.380   2.721   7.138 -0.4593 -0.5313  0.4329
  117OSM   H10S12257   4.303   2.794   7.103 -0.7813 -0.7059  0.7676
  117OSM   H10T12258   4.478   2.774   7.137 -0.6849 -0.0732 -1.2730
  117OSM   C11S12259   4.349   2.707   7.289  0.7828 -0.2797 -0.6276
  117OSM   H11S12260   4.434   2.659   7.343  0.9835  2.1588  1.4444
  117OSM   H11T12261   4.257   2.645   7.298 -0.6581  1.6896 -1.1188
  117OSM   C12S12262   4.331   2.847   7.368  0.0833  0.5699 -0.3942
  117OSM   H12S12263   4.239   2.906   7.354 -0.1820  0.7209  1.6521
  117OSM   H12T12264   4.412   2.904   7.316  0.5095 -0.4105 -0.8331
  117OSM   C13S12265   4.366   2.833   7.522  0.0041 -0.1457 -1.2034
  117OSM   H13S12266   4.412   2.932   7.544  0.3883 -0.2815 -1.3725
  117OSM   H13T12267   4.443   2.754   7.536 -1.1659 -1.0175  0.5464
  117OSM   C14S12268   4.252   2.794   7.616  0.0979 -0.3141  0.9223
  117OSM   H14S12269   4.233   2.685   7.605  0.2055 -0.2093 -0.4301
  117OSM   H14T12270   4.156   2.849   7.602  0.7921  0.4423 -1.2103
  117OSM   C15S12271   4.285   2.833   7.764 -0.5263 -0.1740 -0.6315
  117OSM   H15S12272   4.302   2.942   7.758 -1.5809  0.1326  1.3827
  117OSM   H15T12273   4.379   2.775   7.769 -1.6406 -2.0625 -0.5000
  117OSM   C16S12274   4.166   2.806   7.860 -0.4118 -0.7955 -0.4763
  117OSM   H16S12275   4.194   2.817   7.967 -0.0774 -0.3160 -0.6092
  117OSM   H16T12276   4.115   2.709   7.844 -1.8878  0.0756 -1.3122
  117OSM   C17S12277   4.052   2.905   7.858  0.3452  0.0344 -0.2230
  117OSM   H17S12278   3.999   2.898   7.761  1.2377 -1.2693 -0.6479
  117OSM   H17T12279   4.098   3.006   7.846  2.8545 -1.3518 -3.9012
  117OSM   C18S12280   3.948   2.906   7.971 -0.8831 -0.1088  0.1366
  117OSM   H18S12281   3.878   2.820   7.966 -3.2090  1.3868  3.3639
  117OSM   H18T12282   3.892   3.001   7.980 -1.2100  0.0701 -2.9321
  117OSM   H18U12283   4.003   2.892   8.067  0.0566 -2.9025 -0.6981
  117OSM    C1F12284   4.330   1.922   6.764 -0.2348 -0.6618  0.3784
  117OSM     OF12285   4.441   1.881   6.724 -0.2751 -0.2829 -0.6843
  117OSM    C2F12286   4.265   1.885   6.891 -0.1830  0.0434  0.1908
  117OSM    H2F12287   4.224   1.783   6.874 -1.2782  0.5488 -0.2717
  117OSM    H2G12288   4.179   1.952   6.910  0.9265  1.2656  1.0420
  117OSM    C3F12289   4.372   1.898   7.007  0.4507 -0.0576  0.7225
  117OSM    H3F12290   4.393   2.005   7.030 -2.4301  0.2098  2.6763
  117OSM    H3G12291   4.465   1.845   6.980 -1.2364 -2.2032 -1.3544
  117OSM    C4F12292   4.313   1.838   7.138  0.4033  0.6316  0.0115
  117OSM    H4F12293   4.286   1.736   7.105  1.5131  1.5184 -4.2715
  117OSM    H4G12294   4.236   1.911   7.172  1.0648  0.9254  0.8957
  117OSM    C5F12295   4.398   1.828   7.265 -0.4946 -0.5788  0.6286
  117OSM    H5F12296   4.462   1.919   7.262 -2.0465  0.5580  0.5542
  117OSM    H5G12297   4.469   1.744   7.251  0.5502  0.3929 -0.1440
  117OSM    C6F12298   4.319   1.826   7.395 -0.0258  0.0072 -0.7945
  117OSM    H6F12299   4.234   1.755   7.381  1.1364 -0.9048 -4.3509
  117OSM    H6G12300   4.264   1.919   7.420 -3.8951 -2.4917  1.0611
  117OSM    C7F12301   4.422   1.788   7.507  0.3324  0.3701 -1.1608
  117OSM    H7F12302   4.494   1.868   7.535  2.1090 -1.7336  0.6705
  117OSM    H7G12303   4.479   1.699   7.471 -1.9819 -1.3512 -0.7688
  117OSM    C8F12304   4.345   1.736   7.632 -0.3309  0.0467 -0.3248
  117OSM    H8F12305   4.415   1.692   7.705 -0.6488 -0.8521 -0.5496
  117OSM    H8G12306   4.286   1.646   7.603 -2.1721  0.2085  2.5560
  117OSM    C9F12307   4.260   1.839   7.695 -0.1444 -0.1440  0.5055
  117OSM    H9F12308   4.186   1.883   7.627  1.5220  0.8424 -0.7433
  117OSM   C10F12309   4.259   1.869   7.827  0.4211  0.2523 -0.2869
  117OSM   H10F12310   4.191   1.946   7.867 -0.4167 -1.5927  2.0801
  117OSM   C11F12311   4.338   1.793   7.928 -0.0105  0.0683  0.0623
  117OSM   H11F12312   4.355   1.853   8.020 -1.7757  1.3034 -0.3589
  117OSM   H11G12313   4.437   1.758   7.891 -1.1657 -1.8628 -1.3521
  117OSM   C12F12314   4.271   1.657   7.967 -0.3408  0.2623  0.0624
  117OSM   H12F12315   4.291   1.581   7.889 -0.4238  1.1776 -0.8802
  117OSM   H12G12316   4.162   1.667   7.949 -0.5318 -0.3583  0.8478
  117OSM   C13F12317   4.291   1.621   8.114  0.2193  0.6690 -0.6985
  117OSM   H13F12318   4.247   1.706   8.171 -0.0857  0.4571 -0.6194
  117OSM   H13G12319   4.402   1.617   8.123  0.4068  2.3001 -1.9143
  117OSM   C14F12320   4.230   1.479   8.151 -0.0506  0.6108 -0.4153
  117OSM   H14F12321   4.298   1.409   8.096  0.5663 -2.0198  3.3420
  117OSM   H14G12322   4.126   1.452   8.125 -0.1726 -0.4617  1.0627
  117OSM   C15F12323   4.263   1.450   8.302  0.4051 -0.5461  0.1483
  117OSM   H15F12324   4.220   1.532   8.363  1.1091  0.2012 -0.3326
  117OSM   H15G12325   4.373   1.462   8.311  0.0625  1.7315  2.3058
  117OSM   C16F12326   4.207   1.325   8.365 -0.1599  0.2018  0.2474
  117OSM   H16F12327   4.282   1.249   8.333 -1.5553 -1.3609  0.5512
  117OSM   H16G12328   4.112   1.304   8.311  0.0716  0.6180 -0.3273
  117OSM   C17F12329   4.196   1.324   8.515 -0.0414  0.2088 -0.2407
  117OSM   H17F12330   4.116   1.393   8.548  0.6658  1.4115 -0.9666
  117OSM   H17G12331   4.166   1.219   8.537 -1.0322  0.4498 -0.3736
  117OSM   C18F12332   4.324   1.350   8.594  0.3314 -0.4416 -0.4961
  117OSM   H18F12333   4.356   1.455   8.579  0.1926 -0.5591 -1.7328
  117OSM   H18G12334   4.400   1.277   8.559  0.6622 -0.3152 -0.0302
  117OSM   H18H12335   4.304   1.343   8.703 -1.1949  1.2546 -0.6136
  118OSM      N12336   0.822   4.494   5.989  0.0638 -0.2590  0.4026
  118OSM    C1512337   0.677   4.502   5.976 -0.7796 -0.0034 -0.3866
  118OSM   H15A12338   0.644   4.600   6.008  1.3373  0.4197  0.6962
  118OSM   H15B12339   0.623   4.427   6.032  0.9583  0.5568  2.2355
  118OSM   H15C12340   0.644   4.493   5.874 -2.2288  0.8683 -0.0362
  118OSM    C1412341   0.885   4.374   5.922 -0.3405  0.7943 -0.9212
  118OSM   H14A12342   0.857   4.288   5.980  0.1861 -0.8463 -2.9957
  118OSM   H14B12343   0.992   4.388   5.919 -0.5422  2.7481 -0.3277
  118OSM   H14C12344   0.845   4.361   5.822 -1.4028  0.0206 -0.4064
  118OSM    C1312345   0.871   4.616   5.911  0.4116  0.2533 -0.8584
  118OSM   H13A12346   0.849   4.619   5.805 -3.6520  0.5361 -0.1704
  118OSM   H13B12347   0.978   4.622   5.921  0.2037 -0.0178  2.9496
  118OSM   H13C12348   0.838   4.712   5.948  1.9068  0.6530 -0.4816
  118OSM    C1212349   0.871   4.507   6.137  0.4644  0.1375  0.1032
  118OSM   H12A12350   0.838   4.602   6.176  0.9194 -0.1452  1.2140
  118OSM   H12B12351   0.979   4.504   6.137  0.5441 -3.9900  1.7738
  118OSM    C1112352   0.817   4.402   6.240  0.1282  0.7039  0.4363
  118OSM   H11A12353   0.707   4.410   6.249 -0.3588 -2.6405 -0.9360
  118OSM   H11B12354   0.862   4.439   6.334  0.6611  1.7349 -0.1972
  118OSM      P12355   0.766   4.146   6.258 -0.1682 -0.2317  0.5443
  118OSM    O1312356   0.622   4.182   6.243 -0.0924 -0.0425 -0.2602
  118OSM    O1412357   0.811   4.022   6.188 -0.0284  0.2965 -0.0557
  118OSM    O1112358   0.780   4.118   6.412  0.1684 -0.5758 -0.1059
  118OSM    O1212359   0.855   4.268   6.218 -0.1594  0.6412 -0.0262
  118OSM    C1S12360   0.892   4.165   6.487  0.2210  0.6969  0.5424
  118OSM    H1S12361   0.902   4.276   6.485 -0.8453  0.8373  1.6762
  118OSM    H1T12362   0.984   4.112   6.455  0.6491  1.6819  0.0968
  118OSM     NF12363   0.917   3.977   6.656 -0.3778  0.1206  0.6402
  118OSM    HNF12364   0.846   3.908   6.647  0.8441 -0.9105 -2.0390
  118OSM    C2S12365   0.877   4.117   6.639 -0.0168 -0.4128  0.1188
  118OSM    H2S12366   0.956   4.179   6.688 -1.8004  1.4319  0.8041
  118OSM    C3S12367   0.729   4.136   6.692  0.2147  0.0511 -0.2805
  118OSM    H3S12368   0.667   4.064   6.635  2.3516 -1.9572 -0.1915
  118OSM     O312369   0.674   4.257   6.652 -0.9427  0.1606  0.4201
  118OSM    HO312370   0.736   4.306   6.596  0.3900 -0.7499  1.0315
  118OSM    C4S12371   0.719   4.121   6.842 -0.2329  0.2558 -0.2919
  118OSM    H4S12372   0.741   4.210   6.903  1.3439  0.0349 -0.4832
  118OSM    C5S12373   0.657   4.009   6.892 -0.1811 -0.5566  0.0599
  118OSM    H5S12374   0.608   3.933   6.830 -0.9779 -0.2391  0.2859
  118OSM    C6S12375   0.639   3.985   7.043  0.5887  0.4230 -0.6598
  118OSM    H6S12376   0.637   3.875   7.059 -2.5565  0.6655  1.6072
  118OSM    H6T12377   0.546   4.029   7.085  1.5790  2.8347 -0.8072
  118OSM    C7S12378   0.756   4.014   7.143  0.6819 -0.2597 -0.0424
  118OSM    H7S12379   0.768   4.124   7.150  0.1866 -0.1621 -0.7180
  118OSM    H7T12380   0.849   3.973   7.098  1.0603  0.2995  0.2105
  118OSM    C8S12381   0.720   3.962   7.287  0.4194 -0.4655 -0.3570
  118OSM    H8S12382   0.722   3.851   7.297  1.7846 -0.5654 -1.3991
  118OSM    H8T12383   0.617   4.001   7.302  0.7836 -0.1431  1.6771
  118OSM    C9S12384   0.819   4.012   7.382  0.0185 -0.0682  0.2967
  118OSM    H9S12385   0.849   4.116   7.355 -0.5817 -0.7987 -3.8146
  118OSM    H9T12386   0.916   3.959   7.367  1.2918  1.7638  1.5906
  118OSM   C10S12387   0.776   4.010   7.529 -0.7508  0.0925 -1.1984
  118OSM   H10S12388   0.721   3.921   7.566  1.7067 -0.3321  1.8293
  118OSM   H10T12389   0.701   4.092   7.536 -0.6891  0.0863 -0.3879
  118OSM   C11S12390   0.879   4.050   7.637  0.3389  0.0082  0.5480
  118OSM   H11S12391   0.820   4.087   7.723  0.8164  0.7707  0.5560
  118OSM   H11T12392   0.937   4.140   7.607  0.9507 -0.4572  0.2970
  118OSM   C12S12393   0.970   3.936   7.660 -0.5317 -0.7902  0.2054
  118OSM   H12S12394   1.039   3.922   7.574  0.3240 -0.3134  0.7980
  118OSM   H12T12395   0.905   3.847   7.672 -2.1658  0.5799  2.0749
  118OSM   C13S12396   1.060   3.947   7.783  0.4873 -0.0773  0.3939
  118OSM   H13S12397   1.141   4.020   7.762  0.3424  0.4630  1.6412
  118OSM   H13T12398   1.117   3.852   7.778  0.6729  0.1030 -2.5410
  118OSM   C14S12399   0.981   3.947   7.906  0.1153 -0.0204  0.3322
  118OSM   H14S12400   0.902   3.869   7.908 -2.3930  2.3739  0.0331
  118OSM   H14T12401   0.924   4.041   7.899  0.1407 -0.1624 -4.5191
  118OSM   C15S12402   1.070   3.918   8.023 -0.5056  0.4038  0.8213
  118OSM   H15S12403   1.052   3.992   8.104 -2.8381 -0.1543  0.8856
  118OSM   H15T12404   1.176   3.903   7.993 -0.5666 -1.3081  1.3576
  118OSM   C16S12405   1.035   3.775   8.074 -0.0171  0.0951 -0.1919
  118OSM   H16S12406   1.050   3.707   7.987 -0.0228  1.4438 -1.2915
  118OSM   H16T12407   0.928   3.780   8.106 -0.2815 -0.7656 -0.8889
  118OSM   C17S12408   1.115   3.736   8.197 -0.8766  0.1805  0.1741
  118OSM   H17S12409   1.071   3.646   8.245 -0.5545  0.4342  0.9590
  118OSM   H17T12410   1.127   3.817   8.273  0.0946 -0.5859  0.8488
  118OSM   C18S12411   1.262   3.695   8.165  0.0736  0.0024 -0.1286
  118OSM   H18S12412   1.312   3.790   8.137 -0.3832 -0.1054 -1.3909
  118OSM   H18T12413   1.256   3.628   8.076 -1.8712 -1.1886  0.8161
  118OSM   H18U12414   1.310   3.633   8.243 -0.1423 -0.1600 -0.1219
  118OSM    C1F12415   1.038   3.920   6.666  0.0980 -0.0959 -0.5520
  118OSM     OF12416   1.141   3.987   6.668 -0.4416 -0.2102  0.1770
  118OSM    C2F12417   1.047   3.769   6.652  0.6183 -0.3128  0.0212
  118OSM    H2F12418   1.151   3.746   6.618  0.2809  1.0775 -2.0753
  118OSM    H2G12419   0.988   3.738   6.564  1.4794  0.2539 -0.7799
  118OSM    C3F12420   0.986   3.689   6.769  0.3827  0.1342 -0.3975
  118OSM    H3F12421   0.941   3.600   6.721 -1.4185  0.2060  1.0641
  118OSM    H3G12422   0.905   3.752   6.809 -1.2532  0.7809 -4.2756
  118OSM    C4F12423   1.079   3.643   6.877 -0.5752  0.3120 -0.4657
  118OSM    H4F12424   1.144   3.720   6.923 -0.1876 -1.1344  1.5247
  118OSM    H4G12425   1.143   3.561   6.838 -3.2055 -1.9813 -0.2528
  118OSM    C5F12426   0.993   3.583   6.994  0.3712  0.1075 -0.0243
  118OSM    H5F12427   0.928   3.503   6.953 -0.4203  0.8811 -0.3310
  118OSM    H5G12428   0.921   3.662   7.026  1.6456  0.3578  2.4793
  118OSM    C6F12429   1.062   3.537   7.118 -0.1360 -0.4778  0.1453
  118OSM    H6F12430   1.140   3.608   7.155 -1.3111  0.0242  1.7622
  118OSM    H6G12431   1.105   3.436   7.102  0.3498 -0.1761 -0.5084
  118OSM    C7F12432   0.971   3.511   7.233  0.4039 -0.9051  0.1603
  118OSM    H7F12433   1.027   3.438   7.294 -1.0411 -2.1528  0.0430
  118OSM    H7G12434   0.879   3.456   7.204  0.2026 -1.0023  0.9751
  118OSM    C8F12435   0.932   3.628   7.334  0.1917  0.3256  0.6460
  118OSM    H8F12436   0.859   3.595   7.411  2.2715 -0.0110  2.5668
  118OSM    H8G12437   0.885   3.711   7.277  0.2594  0.2688  0.5076
  118OSM    C9F12438   1.055   3.672   7.415  0.0084 -1.0678  0.2864
  118OSM    H9F12439   1.113   3.741   7.352 -1.7474 -0.5687 -0.8650
  118OSM   C10F12440   1.104   3.619   7.535  0.2784 -0.5324 -0.7109
  118OSM   H10F12441   1.188   3.669   7.584 -1.1055 -0.0210  1.2316
  118OSM   C11F12442   1.040   3.513   7.618  0.9025  0.2465  0.5970
  118OSM   H11F12443   1.062   3.415   7.572 -0.2569  0.4550 -0.4549
  118OSM   H11G12444   0.930   3.517   7.605  1.0101 -0.6893 -0.7936
  118OSM   C12F12445   1.082   3.512   7.758  0.0940  0.6355 -0.6733
  118OSM   H12F12446   1.026   3.592   7.810 -0.4372  1.7323 -2.8322
  118OSM   H12G12447   1.193   3.515   7.765  0.1829 -1.9798  0.4305
  118OSM   C13F12448   1.031   3.387   7.830 -0.4325 -0.5548 -0.7163
  118OSM   H13F12449   1.069   3.290   7.791  3.2694  0.2814  0.3898
  118OSM   H13G12450   0.922   3.371   7.817 -0.2658 -2.2471 -0.2508
  118OSM   C14F12451   1.064   3.391   7.982 -0.2811 -0.0654 -0.0498
  118OSM   H14F12452   1.050   3.488   8.034  0.3800  1.3791 -2.4370
  118OSM   H14G12453   1.171   3.363   7.985  0.0365  1.1857  1.6139
  118OSM   C15F12454   0.977   3.291   8.063  0.8691 -0.4549  0.0131
  118OSM   H15F12455   1.015   3.187   8.057  2.1954 -0.0392  0.9142
  118OSM   H15G12456   0.870   3.307   8.035  0.3098 -1.1799  1.5859
  118OSM   C16F12457   0.999   3.333   8.212  0.0602  0.6347  0.7173
  118OSM   H16F12458   0.970   3.439   8.224 -1.0689  0.2417  1.7246
  118OSM   H16G12459   1.108   3.314   8.226  0.1421  1.4822  1.2705
  118OSM   C17F12460   0.914   3.252   8.316 -0.2007  0.0543  0.7189
  118OSM   H17F12461   0.936   3.146   8.292  1.3241  0.6261 -0.5335
  118OSM   H17G12462   0.808   3.274   8.290 -0.2603  0.8032  1.5478
  118OSM   C18F12463   0.945   3.287   8.459 -0.0873 -0.1162 -0.5549
  118OSM   H18F12464   0.884   3.213   8.516 -2.1998 -0.1136 -2.6543
  118OSM   H18G12465   0.915   3.387   8.497  1.7556  0.3245 -0.1566
  118OSM   H18H12466   1.054   3.280   8.476  0.0441 -0.9509 -1.5893
  119OSM      N12467   2.392   4.044   5.962 -0.0811  0.6220  0.0832
  119OSM    C1512468   2.359   4.014   6.103 -0.5629  0.5226 -0.4113
  119OSM   H15A12469   2.445   3.973   6.154 -0.0901  0.8616 -0.9215
  119OSM   H15B12470   2.287   3.934   6.100  0.5121 -0.4888 -0.0126
  119OSM   H15C12471   2.332   4.102   6.160  2.9274  0.0245  2.3929
  119OSM    C1412472   2.448   3.918   5.899 -0.0940 -0.5738 -0.5061
  119OSM   H14A12473   2.365   3.848   5.897 -0.8937  0.3189  0.4462
  119OSM   H14B12474   2.520   3.870   5.963 -1.3046  0.1204  1.4813
  119OSM   H14C12475   2.491   3.926   5.800  2.0112 -1.5594  0.2733
  119OSM    C1312476   2.279   4.081   5.880  0.5835 -0.2101 -0.3270
  119OSM   H13A12477   2.307   4.113   5.781 -0.9166 -1.6630 -1.2764
  119OSM   H13B12478   2.217   4.160   5.920  1.4643  1.4771 -2.1324
  119OSM   H13C12479   2.210   3.998   5.873  1.9664 -1.3917 -0.2884
  119OSM    C1212480   2.503   4.147   5.949  0.0811 -0.3847 -0.0792
  119OSM   H12A12481   2.594   4.118   6.000  0.2496  1.1020  0.5040
  119OSM   H12B12482   2.480   4.234   6.009  1.7255  0.8565 -1.1564
  119OSM    C1112483   2.531   4.195   5.807  0.2692  0.1125 -0.6087
  119OSM   H11A12484   2.448   4.264   5.782  2.1705  2.0686 -1.8546
  119OSM   H11B12485   2.540   4.110   5.736 -2.0134 -0.4785 -0.2938
  119OSM      P12486   2.795   4.200   5.810 -0.8040  0.3077  0.0841
  119OSM    O1312487   2.795   4.108   5.692  0.5895 -0.3174  0.0374
  119OSM    O1412488   2.902   4.301   5.818 -0.4950  0.1556  0.1628
  119OSM    O1112489   2.783   4.120   5.948 -0.1803 -0.2295 -0.1199
  119OSM    O1212490   2.656   4.268   5.814 -0.1722 -0.4178  0.0306
  119OSM    C1S12491   2.825   4.178   6.070 -0.1082  0.1522 -0.3233
  119OSM    H1S12492   2.780   4.279   6.080 -0.2527 -0.0534  1.3838
  119OSM    H1T12493   2.936   4.188   6.067 -0.0819  1.4205  2.4329
  119OSM     NF12494   2.816   4.169   6.324  0.3210 -0.0640 -0.2997
  119OSM    HNF12495   2.893   4.149   6.383 -0.7681 -0.0709  1.1743
  119OSM    C2S12496   2.808   4.086   6.199  0.2757 -1.0467  0.6334
  119OSM    H2S12497   2.706   4.043   6.186 -1.8273  3.8388 -1.6337
  119OSM    C3S12498   2.896   3.957   6.197 -0.1222  1.1002 -0.5669
  119OSM    H3S12499   3.004   3.983   6.199  0.0087  0.6781 -1.7010
  119OSM     O312500   2.898   3.874   6.082  0.5310 -0.1932 -0.9433
  119OSM    HO312501   2.864   3.929   6.011 -0.1711  1.5034  0.6090
  119OSM    C4S12502   2.871   3.873   6.321 -0.1705  0.3256 -0.6745
  119OSM    H4S12503   2.765   3.850   6.339  0.4287 -2.3748 -0.2803
  119OSM    C5S12504   2.966   3.822   6.397 -0.5585 -0.1484 -0.0192
  119OSM    H5S12505   3.071   3.854   6.388 -0.4866  0.5978  2.6632
  119OSM    C6S12506   2.949   3.733   6.516 -0.8085  0.2939 -0.3174
  119OSM    H6S12507   3.008   3.641   6.498  3.2986  2.7791 -0.9204
  119OSM    H6T12508   2.842   3.706   6.532 -0.7676 -0.1077 -0.7049
  119OSM    C7S12509   2.990   3.807   6.651 -0.1161 -0.0122  0.4426
  119OSM    H7S12510   2.913   3.887   6.656 -0.1198  0.1676 -1.7155
  119OSM    H7T12511   3.083   3.854   6.614 -1.1923  0.7576 -1.4510
  119OSM    C8S12512   3.002   3.721   6.768 -0.9463  0.3216  0.4345
  119OSM    H8S12513   3.062   3.632   6.737  0.2269  0.5590  1.9154
  119OSM    H8T12514   2.906   3.689   6.814 -0.4428  0.7963  1.8624
  119OSM    C9S12515   3.074   3.796   6.878  0.3325 -0.8234  0.4045
  119OSM    H9S12516   3.074   3.741   6.974 -0.0203  0.0333  0.9060
  119OSM    H9T12517   3.010   3.883   6.904  0.9728 -0.3117  0.3090
  119OSM   C10S12518   3.216   3.862   6.850  0.0550 -0.0510  0.2458
  119OSM   H10S12519   3.214   3.934   6.765 -1.0807 -0.0777  0.2406
  119OSM   H10T12520   3.283   3.786   6.804 -0.9176 -1.1761  0.6614
  119OSM   C11S12521   3.269   3.919   6.977  0.2166  0.0250 -0.2900
  119OSM   H11S12522   3.209   4.005   7.014 -1.6562 -0.8027 -1.3052
  119OSM   H11T12523   3.368   3.967   6.962  0.5988 -0.6043  0.1829
  119OSM   C12S12524   3.296   3.809   7.079  0.5742 -0.3268 -1.1971
  119OSM   H12S12525   3.262   3.709   7.043 -1.0983 -0.6638  1.0438
  119OSM   H12T12526   3.232   3.832   7.168  2.8817 -2.0418  1.0730
  119OSM   C13S12527   3.439   3.805   7.134 -0.4686  0.4119 -0.3642
  119OSM   H13S12528   3.480   3.902   7.172  1.0131 -0.8698  1.4762
  119OSM   H13T12529   3.513   3.767   7.061  0.3716 -1.5083  1.3978
  119OSM   C14S12530   3.446   3.709   7.257 -0.1640 -0.7062 -0.4243
  119OSM   H14S12531   3.382   3.619   7.245 -2.6288  0.6520  1.4475
  119OSM   H14T12532   3.382   3.759   7.333 -0.3291 -2.7771  0.9044
  119OSM   C15S12533   3.575   3.673   7.314 -0.2590  0.1123  0.4402
  119OSM   H15S12534   3.632   3.750   7.370  4.1077 -1.3168 -1.5505
  119OSM   H15T12535   3.640   3.646   7.228  0.3509  1.0301  0.6067
  119OSM   C16S12536   3.573   3.549   7.398  0.4072  0.2713 -0.4735
  119OSM   H16S12537   3.674   3.505   7.413 -0.9392 -2.4464  1.4471
  119OSM   H16T12538   3.525   3.463   7.347 -0.1884 -1.3003  2.5383
  119OSM   C17S12539   3.504   3.563   7.533  0.6944  0.1151 -0.6612
  119OSM   H17S12540   3.399   3.593   7.514 -0.3383 -3.1772 -0.6815
  119OSM   H17T12541   3.565   3.629   7.599 -0.7487 -0.5733  1.4641
  119OSM   C18S12542   3.501   3.429   7.602  1.4032  0.5257 -0.5492
  119OSM   H18S12543   3.592   3.408   7.663  1.3361 -2.3592 -1.2997
  119OSM   H18T12544   3.488   3.343   7.533 -0.6497 -0.5915  1.1227
  119OSM   H18U12545   3.412   3.419   7.667  0.5535 -2.3873 -1.9930
  119OSM    C1F12546   2.729   4.259   6.359  0.0633  0.2792  0.4393
  119OSM     OF12547   2.634   4.296   6.296  0.4754  0.4253  0.1328
  119OSM    C2F12548   2.759   4.312   6.496  0.3196 -0.2717 -1.0352
  119OSM    H2F12549   2.838   4.390   6.487  0.9826 -0.0169  4.0829
  119OSM    H2G12550   2.799   4.223   6.548  1.2087  0.2916 -0.7429
  119OSM    C3F12551   2.638   4.384   6.571 -0.1878 -0.8330  0.4098
  119OSM    H3F12552   2.543   4.326   6.573 -1.0964  0.5955 -0.3827
  119OSM    H3G12553   2.619   4.478   6.516 -0.9493 -1.4593 -0.4252
  119OSM    C4F12554   2.674   4.414   6.719 -0.3059  0.8356 -0.1862
  119OSM    H4F12555   2.770   4.469   6.718  0.3743 -0.2623  0.9055
  119OSM    H4G12556   2.694   4.317   6.770  2.8364  0.8543 -1.2024
  119OSM    C5F12557   2.570   4.501   6.791  0.2810  0.6006  0.1664
  119OSM    H5F12558   2.472   4.450   6.800  0.9929 -0.5694  2.0239
  119OSM    H5G12559   2.556   4.595   6.734 -0.4703  0.0660 -0.5498
  119OSM    C6F12560   2.604   4.533   6.944 -0.0351  0.5958  0.8229
  119OSM    H6F12561   2.522   4.597   6.983 -0.3336 -0.3232  1.7244
  119OSM    H6G12562   2.701   4.588   6.946  0.5705 -0.4489  1.3405
  119OSM    C7F12563   2.635   4.419   7.038 -0.1123 -0.2390  0.3269
  119OSM    H7F12564   2.733   4.375   7.012  1.2948  2.3562  0.9144
  119OSM    H7G12565   2.560   4.341   7.011  2.9738 -3.8176  1.2635
  119OSM    C8F12566   2.645   4.464   7.183 -0.6116 -0.7250  0.2745
  119OSM    H8F12567   2.567   4.537   7.214  0.0401 -1.2071  3.3340
  119OSM    H8G12568   2.737   4.527   7.188 -0.2865 -1.0930 -0.6853
  119OSM    C9F12569   2.653   4.346   7.274  0.1002  0.0433 -0.1363
  119OSM    H9F12570   2.574   4.273   7.250 -0.3125  0.4742 -0.0991
  119OSM   C10F12571   2.754   4.328   7.359 -0.6031  0.2394 -0.2687
  119OSM   H10F12572   2.752   4.230   7.409 -0.9849  0.6999  0.6519
  119OSM   C11F12573   2.862   4.431   7.401  0.2056  0.5409  0.1332
  119OSM   H11F12574   2.866   4.517   7.331  0.3009 -0.1099 -0.6760
  119OSM   H11G12575   2.953   4.370   7.384 -1.1434 -1.7869  0.7508
  119OSM   C12F12576   2.852   4.473   7.555 -0.3760  0.5401  0.0614
  119OSM   H12F12577   2.747   4.499   7.581  0.2033  1.2846  1.8422
  119OSM   H12G12578   2.920   4.561   7.566 -1.0194  1.3007 -1.6564
  119OSM   C13F12579   2.908   4.373   7.662 -0.2982  0.4870 -0.0129
  119OSM   H13F12580   2.994   4.323   7.611  1.0841  1.3178  1.4302
  119OSM   H13G12581   2.834   4.297   7.695  1.3367 -0.5578  1.4616
  119OSM   C14F12582   2.966   4.442   7.783 -0.0699 -0.2084 -0.6495
  119OSM   H14F12583   3.042   4.518   7.754  0.2407 -0.0080  0.6292
  119OSM   H14G12584   3.036   4.375   7.838  0.5300  0.4211 -0.6284
  119OSM   C15F12585   2.862   4.508   7.878  0.6721  0.0114 -0.5679
  119OSM   H15F12586   2.803   4.427   7.926  3.1916 -0.9472  1.0910
  119OSM   H15G12587   2.789   4.563   7.814 -1.1947 -0.9969  0.5872
  119OSM   C16F12588   2.923   4.583   7.991 -0.3634 -0.6184 -0.2314
  119OSM   H16F12589   2.855   4.661   8.030  1.0920 -0.5183  2.3559
  119OSM   H16G12590   3.010   4.645   7.959 -0.2021 -1.9544 -2.6356
  119OSM   C17F12591   2.961   4.499   8.119 -0.4515 -0.3059 -0.0917
  119OSM   H17F12592   3.042   4.433   8.081 -0.8177 -0.0757 -1.3139
  119OSM   H17G12593   2.880   4.429   8.146 -0.4532  0.0506  0.8730
  119OSM   C18F12594   3.021   4.584   8.240  0.3408 -0.3726 -0.4183
  119OSM   H18F12595   2.950   4.664   8.270  2.2005  1.3088 -0.2827
  119OSM   H18G12596   3.111   4.632   8.195  2.9348 -3.4572  1.1001
  119OSM   H18H12597   3.041   4.505   8.315 -0.0730 -0.5782 -0.5197
  120OSM      N12598   0.144   1.906   6.104  0.3647  0.1753 -0.2718
  120OSM    C1512599   0.037   1.822   6.042 -0.0202 -0.5396 -0.0160
  120OSM   H15A12600  -0.014   1.893   5.978  1.8646  2.2504  1.3500
  120OSM   H15B12601  -0.035   1.795   6.118 -1.2672 -0.9335 -1.2951
  120OSM   H15C12602   0.070   1.731   5.996  0.6678  0.2016 -1.0265
  120OSM    C1412603   0.222   1.975   5.998 -0.2425  0.2972 -0.0219
  120OSM   H14A12604   0.306   2.029   6.038 -0.7874 -0.0712  1.6857
  120OSM   H14B12605   0.155   2.037   5.940 -2.8877 -1.9445  0.4116
  120OSM   H14C12606   0.266   1.900   5.933 -1.1265  0.7107 -1.1413
  120OSM    C1312607   0.073   2.026   6.174 -0.6267 -0.6137 -0.2987
  120OSM   H13A12608   0.010   2.074   6.100 -0.1945 -0.6884 -0.7237
  120OSM   H13B12609   0.153   2.089   6.211 -2.1563  0.9431  0.5160
  120OSM   H13C12610   0.007   1.985   6.249 -1.9903  1.3444 -0.3457
  120OSM    C1212611   0.234   1.833   6.194  0.8447 -0.0074 -0.0799
  120OSM   H12A12612   0.318   1.900   6.208  0.6231 -0.0416  1.7042
  120OSM   H12B12613   0.261   1.739   6.148 -3.7290 -0.3328 -2.6748
  120OSM    C1112614   0.171   1.803   6.337 -0.7833  0.5022  0.4572
  120OSM   H11A12615   0.156   1.902   6.387  0.3383  2.5278 -2.9192
  120OSM   H11B12616   0.249   1.748   6.394 -1.3400 -1.0075 -0.1933
  120OSM      P12617  -0.078   1.753   6.405  0.1278 -0.3422 -0.1079
  120OSM    O1312618  -0.094   1.899   6.405 -0.3443 -0.0523 -0.4020
  120OSM    O1412619  -0.187   1.668   6.338 -0.0304  0.5422 -0.0339
  120OSM    O1112620  -0.031   1.699   6.548  0.1264  0.0225 -0.1214
  120OSM    O1212621   0.052   1.721   6.325 -0.4004 -0.5634 -0.0798
  120OSM    C1S12622   0.051   1.581   6.551 -0.4104  0.7471  0.1163
  120OSM    H1S12623   0.151   1.597   6.505  0.5571 -1.7998  1.1530
  120OSM    H1T12624   0.008   1.499   6.489  1.7054 -0.5134  0.2053
  120OSM     NF12625   0.187   1.432   6.706 -0.2266  0.1159  0.0335
  120OSM    HNF12626   0.174   1.334   6.707  0.5571 -0.0040 -0.4440
  120OSM    C2S12627   0.072   1.520   6.700  0.2163 -0.1333 -0.6659
  120OSM    H2S12628   0.090   1.611   6.762 -0.8251 -0.2238 -0.2034
  120OSM    C3S12629  -0.074   1.465   6.746 -0.3556  0.4984  0.3172
  120OSM    H3S12630  -0.089   1.377   6.681  4.9481 -0.7687  0.4047
  120OSM     O312631  -0.183   1.557   6.727 -0.1542 -0.5268 -0.1956
  120OSM    HO312632  -0.144   1.630   6.677  0.4211  1.0281  2.3620
  120OSM    C4S12633  -0.072   1.415   6.889 -0.3159  0.1947  0.7557
  120OSM    H4S12634  -0.057   1.306   6.896  1.9055  0.3412 -0.5554
  120OSM    C5S12635  -0.081   1.488   7.001 -0.2647 -0.2113 -0.7064
  120OSM    H5S12636  -0.059   1.595   6.988  0.6150 -0.2481  0.2972
  120OSM    C6S12637  -0.084   1.425   7.139  0.0610  0.1013 -0.0480
  120OSM    H6S12638  -0.069   1.500   7.219  2.3395 -1.1528  0.8027
  120OSM    H6T12639  -0.009   1.344   7.155 -1.0933 -1.3179 -1.4429
  120OSM    C7S12640  -0.218   1.352   7.158  0.1305  0.2673  0.6464
  120OSM    H7S12641  -0.225   1.271   7.082 -0.3291 -0.2006  1.1764
  120OSM    H7T12642  -0.303   1.420   7.133  0.1407  0.5142  1.2552
  120OSM    C8S12643  -0.243   1.293   7.293  0.2554  0.0808 -0.1259
  120OSM    H8S12644  -0.142   1.266   7.329 -0.2612 -1.4766  0.2615
  120OSM    H8T12645  -0.301   1.198   7.282 -0.2447  0.4130 -0.4310
  120OSM    C9S12646  -0.344   1.374   7.373  0.1038  0.5080 -0.8227
  120OSM    H9S12647  -0.370   1.319   7.466 -0.2234  1.0791 -0.5717
  120OSM    H9T12648  -0.436   1.373   7.310 -0.4476 -1.6695 -0.0592
  120OSM   C10S12649  -0.299   1.521   7.401  0.3753  0.6524  0.0789
  120OSM   H10S12650  -0.269   1.557   7.300  0.6365  1.2820  0.3774
  120OSM   H10T12651  -0.221   1.528   7.480 -1.7492  3.5641  2.1214
  120OSM   C11S12652  -0.420   1.598   7.448 -0.3491  0.3380  0.1058
  120OSM   H11S12653  -0.488   1.554   7.524  0.0156 -1.6543 -0.6477
  120OSM   H11T12654  -0.483   1.608   7.357 -0.5419  0.2801  0.2327
  120OSM   C12S12655  -0.386   1.743   7.500 -0.4737 -0.3747 -0.4709
  120OSM   H12S12656  -0.397   1.805   7.408 -3.8863  2.2351  1.4692
  120OSM   H12T12657  -0.286   1.751   7.548 -0.6858 -0.6670  0.0223
  120OSM   C13S12658  -0.489   1.809   7.598  0.4538  0.3772 -0.1975
  120OSM   H13S12659  -0.594   1.791   7.567  0.9345  0.2341 -1.8512
  120OSM   H13T12660  -0.480   1.918   7.576 -2.5749  0.8061  0.3093
  120OSM   C14S12661  -0.453   1.768   7.740 -0.1740 -0.2007  0.0352
  120OSM   H14S12662  -0.362   1.827   7.763  0.5689 -1.2222 -0.2244
  120OSM   H14T12663  -0.433   1.659   7.740 -1.4621 -0.4659 -1.2008
  120OSM   C15S12664  -0.574   1.797   7.837  0.0609 -0.3252  0.3075
  120OSM   H15S12665  -0.662   1.750   7.790 -1.6298  1.1470  1.8496
  120OSM   H15T12666  -0.571   1.908   7.843  1.3001 -0.1919 -1.7737
  120OSM   C16S12667  -0.544   1.731   7.972  0.3760  0.3567  0.5492
  120OSM   H16S12668  -0.439   1.755   8.002  0.2684  1.3033  0.2149
  120OSM   H16T12669  -0.549   1.621   7.963 -1.8141  0.4268  0.5673
  120OSM   C17S12670  -0.644   1.767   8.084 -0.4796 -0.2151  0.3616
  120OSM   H17S12671  -0.600   1.742   8.183  0.1298  3.7125  1.2645
  120OSM   H17T12672  -0.738   1.711   8.069 -2.0422  2.0714  1.1222
  120OSM   C18S12673  -0.689   1.910   8.092  0.4242  0.8507 -1.1231
  120OSM   H18S12674  -0.599   1.970   8.121  3.0317 -3.0132 -0.3247
  120OSM   H18T12675  -0.770   1.930   8.166 -0.4715 -0.6271 -1.6673
  120OSM   H18U12676  -0.735   1.954   8.002 -2.4368  1.7983  0.6689
  120OSM    C1F12677   0.308   1.487   6.704 -0.1508 -0.2672 -0.5577
  120OSM     OF12678   0.317   1.609   6.696  0.0348  0.2728 -0.2595
  120OSM    C2F12679   0.432   1.404   6.697 -0.1174 -0.0392 -0.0278
  120OSM    H2F12680   0.515   1.467   6.735 -0.2639 -0.4435  0.9864
  120OSM    H2G12681   0.456   1.384   6.590  4.3712  0.2178  0.7352
  120OSM    C3F12682   0.422   1.271   6.776  0.6575 -0.2383  0.3462
  120OSM    H3F12683   0.516   1.215   6.756  1.4861  1.1360  0.2590
  120OSM    H3G12684   0.341   1.217   6.723  0.3050  1.3354 -0.7918
  120OSM    C4F12685   0.408   1.300   6.924  0.5852  0.7107 -0.0333
  120OSM    H4F12686   0.314   1.358   6.940  0.5613  0.7047 -0.1531
  120OSM    H4G12687   0.493   1.368   6.948 -0.4376  2.0032  0.0127
  120OSM    C5F12688   0.419   1.180   7.019  0.8611 -0.7115 -0.4868
  120OSM    H5F12689   0.521   1.136   7.024  0.9030 -0.8368 -2.0539
  120OSM    H5G12690   0.350   1.096   6.996  0.6384 -1.1620  1.5870
  120OSM    C6F12691   0.380   1.215   7.169  0.0035 -0.0204  0.4443
  120OSM    H6F12692   0.270   1.233   7.176 -0.2443 -0.8449 -0.9128
  120OSM    H6G12693   0.437   1.304   7.202  0.7382 -0.6898  0.9995
  120OSM    C7F12694   0.411   1.083   7.249 -0.1347 -0.1411  0.5936
  120OSM    H7F12695   0.515   1.062   7.217 -1.9990 -3.6348 -4.4466
  120OSM    H7G12696   0.358   0.999   7.200  1.0514 -1.5367  1.6237
  120OSM    C8F12697   0.397   1.108   7.396  0.6676 -0.6441 -0.2566
  120OSM    H8F12698   0.300   1.154   7.422  0.3032 -1.8074  0.5358
  120OSM    H8G12699   0.477   1.182   7.419  0.3661  0.0434 -1.3282
  120OSM    C9F12700   0.414   0.979   7.473 -0.1273  0.4520  0.1099
  120OSM    H9F12701   0.379   0.894   7.412  3.5836 -0.4029 -1.1022
  120OSM   C10F12702   0.434   0.980   7.608 -0.5584  0.1779 -0.4650
  120OSM   H10F12703   0.433   0.882   7.659 -0.2336 -0.5528 -1.8065
  120OSM   C11F12704   0.448   1.099   7.697  0.1534  0.4321  0.4131
  120OSM   H11F12705   0.495   1.190   7.653  0.5122  0.5624  1.0561
  120OSM   H11G12706   0.523   1.067   7.773  1.5233  0.9450 -0.6767
  120OSM   C12F12707   0.312   1.143   7.764 -0.0373  0.0877 -0.3982
  120OSM   H12F12708   0.225   1.123   7.698  0.7667 -2.0103 -0.9082
  120OSM   H12G12709   0.320   1.253   7.774 -0.9318  0.2864 -1.5362
  120OSM   C13F12710   0.287   1.075   7.906 -0.5082 -0.3759 -0.5394
  120OSM   H13F12711   0.366   1.116   7.973  0.2645 -1.2484 -0.8944
  120OSM   H13G12712   0.302   0.965   7.900  1.5347 -0.2843  1.5084
  120OSM   C14F12713   0.147   1.097   7.960  0.3613  0.9846  0.2752
  120OSM   H14F12714   0.076   1.071   7.878  0.4931 -0.8364  0.6963
  120OSM   H14G12715   0.134   1.204   7.987 -2.0307  0.6520  0.6560
  120OSM   C15F12716   0.116   1.006   8.085  0.4340 -0.3034  0.0552
  120OSM   H15F12717   0.164   0.906   8.080  0.1438 -0.4648  0.4509
  120OSM   H15G12718   0.006   0.995   8.080  0.4977 -0.6266 -0.9260
  120OSM   C16F12719   0.157   1.060   8.225 -0.4673 -0.3725  0.3856
  120OSM   H16F12720   0.120   1.163   8.244  0.4443  0.4722 -1.9947
  120OSM   H16G12721   0.267   1.077   8.231 -0.8303  2.5133  0.3585
  120OSM   C17F12722   0.115   0.971   8.351  0.1219 -0.3370  0.1086
  120OSM   H17F12723   0.158   1.031   8.433 -1.9003  0.4421  0.6590
  120OSM   H17G12724   0.172   0.875   8.345  1.4928  0.4814 -0.4953
  120OSM   C18F12725  -0.036   0.944   8.367  0.1163 -0.5623 -0.4646
  120OSM   H18F12726  -0.055   0.873   8.450 -0.2090  0.3317  0.2554
  120OSM   H18G12727  -0.084   0.896   8.279  0.1049 -0.1579 -0.6824
  120OSM   H18H12728  -0.087   1.041   8.389  4.0114  1.3018  1.3603
  121OSM      N12729   1.414   3.212   5.884 -0.6741  0.0647  0.6548
  121OSM    C1512730   1.318   3.277   5.787 -0.2256 -1.1904  0.2817
  121OSM   H15A12731   1.321   3.238   5.687 -2.1637  1.8070 -1.0905
  121OSM   H15B12732   1.336   3.382   5.766  0.1413 -1.4059 -0.5096
  121OSM   H15C12733   1.214   3.275   5.818 -0.2504 -2.4740  0.1721
  121OSM    C1412734   1.376   3.069   5.906 -0.0722 -0.7862 -0.8766
  121OSM   H14A12735   1.275   3.067   5.946  0.0349 -0.1589 -0.5655
  121OSM   H14B12736   1.457   3.027   5.963  0.7435 -0.3180 -1.6857
  121OSM   H14C12737   1.361   3.009   5.818 -0.5583  0.0352 -1.3705
  121OSM    C1312738   1.552   3.218   5.828 -0.6904  0.1727  0.0695
  121OSM   H13A12739   1.562   3.144   5.750 -0.1913  0.3159 -0.0128
  121OSM   H13B12740   1.627   3.191   5.901 -0.0515 -2.6023 -1.4614
  121OSM   H13C12741   1.583   3.304   5.770  1.6768 -1.7932 -1.8173
  121OSM    C1212742   1.423   3.285   6.016 -0.3090  0.6383 -0.7210
  121OSM   H12A12743   1.326   3.305   6.059  0.5359  2.4269  0.4936
  121OSM   H12B12744   1.472   3.376   5.987 -0.3666  0.7972 -0.3324
  121OSM    C1112745   1.515   3.231   6.134  0.0581  0.3095  0.3183
  121OSM   H11A12746   1.478   3.131   6.166  2.0320 -0.3687  0.6143
  121OSM   H11B12747   1.487   3.301   6.215 -0.6732  1.1641 -0.6372
  121OSM      P12748   1.765   3.144   6.188  0.0530  0.2145 -0.1055
  121OSM    O1312749   1.778   3.012   6.124 -0.5136 -0.5775  0.1301
  121OSM    O1412750   1.893   3.221   6.198  0.3941 -0.5881  0.1828
  121OSM    O1112751   1.699   3.128   6.322  0.1708 -0.3499 -0.6537
  121OSM    O1212752   1.656   3.228   6.107  0.0203  0.1083 -0.0554
  121OSM    C1S12753   1.789   3.110   6.438  0.7500 -0.1840 -0.7692
  121OSM    H1S12754   1.866   3.188   6.451 -1.2167  1.6029  1.0638
  121OSM    H1T12755   1.832   3.008   6.435 -0.1722 -0.5956 -4.1717
  121OSM     NF12756   1.795   3.158   6.686  0.2067 -0.1655 -0.4763
  121OSM    HNF12757   1.784   3.082   6.749  2.9676 -1.4679 -1.4021
  121OSM    C2S12758   1.711   3.133   6.569  0.0564  0.1908  0.4179
  121OSM    H2S12759   1.650   3.224   6.552  2.0409  1.3346 -1.0382
  121OSM    C3S12760   1.607   3.023   6.584 -0.1303 -0.2747 -0.7745
  121OSM    H3S12761   1.655   2.923   6.597 -1.2966 -0.7256  0.2526
  121OSM     O312762   1.517   3.007   6.476 -0.5687 -0.0834 -0.0384
  121OSM    HO312763   1.562   3.044   6.400  2.7451 -2.8855  0.3027
  121OSM    C4S12764   1.519   3.052   6.708  0.3815 -0.3428  0.2641
  121OSM    H4S12765   1.477   3.153   6.706  2.4030  0.5947  1.7495
  121OSM    C5S12766   1.493   2.968   6.811 -0.4155  0.4592  0.0310
  121OSM    H5S12767   1.547   2.873   6.822 -0.6910  0.5263  2.5313
  121OSM    C6S12768   1.419   3.001   6.935  0.3160 -0.5907  0.1044
  121OSM    H6S12769   1.460   2.932   7.012  0.5284 -1.2565 -0.5918
  121OSM    H6T12770   1.311   2.984   6.914  0.7239 -1.2038 -1.6349
  121OSM    C7S12771   1.436   3.143   6.988 -0.4258 -0.4486  0.1991
  121OSM    H7S12772   1.384   3.212   6.919 -0.4394 -1.3921 -0.7538
  121OSM    H7T12773   1.545   3.167   6.994  0.0004 -2.0334 -0.7784
  121OSM    C8S12774   1.380   3.172   7.130  0.2776  0.3581 -0.9606
  121OSM    H8S12775   1.410   3.096   7.204 -1.1552  1.6370  1.0462
  121OSM    H8T12776   1.270   3.167   7.114 -0.0635  0.5823  1.1109
  121OSM    C9S12777   1.426   3.307   7.178  0.1761  0.5192 -1.1380
  121OSM    H9S12778   1.394   3.386   7.106  0.0818  1.6866  0.1501
  121OSM    H9T12779   1.536   3.302   7.167  0.3754 -1.9922  0.9456
  121OSM   C10S12780   1.410   3.364   7.317 -0.1297 -0.0178  0.0470
  121OSM   H10S12781   1.304   3.392   7.336 -0.0496  0.1850  0.2013
  121OSM   H10T12782   1.467   3.459   7.325  2.9205 -1.8769  3.7021
  121OSM   C11S12783   1.458   3.271   7.431  0.3976 -0.3479 -0.2357
  121OSM   H11S12784   1.566   3.251   7.417  0.7258  0.1236  1.3502
  121OSM   H11T12785   1.406   3.173   7.417 -0.4448  0.0681 -0.0976
  121OSM   C12S12786   1.421   3.329   7.572  0.1503  0.9822  0.3015
  121OSM   H12S12787   1.311   3.342   7.565 -0.2725 -1.7424  0.8317
  121OSM   H12T12788   1.463   3.431   7.577 -0.8393  1.6727 -2.9358
  121OSM   C13S12789   1.462   3.231   7.687  0.3733 -0.3554  0.9443
  121OSM   H13S12790   1.572   3.224   7.678  0.2158 -0.5711 -1.7964
  121OSM   H13T12791   1.423   3.127   7.676  1.6183 -0.9708  2.1295
  121OSM   C14S12792   1.432   3.311   7.818 -0.4657 -0.1614 -0.3838
  121OSM   H14S12793   1.322   3.293   7.813  0.0080 -3.2665 -2.0345
  121OSM   H14T12794   1.444   3.421   7.808  1.8403 -0.2866  0.3986
  121OSM   C15S12795   1.512   3.269   7.943  0.7373  0.5332  0.3275
  121OSM   H15S12796   1.497   3.343   8.024 -2.4726 -0.2496  0.5883
  121OSM   H15T12797   1.618   3.269   7.909  0.5683  0.6173 -0.2149
  121OSM   C16S12798   1.486   3.127   8.002  0.0848 -0.2080 -0.4478
  121OSM   H16S12799   1.569   3.121   8.075  0.3086  2.0291 -0.4347
  121OSM   H16T12800   1.497   3.057   7.917 -1.4004  0.5135 -1.2852
  121OSM   C17S12801   1.359   3.103   8.085 -0.1032  0.3050  0.3606
  121OSM   H17S12802   1.357   2.993   8.094  1.4390  0.2212  0.0911
  121OSM   H17T12803   1.272   3.126   8.021 -1.7958 -1.0000  2.1044
  121OSM   C18S12804   1.361   3.172   8.222 -0.1841 -0.7945  0.2312
  121OSM   H18S12805   1.269   3.142   8.277  0.6790 -1.2588  1.4699
  121OSM   H18T12806   1.362   3.283   8.220 -0.9345 -0.7841 -1.8345
  121OSM   H18U12807   1.452   3.146   8.280  0.6832  1.1181 -0.1972
  121OSM    C1F12808   1.868   3.265   6.705  0.1059 -0.4225 -0.0072
  121OSM     OF12809   1.855   3.364   6.637  0.3191 -0.0823  0.5044
  121OSM    C2F12810   1.966   3.261   6.817  0.7458  0.6756  0.2876
  121OSM    H2F12811   2.021   3.167   6.834  1.4413  0.8028 -1.0828
  121OSM    H2G12812   1.899   3.264   6.905 -0.4022  2.5336 -0.5822
  121OSM    C3F12813   2.058   3.382   6.814  0.9127 -0.2657 -0.2802
  121OSM    H3F12814   1.994   3.473   6.810  2.6221  1.0041 -0.3060
  121OSM    H3G12815   2.120   3.389   6.722 -0.9125  0.1232 -1.5202
  121OSM    C4F12816   2.150   3.381   6.934 -0.2019 -0.4359  0.0192
  121OSM    H4F12817   2.111   3.359   7.036 -0.8330  0.0766 -0.1049
  121OSM    H4G12818   2.185   3.486   6.929 -0.8570 -0.2703 -1.5949
  121OSM    C5F12819   2.277   3.299   6.905 -1.3137  0.7268 -0.7233
  121OSM    H5F12820   2.306   3.323   6.801 -0.7517  0.2185 -0.6881
  121OSM    H5G12821   2.268   3.188   6.910 -1.8610  0.7009 -1.9239
  121OSM    C6F12822   2.397   3.335   6.999 -0.0161  0.6237 -0.2721
  121OSM    H6F12823   2.390   3.443   7.023 -1.0791  0.2541  1.1771
  121OSM    H6G12824   2.494   3.312   6.949  0.0353 -0.5429  0.3215
  121OSM    C7F12825   2.396   3.255   7.134  0.5892 -0.4946  0.5089
  121OSM    H7F12826   2.401   3.150   7.099  0.1134  0.3148 -2.2633
  121OSM    H7G12827   2.299   3.263   7.188 -1.2778 -1.9049 -2.3831
  121OSM    C8F12828   2.512   3.304   7.223 -0.1637  0.7736 -0.3380
  121OSM    H8F12829   2.488   3.410   7.247 -0.2476  1.0324 -1.5014
  121OSM    H8G12830   2.598   3.300   7.153 -0.4754 -1.0159 -0.6766
  121OSM    C9F12831   2.527   3.203   7.334 -1.2488 -0.2016 -0.0935
  121OSM    H9F12832   2.554   3.099   7.311  0.2146 -0.4423  2.3969
  121OSM   C10F12833   2.519   3.234   7.465  1.0770 -0.1877 -0.4488
  121OSM   H10F12834   2.558   3.167   7.543 -0.7854  1.0196  1.6478
  121OSM   C11F12835   2.492   3.368   7.523  0.0742  0.6414  0.4628
  121OSM   H11F12836   2.421   3.428   7.462 -0.6669 -0.7631 -0.1014
  121OSM   H11G12837   2.587   3.419   7.550  0.2035  0.3936  0.4804
  121OSM   C12F12838   2.425   3.338   7.657 -0.2632  0.1708  0.1278
  121OSM   H12F12839   2.488   3.276   7.724  3.2512  2.5484 -0.6964
  121OSM   H12G12840   2.325   3.291   7.644 -0.8032  1.7709 -2.1684
  121OSM   C13F12841   2.405   3.468   7.738 -0.7883  0.0785  0.1999
  121OSM   H13F12842   2.297   3.475   7.764 -1.3974 -1.5147 -1.6547
  121OSM   H13G12843   2.425   3.559   7.677  0.4611 -1.9451 -2.6446
  121OSM   C14F12844   2.491   3.477   7.862 -0.2064  0.4523 -0.4035
  121OSM   H14F12845   2.597   3.460   7.835 -0.3989 -1.4961 -0.1396
  121OSM   H14G12846   2.461   3.385   7.917  0.8908 -0.4435 -1.2512
  121OSM   C15F12847   2.488   3.602   7.954  0.1673  0.3168  0.1103
  121OSM   H15F12848   2.383   3.618   7.986 -1.0763 -3.6297 -1.5124
  121OSM   H15G12849   2.517   3.689   7.891  2.6226  0.6825  1.5968
  121OSM   C16F12850   2.578   3.583   8.072  0.0528 -0.1306  0.3341
  121OSM   H16F12851   2.680   3.564   8.034  0.3275  0.5559  0.7169
  121OSM   H16G12852   2.549   3.495   8.133 -2.2391  0.1665 -0.2395
  121OSM   C17F12853   2.601   3.714   8.158  0.1157  0.6223 -0.0359
  121OSM   H17F12854   2.629   3.805   8.101 -1.9116  2.2494  1.3866
  121OSM   H17G12855   2.690   3.694   8.220 -0.6275 -0.8618  0.6042
  121OSM   C18F12856   2.486   3.746   8.250  0.5539  0.4152  0.6534
  121OSM   H18F12857   2.442   3.658   8.302 -0.5581  0.4138 -0.2646
  121OSM   H18G12858   2.406   3.797   8.193 -0.9504 -1.4907  0.9315
  121OSM   H18H12859   2.518   3.827   8.318 -1.7712  0.7561  1.4123
  122OSM      N12860   0.688   5.186   5.563 -0.1592 -0.4288  0.0424
  122OSM    C1512861   0.544   5.170   5.548 -0.1562 -0.1163  0.5133
  122OSM   H15A12862   0.494   5.242   5.486 -1.5156 -1.2997  0.1851
  122OSM   H15B12863   0.498   5.167   5.646 -1.1133 -1.7519  0.0566
  122OSM   H15C12864   0.524   5.070   5.513 -0.0431 -0.2181  0.7332
  122OSM    C1412865   0.747   5.169   5.425  0.5302 -0.5058  0.5382
  122OSM   H14A12866   0.707   5.246   5.362  0.2377 -1.7239 -0.8094
  122OSM   H14B12867   0.723   5.068   5.395 -0.9538 -0.3027  0.9424
  122OSM   H14C12868   0.854   5.179   5.437  0.5199  0.4577 -0.1099
  122OSM    C1312869   0.718   5.321   5.616 -0.8970  0.0407 -0.0399
  122OSM   H13A12870   0.677   5.398   5.553 -0.2532  0.5273  0.1202
  122OSM   H13B12871   0.821   5.336   5.646 -0.9582 -0.4800  0.4480
  122OSM   H13C12872   0.675   5.337   5.714 -1.4818  0.4051 -0.3496
  122OSM    C1212873   0.743   5.081   5.660 -0.8619 -0.7878  0.1561
  122OSM   H12A12874   0.844   5.091   5.699 -0.0912 -0.3738 -1.8379
  122OSM   H12B12875   0.759   4.987   5.610  3.2208 -0.6760  0.8838
  122OSM    C1112876   0.666   5.062   5.789  0.2615 -0.6793  0.0157
  122OSM   H11A12877   0.720   4.994   5.859  0.0447  0.8452  1.7558
  122OSM   H11B12878   0.573   5.006   5.763 -0.9446  0.3066  1.9285
  122OSM      P12879   0.516   5.204   5.962 -0.6477 -0.0691  0.3270
  122OSM    O1312880   0.524   5.334   6.027 -0.1088 -0.6714  0.5920
  122OSM    O1412881   0.397   5.188   5.873 -0.6136  0.4767 -0.1158
  122OSM    O1112882   0.531   5.096   6.065  0.3863 -0.0344  0.4061
  122OSM    O1212883   0.644   5.183   5.864  0.1705  0.2189 -0.3946
  122OSM    C1S12884   0.637   5.087   6.159 -0.0056 -0.0383  0.2640
  122OSM    H1S12885   0.638   5.178   6.223 -1.8595  0.9397 -1.0026
  122OSM    H1T12886   0.732   5.084   6.102  0.1440  1.1523  0.4188
  122OSM     NF12887   0.669   5.008   6.396  0.1271  0.0956 -0.2604
  122OSM    HNF12888   0.756   4.973   6.430 -0.2983  0.7936  1.6824
  122OSM    C2S12889   0.610   4.973   6.266 -0.8290 -0.2650  0.0753
  122OSM    H2S12890   0.503   4.967   6.296 -0.7645 -0.8088  0.2075
  122OSM    C3S12891   0.654   4.836   6.215  0.2273  0.3697  0.8539
  122OSM    H3S12892   0.761   4.832   6.185 -0.4670 -0.8271 -1.7618
  122OSM     O312893   0.585   4.801   6.093 -0.3751  0.4345 -0.1581
  122OSM    HO312894   0.516   4.867   6.084 -0.5424  0.3444  0.4655
  122OSM    C4S12895   0.623   4.724   6.319  0.2045 -0.0646  0.5567
  122OSM    H4S12896   0.521   4.684   6.322 -0.5167  1.6538  0.2389
  122OSM    C5S12897   0.721   4.686   6.406  1.1093 -0.1355 -0.3903
  122OSM    H5S12898   0.823   4.726   6.402  1.7382 -1.6091  0.0488
  122OSM    C6S12899   0.687   4.588   6.515  0.2334  0.5818 -0.5384
  122OSM    H6S12900   0.771   4.576   6.586  0.0273  2.0698 -0.0090
  122OSM    H6T12901   0.668   4.484   6.481 -0.1861  1.3194 -2.7227
  122OSM    C7S12902   0.573   4.638   6.608  0.5193  0.0162  0.3829
  122OSM    H7S12903   0.476   4.657   6.556 -0.0492 -0.1696  1.3562
  122OSM    H7T12904   0.588   4.746   6.632 -0.2186  1.1617 -3.5299
  122OSM    C8S12905   0.542   4.557   6.736  0.2179 -0.1406  0.1793
  122OSM    H8S12906   0.498   4.461   6.703 -1.4900  1.1870 -1.6851
  122OSM    H8T12907   0.459   4.605   6.792  1.6812  0.1762  2.1974
  122OSM    C9S12908   0.654   4.555   6.843 -0.5573  0.2917 -0.8731
  122OSM    H9S12909   0.663   4.658   6.881 -2.0766  0.7905 -1.7789
  122OSM    H9T12910   0.744   4.511   6.796 -1.7054 -1.3919 -1.6377
  122OSM   C10S12911   0.612   4.465   6.964 -0.2906 -0.0790  0.9472
  122OSM   H10S12912   0.617   4.358   6.936 -0.4660 -0.4196  2.1529
  122OSM   H10T12913   0.506   4.497   6.971 -0.1853  0.4971  0.1126
  122OSM   C11S12914   0.702   4.493   7.089  0.5373 -0.0172 -0.5403
  122OSM   H11S12915   0.716   4.603   7.092 -1.7648  0.3145  0.2648
  122OSM   H11T12916   0.803   4.452   7.066  0.2482 -0.3139 -1.3300
  122OSM   C12S12917   0.632   4.427   7.215 -0.8498  0.5016 -0.4451
  122OSM   H12S12918   0.638   4.317   7.202 -1.4971 -0.1393  3.4945
  122OSM   H12T12919   0.526   4.452   7.237 -1.4009 -1.4766 -0.7316
  122OSM   C13S12920   0.702   4.463   7.350  0.4001  0.1038 -0.0645
  122OSM   H13S12921   0.701   4.573   7.366  0.7868 -0.0963  1.5110
  122OSM   H13T12922   0.811   4.439   7.346  0.4984  0.0150  2.0798
  122OSM   C14S12923   0.656   4.377   7.470 -0.3354  0.6691  0.1138
  122OSM   H14S12924   0.648   4.270   7.442 -0.2143  0.6500  0.1537
  122OSM   H14T12925   0.559   4.416   7.508 -2.2247 -0.9232 -2.7266
  122OSM   C15S12926   0.748   4.401   7.593 -0.2784  0.3440  0.0055
  122OSM   H15S12927   0.770   4.510   7.584 -0.9745  0.5047  0.1587
  122OSM   H15T12928   0.852   4.363   7.589 -0.3511  0.0990  0.4762
  122OSM   C16S12929   0.687   4.366   7.728 -0.2260  0.5614 -0.4047
  122OSM   H16S12930   0.668   4.256   7.732 -0.2112  0.6059  2.2422
  122OSM   H16T12931   0.586   4.412   7.729 -1.3586 -1.6887 -1.8455
  122OSM   C17S12932   0.770   4.397   7.853 -0.5030 -0.3014  0.3800
  122OSM   H17S12933   0.797   4.504   7.856 -2.6632  0.3456 -1.0390
  122OSM   H17T12934   0.863   4.335   7.848  0.9051  1.8043 -1.1779
  122OSM   C18S12935   0.693   4.364   7.979 -0.2742  0.2281  0.6108
  122OSM   H18S12936   0.673   4.255   7.991  0.6773  0.0319  0.5248
  122OSM   H18T12937   0.593   4.412   7.985  0.5127  1.9474  0.4426
  122OSM   H18U12938   0.753   4.387   8.070 -1.0319  1.0972  0.9094
  122OSM    C1F12939   0.620   5.110   6.470 -0.1781  0.5786 -0.7449
  122OSM     OF12940   0.517   5.170   6.440 -0.2725 -0.0778 -0.0769
  122OSM    C2F12941   0.701   5.147   6.590 -0.4866  0.1317  0.1379
  122OSM    H2F12942   0.808   5.159   6.565 -1.0262  1.7063 -1.6141
  122OSM    H2G12943   0.693   5.061   6.660 -0.9436 -1.3664 -1.6625
  122OSM    C3F12944   0.652   5.274   6.654 -0.7383 -0.2081 -0.0808
  122OSM    H3F12945   0.552   5.269   6.701 -1.5007  1.3983 -1.4368
  122OSM    H3G12946   0.646   5.354   6.578  0.6901 -1.1733 -1.2747
  122OSM    C4F12947   0.745   5.317   6.767  0.1897 -0.1171  0.1270
  122OSM    H4F12948   0.738   5.426   6.787 -0.8012 -0.0780 -0.3400
  122OSM    H4G12949   0.849   5.312   6.730  0.8029 -0.9998  1.8468
  122OSM    C5F12950   0.708   5.251   6.904 -0.6809  0.3506  0.4193
  122OSM    H5F12951   0.707   5.140   6.898 -1.2164  0.4370 -2.0342
  122OSM    H5G12952   0.609   5.279   6.946 -1.4092 -2.4989  0.8228
  122OSM    C6F12953   0.812   5.294   7.009 -0.5231 -0.0510 -0.2554
  122OSM    H6F12954   0.908   5.250   6.976 -0.3187  0.7043 -0.6854
  122OSM    H6G12955   0.780   5.233   7.097 -0.6741  0.8537  0.3282
  122OSM    C7F12956   0.826   5.438   7.040  0.1000 -0.2262  0.1103
  122OSM    H7F12957   0.729   5.491   7.043  0.5514  0.5842  0.9176
  122OSM    H7G12958   0.867   5.491   6.952 -2.6949  1.1582 -0.4566
  122OSM    C8F12959   0.902   5.451   7.173 -0.3286  0.1495  0.3896
  122OSM    H8F12960   1.002   5.402   7.168 -0.2801  0.1919  0.9445
  122OSM    H8G12961   0.848   5.384   7.242  2.6231 -1.6180  1.1713
  122OSM    C9F12962   0.918   5.595   7.224 -0.0940 -0.1992  0.1216
  122OSM    H9F12963   0.921   5.671   7.145  0.8227 -0.9173 -0.5536
  122OSM   C10F12964   0.928   5.638   7.348  0.4735 -0.7130  0.0997
  122OSM   H10F12965   0.964   5.740   7.367  0.2907 -0.4793 -0.7652
  122OSM   C11F12966   0.926   5.546   7.470 -0.0709  0.4683 -0.1810
  122OSM   H11F12967   0.972   5.448   7.444  0.1507  0.6500 -0.4837
  122OSM   H11G12968   0.826   5.517   7.509  0.7871 -0.3789  1.4958
  122OSM   C12F12969   1.001   5.614   7.584 -0.2391 -0.2394 -0.3885
  122OSM   H12F12970   0.965   5.719   7.590 -1.8522 -0.6932 -1.4649
  122OSM   H12G12971   1.110   5.615   7.567  0.0169 -0.3473  1.0838
  122OSM   C13F12972   0.978   5.555   7.720  0.2482 -0.0776  0.4202
  122OSM   H13F12973   1.006   5.448   7.727 -1.2581 -0.5287 -0.0942
  122OSM   H13G12974   0.867   5.561   7.729  0.0371  0.1016 -1.9040
  122OSM   C14F12975   1.058   5.636   7.831 -0.1180  0.8660  0.3634
  122OSM   H14F12976   1.052   5.747   7.824 -0.7214  0.8613  0.7612
  122OSM   H14G12977   1.167   5.613   7.828  0.0865  1.8728 -0.6666
  122OSM   C15F12978   1.015   5.601   7.975  0.1372  0.3595 -0.4399
  122OSM   H15F12979   1.063   5.503   7.996  2.9456  1.9556  1.2105
  122OSM   H15G12980   0.906   5.590   7.992  0.1424  0.1613 -0.5272
  122OSM   C16F12981   1.080   5.695   8.079 -0.3461 -0.3048  0.3445
  122OSM   H16F12982   1.050   5.801   8.073 -1.1044 -0.5907 -1.4773
  122OSM   H16G12983   1.191   5.687   8.082 -0.1085  2.4039  1.2627
  122OSM   C17F12984   1.023   5.661   8.215  0.0263 -0.4146  0.0307
  122OSM   H17F12985   1.017   5.551   8.229  1.2693 -0.4295  0.6044
  122OSM   H17G12986   0.922   5.709   8.219  0.3281  0.2708 -0.3344
  122OSM   C18F12987   1.114   5.718   8.322  0.0261  0.7567 -0.2185
  122OSM   H18F12988   1.215   5.674   8.334  1.4239  3.4123 -1.3333
  122OSM   H18G12989   1.067   5.717   8.423 -0.2224  0.1142 -0.3336
  122OSM   H18H12990   1.132   5.824   8.294 -1.7937  0.9516 -0.8024
  123OSM      N12991   5.672   1.115   6.205 -0.3179 -0.0033 -0.4363
  123OSM    C1512992   5.749   1.026   6.116  0.4768 -0.6847 -0.0451
  123OSM   H15A12993   5.706   1.014   6.017  2.3302  0.2294 -1.0273
  123OSM   H15B12994   5.767   0.927   6.154  0.5162 -0.6775 -0.0447
  123OSM   H15C12995   5.846   1.071   6.104  0.3888 -0.2970  0.6581
  123OSM    C1412996   5.738   1.107   6.341 -0.1050  0.2969  0.1830
  123OSM   H14A12997   5.686   1.172   6.410 -0.5431  0.7301 -0.5400
  123OSM   H14B12998   5.838   1.147   6.336 -0.2738  0.6272 -0.6089
  123OSM   H14C12999   5.734   1.006   6.381  2.4996  0.8899  2.2225
  123OSM    C1313000   5.677   1.262   6.158  0.1008  0.2288  0.3375
  123OSM   H13A13001   5.634   1.295   6.064  1.5761  0.2097 -0.3715
  123OSM   H13B13002   5.780   1.291   6.148 -0.2876  1.4450 -0.4043
  123OSM   H13C13003   5.621   1.324   6.226 -1.4871  0.9815 -1.5643
  123OSM    C1213004   5.527   1.069   6.215  0.2989 -0.1168  0.0662
  123OSM   H12A13005   5.534   0.969   6.254 -2.2486 -0.3179  0.2027
  123OSM   H12B13006   5.487   1.068   6.115 -0.5486  2.6680  0.2796
  123OSM    C1113007   5.438   1.154   6.306  0.6451  0.1091 -0.3290
  123OSM   H11A13008   5.484   1.182   6.403 -0.9689 -2.2040  1.2191
  123OSM   H11B13009   5.357   1.085   6.339 -0.7306  0.2473 -3.1574
  123OSM      P13010   5.268   1.342   6.311 -0.2524  0.2410 -0.4273
  123OSM    O1313011   5.237   1.460   6.234 -0.3773 -0.5309 -0.2437
  123OSM    O1413012   5.150   1.253   6.334 -0.0228  0.0727  0.0382
  123OSM    O1113013   5.323   1.389   6.456  0.0271 -0.0307  0.3060
  123OSM    O1213014   5.382   1.265   6.241  0.2937  0.0527 -0.0985
  123OSM    C1S13015   5.271   1.323   6.574  0.1610  0.1366  0.5713
  123OSM    H1S13016   5.298   1.215   6.575 -0.3845 -0.0161  2.1643
  123OSM    H1T13017   5.162   1.338   6.583  0.2428  0.3432  1.3841
  123OSM     NF13018   5.267   1.309   6.818 -0.5504  0.8191  0.3023
  123OSM    HNF13019   5.194   1.345   6.875 -1.1188  2.0476 -1.1163
  123OSM    C2S13020   5.315   1.396   6.706  0.6660  0.3699 -0.2312
  123OSM    H2S13021   5.426   1.395   6.703  0.6421 -0.8269 -1.2346
  123OSM    C3S13022   5.263   1.544   6.713  0.3033  0.4037 -0.5363
  123OSM    H3S13023   5.152   1.552   6.709  0.1321 -0.7414  1.0039
  123OSM     O313024   5.313   1.613   6.595 -0.0124 -0.1248 -0.1697
  123OSM    HO313025   5.327   1.537   6.539  4.6045  0.4899 -0.2024
  123OSM    C4S13026   5.304   1.604   6.846 -0.2183 -0.1531 -0.1852
  123OSM    H4S13027   5.235   1.601   6.932 -0.6105 -2.4527 -0.5240
  123OSM    C5S13028   5.410   1.688   6.870  0.4460 -0.6587  0.4310
  123OSM    H5S13029   5.467   1.716   6.780  0.1797  3.0331  1.2601
  123OSM    C6S13030   5.455   1.756   6.995 -0.0401  0.2679 -0.0280
  123OSM    H6S13031   5.501   1.856   6.981 -0.0732  0.3956  0.7091
  123OSM    H6T13032   5.532   1.687   7.035  0.5832 -0.8308 -2.9021
  123OSM    C7S13033   5.360   1.763   7.117  0.1542  0.1144  0.6824
  123OSM    H7S13034   5.300   1.670   7.127 -1.1191  1.0819  2.8657
  123OSM    H7T13035   5.283   1.839   7.089 -0.0604 -0.2385  0.2958
  123OSM    C8S13036   5.426   1.785   7.248 -0.0953 -0.7637 -0.2033
  123OSM    H8S13037   5.474   1.885   7.242  0.7397 -1.1408  0.0393
  123OSM    H8T13038   5.502   1.706   7.268  0.1002 -0.3825  0.5704
  123OSM    C9S13039   5.323   1.788   7.363 -0.2448  0.5476  0.2160
  123OSM    H9S13040   5.271   1.690   7.366 -0.6367  0.6997 -1.0659
  123OSM    H9T13041   5.236   1.857   7.357 -0.8231 -0.2463 -0.7150
  123OSM   C10S13042   5.392   1.806   7.503  0.1058 -0.1390  0.0420
  123OSM   H10S13043   5.390   1.912   7.534 -1.2906 -0.6390  1.8381
  123OSM   H10T13044   5.500   1.781   7.500  1.4507  4.6445  0.3230
  123OSM   C11S13045   5.318   1.717   7.608 -0.2108 -0.5524  0.1232
  123OSM   H11S13046   5.354   1.612   7.600  2.2869  0.1343  1.3297
  123OSM   H11T13047   5.208   1.722   7.592 -0.1175 -1.1521 -0.8440
  123OSM   C12S13048   5.334   1.780   7.748  0.7750  0.6291  0.7608
  123OSM   H12S13049   5.279   1.877   7.743  1.6214  1.0761 -0.0570
  123OSM   H12T13050   5.443   1.792   7.764  1.2240 -2.1280  0.2607
  123OSM   C13S13051   5.275   1.696   7.863 -0.7386 -0.1003 -0.3205
  123OSM   H13S13052   5.297   1.744   7.960 -1.6816 -0.0876 -0.0978
  123OSM   H13T13053   5.335   1.602   7.867 -0.2103  0.2110 -0.7760
  123OSM   C14S13054   5.123   1.684   7.834 -0.7231 -0.3846 -0.3373
  123OSM   H14S13055   5.104   1.636   7.735 -0.5276 -0.3453 -0.3939
  123OSM   H14T13056   5.087   1.788   7.818 -0.3601 -0.3030 -0.6323
  123OSM   C15S13057   5.048   1.609   7.945  0.4215  0.2734  0.0862
  123OSM   H15S13058   5.065   1.661   8.042 -0.4935 -0.4852  0.6610
  123OSM   H15T13059   5.075   1.502   7.943 -3.4861 -0.8689  0.5087
  123OSM   C16S13060   4.891   1.633   7.924 -0.1214  0.0615 -0.0304
  123OSM   H16S13061   4.870   1.741   7.904 -1.0649 -0.2146 -0.5802
  123OSM   H16T13062   4.834   1.597   8.012  1.6176  0.0912  1.1529
  123OSM   C17S13063   4.840   1.562   7.793 -0.2096  0.1374 -0.3724
  123OSM   H17S13064   4.862   1.454   7.805  1.3556  0.5494  0.7025
  123OSM   H17T13065   4.904   1.594   7.707  0.4998  0.5326  0.2939
  123OSM   C18S13066   4.695   1.577   7.755 -0.0072 -0.3004 -0.3859
  123OSM   H18S13067   4.658   1.682   7.766  0.0844 -0.3482  0.4019
  123OSM   H18T13068   4.629   1.525   7.826 -0.2866 -1.8096 -1.6923
  123OSM   H18U13069   4.674   1.548   7.649 -0.3935 -2.5924  0.2772
  123OSM    C1F13070   5.316   1.187   6.848 -0.2913 -0.1718  0.2897
  123OSM     OF13071   5.399   1.133   6.774 -0.1482  0.3759 -0.7583
  123OSM    C2F13072   5.263   1.123   6.971 -0.1124  0.5557 -0.0126
  123OSM    H2F13073   5.173   1.064   6.944 -0.8561  2.1465 -1.1534
  123OSM    H2G13074   5.230   1.196   7.047 -4.2202 -0.9200 -0.1358
  123OSM    C3F13075   5.364   1.041   7.045  0.1470 -0.2269  0.2863
  123OSM    H3F13076   5.444   1.114   7.067 -0.0831  0.0785  0.1142
  123OSM    H3G13077   5.406   0.973   6.967  0.2106  2.7568 -2.4681
  123OSM    C4F13078   5.311   0.990   7.175  0.6771  0.7815  0.3076
  123OSM    H4F13079   5.268   1.078   7.227 -2.2653 -1.8803  2.8063
  123OSM    H4G13080   5.387   0.950   7.246 -0.5513  0.3215  1.4179
  123OSM    C5F13081   5.195   0.887   7.158 -0.6245  0.3523  0.3500
  123OSM    H5F13082   5.230   0.811   7.085 -2.7965  1.4126 -1.9449
  123OSM    H5G13083   5.102   0.929   7.113 -1.2370 -1.0456  0.2531
  123OSM    C6F13084   5.155   0.807   7.285  0.1909 -0.4129  1.2749
  123OSM    H6F13085   5.085   0.861   7.352  0.9544  0.4037  1.4329
  123OSM    H6G13086   5.243   0.783   7.348  0.4080  1.7558  1.8724
  123OSM    C7F13087   5.082   0.680   7.251  0.2154  0.3416  0.8486
  123OSM    H7F13088   5.058   0.628   7.346  1.6063 -0.0130  1.0325
  123OSM    H7G13089   5.149   0.604   7.206 -1.5858 -0.9283  0.1834
  123OSM    C8F13090   4.946   0.681   7.172  0.5715  0.1449  0.4257
  123OSM    H8F13091   4.969   0.745   7.084  2.1822 -1.6382 -0.5238
  123OSM    H8G13092   4.873   0.709   7.251  0.9589 -2.6012  1.8656
  123OSM    C9F13093   4.916   0.546   7.121 -0.5179 -0.3399  0.5505
  123OSM    H9F13094   5.006   0.497   7.080 -0.8892  0.4377 -1.3006
  123OSM   C10F13095   4.798   0.483   7.118  0.1028 -0.4901 -0.0148
  123OSM   H10F13096   4.780   0.386   7.071 -2.7419  0.6021 -1.4461
  123OSM   C11F13097   4.667   0.542   7.174 -0.2578  0.0863 -0.6120
  123OSM   H11F13098   4.582   0.545   7.102 -1.0034 -2.0402  0.1173
  123OSM   H11G13099   4.685   0.649   7.199  0.3148 -0.0014 -0.6312
  123OSM   C12F13100   4.621   0.466   7.301 -0.3109 -0.0600 -0.1506
  123OSM   H12F13101   4.645   0.358   7.286 -2.3502 -0.7593  1.2167
  123OSM   H12G13102   4.512   0.473   7.323 -0.3742 -0.1646 -0.4244
  123OSM   C13F13103   4.706   0.513   7.421 -0.0084  0.0612  0.4184
  123OSM   H13F13104   4.724   0.622   7.410  1.2459 -0.4217 -4.7419
  123OSM   H13G13105   4.804   0.461   7.425 -0.5986 -1.2110 -0.6586
  123OSM   C14F13106   4.622   0.495   7.545  0.1243 -0.1875  0.5931
  123OSM   H14F13107   4.529   0.556   7.548 -0.5547 -1.2045  1.3633
  123OSM   H14G13108   4.685   0.532   7.629  1.4772  0.3576 -0.6322
  123OSM   C15F13109   4.582   0.347   7.578 -0.5621 -0.2099 -0.2052
  123OSM   H15F13110   4.674   0.287   7.595  0.3808  1.3702  0.5225
  123OSM   H15G13111   4.545   0.289   7.491  0.7910  1.3531 -1.9302
  123OSM   C16F13112   4.489   0.340   7.702 -0.3854 -1.0850 -0.0214
  123OSM   H16F13113   4.397   0.402   7.700 -0.5434 -1.3325 -0.7144
  123OSM   H16G13114   4.545   0.362   7.795  0.8728  0.8573 -1.1855
  123OSM   C17F13115   4.429   0.198   7.731  0.0154  0.1614  0.5106
  123OSM   H17F13116   4.381   0.168   7.635 -1.7617 -4.4402  2.5340
  123OSM   H17G13117   4.358   0.200   7.816 -2.1527  3.2313 -1.1631
  123OSM   C18F13118   4.537   0.095   7.771  0.2792 -1.0855 -0.1397
  123OSM   H18F13119   4.501  -0.010   7.763  1.9525 -1.6374 -0.8359
  123OSM   H18G13120   4.565   0.109   7.878  2.0121  0.6035 -0.7620
  123OSM   H18H13121   4.619   0.096   7.696 -0.8461 -0.3386 -1.4042
  124OSM      N13122   6.712   4.431   6.099  0.3533  0.4702 -0.3735
  124OSM    C1513123   6.573   4.469   6.140 -0.5691  0.1930  0.3345
  124OSM   H15A13124   6.533   4.397   6.210 -3.3318  0.9270 -0.3612
  124OSM   H15B13125   6.510   4.473   6.053 -0.3523  2.5687  0.2281
  124OSM   H15C13126   6.561   4.564   6.189 -0.4189  0.5308 -0.2807
  124OSM    C1413127   6.715   4.324   5.999  0.1553  0.0085 -0.1497
  124OSM   H14A13128   6.663   4.240   6.041 -0.4603  0.7015  0.4869
  124OSM   H14B13129   6.817   4.298   5.974 -0.1596 -1.9178  0.4135
  124OSM   H14C13130   6.664   4.360   5.911  0.9326  3.4770  0.6500
  124OSM    C1313131   6.778   4.553   6.041  0.1030 -0.5426  0.3020
  124OSM   H13A13132   6.721   4.602   5.964 -1.4457  0.4551  2.0189
  124OSM   H13B13133   6.879   4.539   6.004  0.0819 -1.7061  0.6196
  124OSM   H13C13134   6.797   4.624   6.120  0.0134 -1.8814  1.5901
  124OSM    C1213135   6.786   4.391   6.226  0.5961  0.6242 -0.0436
  124OSM   H12A13136   6.791   4.481   6.285 -0.1898 -0.8600  2.4350
  124OSM   H12B13137   6.887   4.370   6.195  0.1630 -1.0355 -0.4404
  124OSM    C1113138   6.743   4.266   6.306 -0.3804  0.1630  0.3282
  124OSM   H11A13139   6.803   4.268   6.400  1.8934  1.8916 -1.0465
  124OSM   H11B13140   6.787   4.179   6.253 -1.6972  0.3065 -1.0513
  124OSM      P13141   6.513   4.139   6.280 -0.0345  0.0529  0.0559
  124OSM    O1313142   6.379   4.160   6.345 -0.2562  0.2955  0.3109
  124OSM    O1413143   6.519   4.122   6.131  0.0847 -0.0143 -0.7030
  124OSM    O1113144   6.576   4.012   6.353 -0.2378 -0.5814  0.3771
  124OSM    O1213145   6.606   4.257   6.328 -0.1356 -0.1831  0.2235
  124OSM    C1S13146   6.628   4.031   6.487  0.2394 -0.5353  0.5934
  124OSM    H1S13147   6.583   4.116   6.543 -0.4587 -0.1643 -0.4830
  124OSM    H1T13148   6.736   4.054   6.474 -0.3740  1.3504 -2.2205
  124OSM     NF13149   6.676   3.944   6.707 -0.4168 -0.5537  0.3813
  124OSM    HNF13150   6.761   3.901   6.738  1.1711 -0.4043 -3.3066
  124OSM    C2S13151   6.625   3.904   6.573  0.1451 -0.2684  0.2741
  124OSM    H2S13152   6.520   3.866   6.576 -0.4143  0.8723 -2.1611
  124OSM    C3S13153   6.709   3.793   6.509  0.9068 -0.3083 -0.0695
  124OSM    H3S13154   6.809   3.830   6.479  0.1680  2.0870  0.2584
  124OSM     O313155   6.660   3.744   6.382  0.0741 -0.5547 -0.2005
  124OSM    HO313156   6.580   3.792   6.358  0.7707  1.2860  0.9182
  124OSM    C4S13157   6.716   3.671   6.600 -0.2436  0.0222  0.0618
  124OSM    H4S13158   6.619   3.642   6.645 -0.2219 -0.2496 -0.0669
  124OSM    C5S13159   6.829   3.602   6.635 -0.0754  0.1636 -0.2747
  124OSM    H5S13160   6.931   3.630   6.604 -0.7134  1.8658 -0.8959
  124OSM    C6S13161   6.837   3.478   6.721  0.0522  0.1700 -0.4147
  124OSM    H6S13162   6.939   3.460   6.762 -0.3319 -0.8520  0.1487
  124OSM    H6T13163   6.807   3.387   6.664 -0.6555  0.4823 -0.5511
  124OSM    C7S13164   6.755   3.493   6.850  0.3061  0.3175 -0.4011
  124OSM    H7S13165   6.646   3.509   6.832 -0.2999 -2.9912 -0.3692
  124OSM    H7T13166   6.788   3.580   6.911 -1.3904  0.7642 -0.0459
  124OSM    C8S13167   6.784   3.364   6.934  0.1721  0.2444 -0.5469
  124OSM    H8S13168   6.888   3.327   6.930  1.0327  2.1632  1.8404
  124OSM    H8T13169   6.722   3.285   6.886  2.4561 -1.4073 -0.9546
  124OSM    C9S13170   6.746   3.378   7.085  0.0693 -0.0203 -0.6062
  124OSM    H9S13171   6.656   3.441   7.102 -2.3782 -3.0272 -1.4169
  124OSM    H9T13172   6.840   3.418   7.129  2.1749  0.5640 -5.1060
  124OSM   C10S13173   6.726   3.240   7.137  0.1350 -0.5498 -0.2465
  124OSM   H10S13174   6.804   3.165   7.112  2.5322  1.4135  0.8533
  124OSM   H10T13175   6.627   3.201   7.104 -0.5169  0.1827  0.7724
  124OSM   C11S13176   6.725   3.239   7.290 -0.2171  0.4594  0.1065
  124OSM   H11S13177   6.670   3.332   7.315 -2.6522 -1.0121  0.5750
  124OSM   H11T13178   6.829   3.241   7.328  1.1939 -1.5445 -3.1833
  124OSM   C12S13179   6.660   3.108   7.341  0.4323  0.7738  0.2815
  124OSM   H12S13180   6.714   3.024   7.294  1.2127  0.7597  1.1703
  124OSM   H12T13181   6.558   3.104   7.298  0.4520  0.3813  0.2740
  124OSM   C13S13182   6.651   3.089   7.491  0.5985 -0.5510  0.3290
  124OSM   H13S13183   6.546   3.114   7.518  0.6696  1.2295 -0.8746
  124OSM   H13T13184   6.715   3.167   7.537 -0.7538  1.7345 -1.4748
  124OSM   C14S13185   6.702   2.954   7.529 -0.2286  0.3133  0.5459
  124OSM   H14S13186   6.811   2.963   7.512  0.0432 -1.6809  0.9056
  124OSM   H14T13187   6.657   2.874   7.466  0.3652 -1.3383  2.1287
  124OSM   C15S13188   6.682   2.932   7.673 -0.6406  0.4654  0.3981
  124OSM   H15S13189   6.702   2.823   7.679  1.9276  0.6297 -2.5426
  124OSM   H15T13190   6.579   2.935   7.715 -0.1616  0.2026  1.6363
  124OSM   C16S13191   6.786   3.015   7.759  0.8594  0.2903  0.6481
  124OSM   H16S13192   6.746   3.117   7.743 -1.7467 -0.6539  0.6438
  124OSM   H16T13193   6.893   3.000   7.735  0.7902 -0.3834  0.7325
  124OSM   C17S13194   6.765   2.985   7.908 -1.1211  0.6297  0.0037
  124OSM   H17S13195   6.783   2.877   7.927 -2.9614  0.3441  0.2931
  124OSM   H17T13196   6.657   2.983   7.933 -0.9459 -0.3324  0.7942
  124OSM   C18S13197   6.848   3.087   7.986 -0.5097 -0.1574  0.3316
  124OSM   H18S13198   6.837   3.075   8.096 -0.0283  3.6683  0.9252
  124OSM   H18T13199   6.822   3.190   7.952 -1.9054 -0.8558 -0.8428
  124OSM   H18U13200   6.955   3.064   7.967  0.3018  2.2138  1.6267
  124OSM    C1F13201   6.606   4.007   6.798  0.0634 -0.2013  0.5411
  124OSM     OF13202   6.496   4.057   6.774  0.4403 -0.5805 -0.0315
  124OSM    C2F13203   6.670   4.034   6.926  0.3850 -0.1229 -0.4952
  124OSM    H2F13204   6.680   4.143   6.948  0.0792  0.3872 -2.7077
  124OSM    H2G13205   6.772   3.991   6.941  1.6544  2.8459  0.1984
  124OSM    C3F13206   6.586   3.965   7.039  0.3857  0.1180  0.7253
  124OSM    H3F13207   6.564   3.862   7.005  1.4331  0.0259  0.2882
  124OSM    H3G13208   6.484   4.007   7.049 -0.0166 -0.5607 -0.3197
  124OSM    C4F13209   6.646   3.958   7.183  0.0678  0.2544  0.0133
  124OSM    H4F13210   6.728   3.883   7.178  0.8105  0.9310  1.4952
  124OSM    H4G13211   6.564   3.910   7.242  0.1841 -0.9094 -0.7394
  124OSM    C5F13212   6.703   4.080   7.241  0.1660 -0.7541 -0.0815
  124OSM    H5F13213   6.624   4.156   7.258  1.9573  1.1407  0.1373
  124OSM    H5G13214   6.771   4.133   7.171 -1.5394 -0.4042 -1.5572
  124OSM    C6F13215   6.782   4.059   7.371 -0.1224 -0.2010 -0.5028
  124OSM    H6F13216   6.813   4.159   7.410  1.0107 -1.4951  2.2230
  124OSM    H6G13217   6.879   4.009   7.351  1.4568  3.1543 -2.0380
  124OSM    C7F13218   6.707   3.982   7.478 -0.2707 -0.2371  0.1600
  124OSM    H7F13219   6.780   3.954   7.557  0.2285 -0.5776 -0.4139
  124OSM    H7G13220   6.662   3.890   7.437 -2.9173  1.6326 -1.4915
  124OSM    C8F13221   6.590   4.057   7.538 -0.4026 -0.3076 -0.7451
  124OSM    H8F13222   6.520   3.984   7.584  1.0518 -0.7195  0.9129
  124OSM    H8G13223   6.521   4.108   7.468 -0.5459 -0.7113 -0.9004
  124OSM    C9F13224   6.653   4.153   7.642 -0.7563  0.2513  0.4042
  124OSM    H9F13225   6.713   4.236   7.603 -1.6603  1.0104  0.5909
  124OSM   C10F13226   6.624   4.158   7.770  0.2847 -0.5333 -0.4814
  124OSM   H10F13227   6.668   4.249   7.814 -1.5022  0.6372 -1.0462
  124OSM   C11F13228   6.538   4.081   7.865 -0.1863 -0.1891 -0.2316
  124OSM   H11F13229   6.581   3.982   7.890  2.6273  1.1497  0.7210
  124OSM   H11G13230   6.443   4.053   7.816  0.4613 -1.2936 -0.8715
  124OSM   C12F13231   6.507   4.144   8.008  0.2056  0.0755  0.4118
  124OSM   H12F13232   6.475   4.249   7.993  0.5195  0.5206  2.6285
  124OSM   H12G13233   6.602   4.138   8.066  1.6050  1.0619 -1.6629
  124OSM   C13F13234   6.403   4.069   8.084 -1.0269  0.0116 -0.7026
  124OSM   H13F13235   6.422   4.066   8.193 -1.5986  0.9443 -0.5634
  124OSM   H13G13236   6.410   3.963   8.052  4.0408 -0.3556  0.8057
  124OSM   C14F13237   6.255   4.114   8.067  0.4433 -1.1773  0.5634
  124OSM   H14F13238   6.188   4.038   8.113  1.8389 -3.5760 -1.1509
  124OSM   H14G13239   6.238   4.110   7.957 -2.3783 -2.1037  0.9628
  124OSM   C15F13240   6.230   4.266   8.092 -0.0089  0.0487 -0.0135
  124OSM   H15F13241   6.223   4.330   8.001 -1.8809 -0.5379 -0.3291
  124OSM   H15G13242   6.319   4.316   8.136  0.0693 -0.0187 -0.0939
  124OSM   C16F13243   6.103   4.290   8.174 -0.0050 -0.6488  0.1082
  124OSM   H16F13244   6.124   4.382   8.233 -0.1554 -0.7398  0.3035
  124OSM   H16G13245   6.095   4.210   8.250  0.6189 -2.8625 -2.0276
  124OSM   C17F13246   5.974   4.284   8.091 -0.4574  0.0925 -0.2063
  124OSM   H17F13247   5.968   4.187   8.038  1.5519 -0.8430  1.1637
  124OSM   H17G13248   5.979   4.362   8.011 -1.6082  1.2287  0.7889
  124OSM   C18F13249   5.855   4.324   8.177 -0.2687  0.7020  0.8058
  124OSM   H18F13250   5.874   4.296   8.283 -1.6273  0.8033  1.0962
  124OSM   H18G13251   5.760   4.272   8.151  0.4829  0.4691 -1.7113
  124OSM   H18H13252   5.839   4.434   8.178 -0.7727  0.6375  0.2194
  125OSM      N13253   2.416   2.841   6.158 -0.3414 -0.2646  0.3233
  125OSM    C1513254   2.458   2.982   6.184 -0.4387 -0.4031 -1.0808
  125OSM   H15A13255   2.398   3.026   6.262  1.8301 -0.3595  0.7607
  125OSM   H15B13256   2.456   3.045   6.097 -4.1265  1.3773  0.1132
  125OSM   H15C13257   2.555   2.980   6.232 -1.0787 -1.8839  0.2410
  125OSM    C1413258   2.290   2.839   6.089 -0.3687  0.2401  0.0860
  125OSM   H14A13259   2.256   2.738   6.070  0.4365  0.4287 -2.7741
  125OSM   H14B13260   2.289   2.881   5.990  2.3381  1.0103  0.3054
  125OSM   H14C13261   2.217   2.892   6.148  0.4583 -0.1307  1.4798
  125OSM    C1313262   2.510   2.781   6.064 -0.1099  0.5454  0.4841
  125OSM   H13A13263   2.496   2.676   6.044  0.9188  0.6340 -0.8769
  125OSM   H13B13264   2.607   2.768   6.109  0.4643 -1.8440 -1.2390
  125OSM   H13C13265   2.521   2.841   5.975  0.6011 -0.5121 -0.1721
  125OSM    C1213266   2.417   2.769   6.290  0.7819  0.8334  0.4329
  125OSM   H12A13267   2.369   2.674   6.275 -2.7982  2.6879 -1.1538
  125OSM   H12B13268   2.360   2.825   6.363  1.5292 -0.5985  2.1932
  125OSM    C1113269   2.553   2.730   6.355 -0.9055  1.0343 -0.7384
  125OSM   H11A13270   2.532   2.724   6.463  3.0786  2.7732  0.3258
  125OSM   H11B13271   2.629   2.812   6.348 -2.1120  2.3480  0.7638
  125OSM      P13272   2.763   2.578   6.275 -0.4219 -0.0965 -0.0883
  125OSM    O1313273   2.784   2.437   6.238  0.5121  0.3008  0.0172
  125OSM    O1413274   2.819   2.678   6.175 -0.2205 -0.3527 -0.5580
  125OSM    O1113275   2.832   2.610   6.413 -0.6093  0.1560  0.1300
  125OSM    O1213276   2.602   2.605   6.300 -0.8117  0.0574 -0.3074
  125OSM    C1S13277   2.906   2.499   6.472  0.8480 -0.3781 -0.1897
  125OSM    H1S13278   3.012   2.514   6.441  1.1825 -1.0221  0.5886
  125OSM    H1T13279   2.865   2.399   6.450  1.6205 -0.6449 -0.4575
  125OSM     NF13280   3.003   2.402   6.674 -0.7309 -0.6483  0.2784
  125OSM    HNF13281   2.967   2.327   6.728 -0.9824 -1.9667 -1.6105
  125OSM    C2S13282   2.907   2.500   6.624  0.4058 -0.4314  0.0839
  125OSM    H2S13283   2.942   2.604   6.642 -1.4444  0.2693 -0.1752
  125OSM    C3S13284   2.768   2.482   6.687  0.6880  0.2328 -0.3363
  125OSM    H3S13285   2.722   2.381   6.676 -2.2156  1.4412 -0.1821
  125OSM     O313286   2.653   2.552   6.635 -0.3675 -0.3344 -0.2021
  125OSM    HO313287   2.688   2.595   6.557 -1.0580  2.5634  0.9453
  125OSM    C4S13288   2.783   2.516   6.838 -0.5895  0.2255  0.6646
  125OSM    H4S13289   2.829   2.434   6.895 -0.4461  0.8565  1.4784
  125OSM    C5S13290   2.749   2.631   6.899  0.0554  0.0363  0.2445
  125OSM    H5S13291   2.702   2.709   6.838  2.6029  1.2187 -0.3341
  125OSM    C6S13292   2.766   2.671   7.047 -0.4701  0.1954  0.4425
  125OSM    H6S13293   2.832   2.604   7.106  2.6484  0.6037 -2.3459
  125OSM    H6T13294   2.672   2.659   7.106 -0.9198  0.1462 -0.2792
  125OSM    C7S13295   2.816   2.815   7.074 -0.2968  0.1263 -0.1064
  125OSM    H7S13296   2.730   2.883   7.054 -0.3985  0.1774  0.5049
  125OSM    H7T13297   2.911   2.838   7.020 -0.1388 -1.1196 -0.3955
  125OSM    C8S13298   2.853   2.859   7.223  0.0812 -0.4630 -0.8764
  125OSM    H8S13299   2.882   2.966   7.227 -0.8769 -0.2418  1.1648
  125OSM    H8T13300   2.947   2.803   7.242  0.8156  0.7341 -0.9035
  125OSM    C9S13301   2.754   2.828   7.332 -0.4483  0.1015 -0.2758
  125OSM    H9S13302   2.739   2.718   7.329  0.7545 -0.1263  0.9972
  125OSM    H9T13303   2.658   2.881   7.317 -0.6315  0.5953  2.2696
  125OSM   C10S13304   2.809   2.852   7.475 -0.3474 -0.3644  0.0419
  125OSM   H10S13305   2.868   2.946   7.469  0.5128 -0.8555  0.5989
  125OSM   H10T13306   2.877   2.773   7.512 -0.6524 -0.4811  0.3675
  125OSM   C11S13307   2.701   2.879   7.583  0.5706  0.4634  0.0803
  125OSM   H11S13308   2.648   2.788   7.619  0.7876 -0.3784 -1.6362
  125OSM   H11T13309   2.626   2.954   7.550 -0.3093 -0.8444 -1.0194
  125OSM   C12S13310   2.767   2.935   7.709 -1.1795 -0.4024 -0.1186
  125OSM   H12S13311   2.816   3.031   7.683  1.4528 -1.6661 -0.1335
  125OSM   H12T13312   2.844   2.865   7.747 -1.8440 -0.9624  0.2270
  125OSM   C13S13313   2.679   2.972   7.822  1.0712 -0.6560 -0.4939
  125OSM   H13S13314   2.617   2.889   7.862  0.3468 -0.3103 -0.8588
  125OSM   H13T13315   2.605   3.053   7.801  0.9646 -0.7971 -0.6758
  125OSM   C14S13316   2.754   3.036   7.940  0.8010 -0.9887  0.1052
  125OSM   H14S13317   2.806   3.132   7.918  0.4614 -1.1038 -1.3317
  125OSM   H14T13318   2.833   2.963   7.966  0.4250 -2.1702 -1.8669
  125OSM   C15S13319   2.656   3.052   8.063  0.2970 -0.5942  0.2404
  125OSM   H15S13320   2.619   2.952   8.091  2.1355 -1.4255 -0.1401
  125OSM   H15T13321   2.573   3.119   8.033  0.8660 -0.4793 -1.1751
  125OSM   C16S13322   2.715   3.123   8.190 -0.6830  0.9924 -0.1837
  125OSM   H16S13323   2.806   3.067   8.218 -2.0303 -1.5149 -0.4952
  125OSM   H16T13324   2.630   3.112   8.262 -1.5630 -0.3956 -1.3750
  125OSM   C17S13325   2.763   3.272   8.165  0.5871  0.4431 -0.5878
  125OSM   H17S13326   2.671   3.328   8.138  0.2516 -0.4831 -1.4393
  125OSM   H17T13327   2.835   3.270   8.080 -0.1841 -2.6721 -1.2774
  125OSM   C18S13328   2.813   3.327   8.300 -0.1422  0.0765 -0.1698
  125OSM   H18S13329   2.742   3.284   8.373  0.6858 -0.9825  0.0201
  125OSM   H18T13330   2.810   3.438   8.295 -0.3811  0.1455  1.1200
  125OSM   H18U13331   2.907   3.282   8.338 -0.7178  1.1292  2.7367
  125OSM    C1F13332   3.139   2.407   6.660 -0.1168 -0.8417 -0.1672
  125OSM     OF13333   3.194   2.510   6.625  0.1523  0.4606 -0.0577
  125OSM    C2F13334   3.216   2.289   6.714 -0.1307  0.0649  0.3073
  125OSM    H2F13335   3.222   2.213   6.633  2.6734  1.1884 -0.6594
  125OSM    H2G13336   3.143   2.242   6.783 -1.5089 -0.1913 -1.2465
  125OSM    C3F13337   3.360   2.317   6.768 -0.8239 -0.4500 -0.3317
  125OSM    H3F13338   3.358   2.409   6.830  1.7196 -0.2461 -0.4545
  125OSM    H3G13339   3.427   2.323   6.679 -1.8152 -0.0340 -1.0720
  125OSM    C4F13340   3.421   2.205   6.856 -0.0458  0.3971 -0.7901
  125OSM    H4F13341   3.532   2.207   6.858 -0.0189 -0.4153  1.4185
  125OSM    H4G13342   3.394   2.102   6.822  0.2252 -1.0625  2.9527
  125OSM    C5F13343   3.383   2.221   7.003  0.1236 -0.0606 -0.4183
  125OSM    H5F13344   3.272   2.220   7.013 -0.0886  2.6804 -1.6247
  125OSM    H5G13345   3.421   2.316   7.047 -1.0549  0.2823 -0.1144
  125OSM    C6F13346   3.430   2.091   7.083  0.4530  0.2339  0.2377
  125OSM    H6F13347   3.538   2.074   7.063  0.8122  2.7263 -0.3653
  125OSM    H6G13348   3.372   1.999   7.061 -0.5241  0.1218  2.9098
  125OSM    C7F13349   3.412   2.107   7.231  0.0207 -0.0788 -1.0169
  125OSM    H7F13350   3.329   2.179   7.248  0.9301  0.3750  2.1414
  125OSM    H7G13351   3.500   2.147   7.286 -1.2214  0.1807  0.8573
  125OSM    C8F13352   3.366   1.980   7.303 -0.3741  0.0098 -1.1065
  125OSM    H8F13353   3.267   1.959   7.259 -0.7393  0.2436 -0.4120
  125OSM    H8G13354   3.352   2.002   7.411 -0.6365 -1.1421 -0.8951
  125OSM    C9F13355   3.454   1.862   7.289  0.5581  0.1604 -0.2158
  125OSM    H9F13356   3.439   1.822   7.188  0.6837  0.4302 -0.3436
  125OSM   C10F13357   3.527   1.808   7.389 -0.2107  0.3594  0.5439
  125OSM   H10F13358   3.602   1.728   7.377  0.6773  0.7898  2.7411
  125OSM   C11F13359   3.550   1.867   7.525 -0.2116  0.1399  0.4743
  125OSM   H11F13360   3.494   1.962   7.535 -0.3859 -0.0808  1.7977
  125OSM   H11G13361   3.658   1.885   7.547 -0.3223 -1.2464  2.3688
  125OSM   C12F13362   3.495   1.763   7.625 -0.3269  0.0522 -0.0044
  125OSM   H12F13363   3.547   1.665   7.620  1.2742  0.9287 -1.2845
  125OSM   H12G13364   3.387   1.746   7.605 -0.3199  1.5381 -1.4696
  125OSM   C13F13365   3.535   1.791   7.775 -0.1922 -0.3503  0.0980
  125OSM   H13F13366   3.478   1.882   7.802  2.2470  1.0682  0.7632
  125OSM   H13G13367   3.639   1.826   7.791  0.0236 -0.4799 -0.9365
  125OSM   C14F13368   3.488   1.683   7.879  0.1830  0.8902  0.5535
  125OSM   H14F13369   3.562   1.603   7.860  0.7144  1.9484 -2.3462
  125OSM   H14G13370   3.387   1.645   7.852  0.8990  1.3033 -3.3285
  125OSM   C15F13371   3.489   1.737   8.018 -0.3441  0.2483  0.4588
  125OSM   H15F13372   3.409   1.813   8.035 -0.3841  0.7698 -1.8426
  125OSM   H15G13373   3.587   1.787   8.036 -1.0694  1.1396  2.2004
  125OSM   C16F13374   3.476   1.623   8.120  0.5573 -0.0479 -0.6256
  125OSM   H16F13375   3.390   1.555   8.102  0.3390  0.2105 -0.5704
  125OSM   H16G13376   3.444   1.682   8.208 -0.2380 -0.8537 -0.3536
  125OSM   C17F13377   3.608   1.547   8.156  0.0277 -0.6442 -0.5981
  125OSM   H17F13378   3.654   1.503   8.065  0.9406 -1.5223  0.2726
  125OSM   H17G13379   3.572   1.468   8.225 -1.7638  0.2832 -0.3934
  125OSM   C18F13380   3.716   1.638   8.207 -0.5417  0.1139 -0.1248
  125OSM   H18F13381   3.680   1.721   8.271  0.2765 -0.7334  1.5080
  125OSM   H18G13382   3.767   1.681   8.118 -0.1920  0.4205  0.2249
  125OSM   H18H13383   3.793   1.588   8.269 -0.5730  3.1883  2.6830
  126OSM      N13384   0.311   0.214   6.293 -0.5103 -0.7096  0.6054
  126OSM    C1513385   0.355   0.153   6.165 -0.0736 -0.0833  0.0904
  126OSM   H15A13386   0.451   0.105   6.178 -0.2089 -0.0774  1.2216
  126OSM   H15B13387   0.357   0.225   6.084  2.7103  0.5738  0.6503
  126OSM   H15C13388   0.281   0.082   6.131 -0.5556 -0.2458  1.4302
  126OSM    C1413389   0.336   0.120   6.416  1.0127  0.1980  0.4600
  126OSM   H14A13390   0.296   0.165   6.506 -0.4351 -0.0424 -0.0501
  126OSM   H14B13391   0.444   0.117   6.428  1.3941  0.9354 -2.2295
  126OSM   H14C13392   0.292   0.024   6.395 -0.9047  1.4610 -1.7021
  126OSM    C1313393   0.392   0.340   6.309  0.6707 -0.3359  0.7053
  126OSM   H13A13394   0.495   0.322   6.337  1.4244 -1.1946 -2.2037
  126OSM   H13B13395   0.357   0.408   6.385  1.8754  1.5567 -0.3678
  126OSM   H13C13396   0.391   0.396   6.217 -2.4523 -1.3938 -0.0175
  126OSM    C1213397   0.168   0.267   6.279 -0.3271  0.2400  0.4876
  126OSM   H12A13398   0.172   0.337   6.198 -2.2807 -0.9652 -0.7327
  126OSM   H12B13399   0.147   0.332   6.363  1.2937  1.7029 -0.1753
  126OSM    C1113400   0.054   0.165   6.257  0.0771  0.1670  0.9482
  126OSM   H11A13401   0.086   0.081   6.191  0.7192  1.1203  0.0050
  126OSM   H11B13402  -0.037   0.210   6.212  0.5474 -0.4200 -0.6628
  126OSM      P13403  -0.019   0.200   6.500  0.1546 -0.0407 -0.7422
  126OSM    O1313404   0.095   0.234   6.584  0.0287 -0.3401  0.1203
  126OSM    O1413405  -0.111   0.307   6.457 -0.3907 -0.0373  0.2220
  126OSM    O1113406  -0.105   0.093   6.584 -0.3591 -0.1902  0.2478
  126OSM    O1213407   0.018   0.110   6.381 -0.1160 -0.1074  0.6572
  126OSM    C1S13408  -0.046  -0.029   6.635 -0.1734  0.1711 -0.2914
  126OSM    H1S13409   0.032  -0.074   6.569 -0.7428 -4.4747  1.8030
  126OSM    H1T13410  -0.129  -0.102   6.638 -0.2260  0.2166 -0.6480
  126OSM     NF13411   0.068  -0.141   6.825 -0.5474  0.2980  0.1308
  126OSM    HNF13412   0.020  -0.210   6.879  0.0246 -0.3981 -0.2348
  126OSM    C2S13413   0.003  -0.017   6.788 -0.2091  0.0480  0.7122
  126OSM    H2S13414   0.079   0.065   6.789 -0.9433  0.7430  1.5085
  126OSM    C3S13415  -0.119   0.027   6.879 -0.3777  0.3101  0.1875
  126OSM    H3S13416  -0.200  -0.047   6.863  1.1346 -0.9612 -2.1279
  126OSM     O313417  -0.167   0.153   6.839 -0.5098  0.5463 -0.2838
  126OSM    HO313418  -0.124   0.188   6.761 -1.1311  0.9709 -0.4456
  126OSM    C4S13419  -0.076   0.031   7.025  0.4236 -0.3431 -0.3654
  126OSM    H4S13420   0.006   0.104   7.035 -0.3887  1.3945 -4.5850
  126OSM    C5S13421  -0.121  -0.031   7.140 -0.2500 -0.5848  0.1971
  126OSM    H5S13422  -0.212  -0.092   7.127 -1.2539  1.0069 -0.5215
  126OSM    C6S13423  -0.070   0.003   7.276 -0.0521 -0.4586  0.6673
  126OSM    H6S13424  -0.024  -0.088   7.321 -0.9816 -2.2277 -1.7776
  126OSM    H6T13425  -0.167   0.003   7.329 -1.9436 -1.6149 -2.5380
  126OSM    C7S13426   0.004   0.137   7.297 -0.0638 -0.1435  0.2554
  126OSM    H7S13427  -0.054   0.228   7.272  2.9419  1.2616 -2.2346
  126OSM    H7T13428   0.087   0.141   7.224 -0.5011 -0.2170 -0.2560
  126OSM    C8S13429   0.064   0.135   7.438 -0.1900 -0.6003 -0.1962
  126OSM    H8S13430   0.144   0.212   7.450  1.1816 -2.3550  3.2374
  126OSM    H8T13431   0.118   0.040   7.453 -1.3513 -1.1631  0.5173
  126OSM    C9S13432  -0.039   0.156   7.547 -0.0632  0.3943  0.6997
  126OSM    H9S13433  -0.116   0.078   7.527  2.3982 -1.2790 -3.5422
  126OSM    H9T13434  -0.079   0.259   7.546  1.5401  1.0623 -1.3366
  126OSM   C10S13435   0.015   0.117   7.688  0.2121  0.2389 -0.0153
  126OSM   H10S13436   0.105   0.181   7.697 -0.7007  1.8457 -1.5813
  126OSM   H10T13437   0.041   0.009   7.698 -1.4296 -0.2783 -0.8328
  126OSM   C11S13438  -0.091   0.141   7.806 -0.0979 -0.4923 -0.1762
  126OSM   H11S13439  -0.172   0.066   7.801 -2.2649  1.6381  0.8567
  126OSM   H11T13440  -0.130   0.244   7.796 -0.5811 -0.5910  0.6154
  126OSM   C12S13441  -0.037   0.131   7.947 -0.1794  0.5377 -0.5311
  126OSM   H12S13442   0.057   0.188   7.964 -0.3032  0.4720  0.4577
  126OSM   H12T13443  -0.017   0.025   7.974  1.2228  0.6562 -1.0068
  126OSM   C13S13444  -0.144   0.178   8.056 -0.3277  0.1936  0.3867
  126OSM   H13S13445  -0.223   0.101   8.054  1.0663 -1.3237  1.2508
  126OSM   H13T13446  -0.183   0.275   8.017 -2.2352 -1.2894 -1.6375
  126OSM   C14S13447  -0.085   0.167   8.198  0.4472 -0.0384 -0.1657
  126OSM   H14S13448   0.004   0.233   8.204  0.7519 -0.5697  1.4663
  126OSM   H14T13449  -0.050   0.064   8.217  1.1674  0.2299  0.0057
  126OSM   C15S13450  -0.184   0.219   8.307 -0.5446 -0.4923 -0.0256
  126OSM   H15S13451  -0.265   0.142   8.302  0.2250 -1.2942 -0.4451
  126OSM   H15T13452  -0.238   0.309   8.270  3.8266  2.2903 -0.2882
  126OSM   C16S13453  -0.128   0.234   8.449  0.5164 -0.1039 -0.3166
  126OSM   H16S13454  -0.114   0.342   8.471  1.6261 -0.7553  2.6382
  126OSM   H16T13455  -0.036   0.183   8.485 -0.5947 -0.1797  2.6364
  126OSM   C17S13456  -0.240   0.198   8.543  0.3839  0.0734  1.0522
  126OSM   H17S13457  -0.206   0.229   8.644  1.3555 -0.7961  1.0156
  126OSM   H17T13458  -0.261   0.089   8.537 -1.3656  0.4173  0.5312
  126OSM   C18S13459  -0.378   0.261   8.511  0.1543  0.2989 -0.1974
  126OSM   H18S13460  -0.442   0.260   8.603  0.3549 -0.5923 -0.0655
  126OSM   H18T13461  -0.437   0.209   8.433  2.5340  1.4864 -2.9238
  126OSM   H18U13462  -0.352   0.363   8.476 -0.3470  0.2251 -0.8061
  126OSM    C1F13463   0.192  -0.173   6.792 -0.1979  0.4643 -0.4722
  126OSM     OF13464   0.268  -0.088   6.752 -0.4673 -0.4162 -0.1491
  126OSM    C2F13465   0.229  -0.317   6.799  0.2479 -0.1093  0.4782
  126OSM    H2F13466   0.289  -0.350   6.712 -0.0521  1.4431 -0.3458
  126OSM    H2G13467   0.134  -0.374   6.801 -0.7601  1.5082  0.2905
  126OSM    C3F13468   0.295  -0.344   6.936  0.5005 -0.1725 -0.3228
  126OSM    H3F13469   0.384  -0.278   6.929  0.1814  0.1788 -1.2200
  126OSM    H3G13470   0.330  -0.449   6.946  0.3558 -0.3314 -1.3991
  126OSM    C4F13471   0.213  -0.296   7.062 -0.6512 -0.1591 -0.1344
  126OSM    H4F13472   0.117  -0.351   7.059 -0.8266  0.0997  0.4790
  126OSM    H4G13473   0.188  -0.188   7.059 -1.0374 -0.1878  1.1466
  126OSM    C5F13474   0.286  -0.320   7.197  0.5795  0.4291  0.6249
  126OSM    H5F13475   0.381  -0.263   7.190  1.0062 -0.2888  0.4939
  126OSM    H5G13476   0.328  -0.423   7.198  2.8299  1.3001  0.7297
  126OSM    C6F13477   0.206  -0.282   7.318 -0.4349  0.2375  0.9542
  126OSM    H6F13478   0.116  -0.345   7.302  0.9454 -1.2152 -2.0183
  126OSM    H6G13479   0.173  -0.176   7.319 -0.2358  0.3334 -0.4410
  126OSM    C7F13480   0.261  -0.313   7.458  0.0096  0.1262 -0.0160
  126OSM    H7F13481   0.287  -0.420   7.466 -2.4656 -0.8861 -3.2457
  126OSM    H7G13482   0.177  -0.287   7.527 -0.1935  1.7909 -0.8249
  126OSM    C8F13483   0.383  -0.239   7.496 -0.1360  0.3329 -0.7487
  126OSM    H8F13484   0.466  -0.250   7.424  1.6285 -2.4393  1.5037
  126OSM    H8G13485   0.424  -0.288   7.586  1.3905 -0.6350 -1.9352
  126OSM    C9F13486   0.361  -0.092   7.531 -0.0814  0.1440  0.6179
  126OSM    H9F13487   0.325  -0.022   7.454 -2.4883 -0.3313  1.2314
  126OSM   C10F13488   0.365  -0.038   7.656 -1.1153 -0.1808  0.9102
  126OSM   H10F13489   0.363   0.071   7.673  0.4995  0.1658 -0.8441
  126OSM   C11F13490   0.403  -0.119   7.781 -0.0263  0.5239 -0.1227
  126OSM   H11F13491   0.469  -0.049   7.837  1.0956  0.2327 -1.0336
  126OSM   H11G13492   0.474  -0.201   7.760  2.0981  2.0367  0.7815
  126OSM   C12F13493   0.278  -0.162   7.854  0.5845 -0.1422  0.4841
  126OSM   H12F13494   0.203  -0.215   7.791 -0.7160  0.8638  1.1323
  126OSM   H12G13495   0.224  -0.078   7.904 -1.0576 -0.6099 -0.4269
  126OSM   C13F13496   0.322  -0.240   7.973 -0.8649  0.3051  0.1455
  126OSM   H13F13497   0.387  -0.178   8.039 -1.5623 -0.0702  1.2098
  126OSM   H13G13498   0.382  -0.330   7.947 -1.2529  0.0361  0.1833
  126OSM   C14F13499   0.198  -0.265   8.065  0.1001  1.3808 -0.3601
  126OSM   H14F13500   0.113  -0.305   8.005  0.0546 -0.1299  0.6344
  126OSM   H14G13501   0.163  -0.177   8.123 -0.6723 -0.2248  1.7446
  126OSM   C15F13502   0.235  -0.380   8.169 -0.4433 -0.1596 -0.7807
  126OSM   H15F13503   0.284  -0.472   8.131  0.1347  0.2513 -1.0599
  126OSM   H15G13504   0.143  -0.414   8.220  0.4411 -1.5803 -0.0633
  126OSM   C16F13505   0.332  -0.320   8.269  0.2010  0.7622 -0.0392
  126OSM   H16F13506   0.293  -0.232   8.323 -0.9108 -0.6974  1.6540
  126OSM   H16G13507   0.417  -0.283   8.208 -1.1294  0.3184 -2.2621
  126OSM   C17F13508   0.390  -0.420   8.360  0.5839 -0.1813  0.2494
  126OSM   H17F13509   0.453  -0.492   8.303 -1.5104 -2.4652  0.6405
  126OSM   H17G13510   0.317  -0.493   8.399 -0.2455 -0.9885 -2.5770
  126OSM   C18F13511   0.467  -0.359   8.475 -1.0643 -0.0317 -0.5895
  126OSM   H18F13512   0.392  -0.308   8.540 -0.7924 -0.9968  0.5230
  126OSM   H18G13513   0.549  -0.293   8.442 -1.4274  0.8994  0.3089
  126OSM   H18H13514   0.498  -0.437   8.548 -1.8524  0.0649 -0.1342
  127OSM      N13515   4.969   0.925   6.413 -0.1751 -0.7655 -0.5347
  127OSM    C1513516   4.996   1.040   6.499  0.4791  0.2795 -0.2741
  127OSM   H15A13517   5.039   1.008   6.593  1.1720  1.8284 -0.0231
  127OSM   H15B13518   4.907   1.099   6.518  0.1552 -0.3955  0.3689
  127OSM   H15C13519   5.045   1.119   6.444 -0.1448  1.9811  1.4827
  127OSM    C1413520   5.101   0.867   6.356  0.3568  0.4356 -0.1553
  127OSM   H14A13521   5.174   0.940   6.326  0.1478 -0.2932 -2.6479
  127OSM   H14B13522   5.064   0.807   6.274  2.1189 -0.1416 -0.5606
  127OSM   H14C13523   5.140   0.799   6.431 -3.4155 -1.8808  0.0134
  127OSM    C1313524   4.895   0.815   6.493  0.1514  0.7956  0.2125
  127OSM   H13A13525   4.855   0.743   6.423 -0.7282  1.2684  0.2095
  127OSM   H13B13526   4.811   0.839   6.556  1.4418  0.8031  2.0073
  127OSM   H13C13527   4.967   0.768   6.558 -1.6703  1.4433  2.8290
  127OSM    C1213528   4.890   0.973   6.291 -0.3436  0.1612 -0.2168
  127OSM   H12A13529   4.896   0.899   6.212 -1.8141  0.2848 -0.4814
  127OSM   H12B13530   4.937   1.065   6.260  2.3875 -1.1202 -0.1165
  127OSM    C1113531   4.740   0.998   6.314  0.5960 -0.7449 -0.0093
  127OSM   H11A13532   4.714   1.041   6.215  0.3291 -0.9379 -0.0248
  127OSM   H11B13533   4.709   1.057   6.403 -0.3235  0.2726 -0.9705
  127OSM      P13534   4.576   0.812   6.230 -0.5042  0.1533  0.1257
  127OSM    O1313535   4.538   0.917   6.133  0.2794  0.0628  0.1420
  127OSM    O1413536   4.652   0.690   6.174  0.1585 -0.2473 -0.1081
  127OSM    O1113537   4.448   0.764   6.304  0.1726 -1.2560  0.2132
  127OSM    O1213538   4.673   0.876   6.336 -0.3231 -0.4278  0.0047
  127OSM    C1S13539   4.427   0.732   6.441  0.9535  0.5474  0.4442
  127OSM    H1S13540   4.509   0.675   6.490  1.5063  1.2047  0.2941
  127OSM    H1T13541   4.334   0.671   6.447 -0.3453  2.4140  0.3533
  127OSM     NF13542   4.404   0.785   6.675  0.0604  0.1374  0.8150
  127OSM    HNF13543   4.312   0.765   6.707 -0.3320 -1.1642 -0.9423
  127OSM    C2S13544   4.404   0.840   6.543  0.0026 -0.2431  0.5740
  127OSM    H2S13545   4.480   0.921   6.538  0.1985 -0.3877  1.1352
  127OSM    C3S13546   4.266   0.907   6.514 -0.2390 -0.6860 -0.4384
  127OSM    H3S13547   4.193   0.824   6.518  0.0028 -0.8850 -0.0532
  127OSM     O313548   4.264   0.969   6.384  0.1094 -0.3252 -0.1504
  127OSM    HO313549   4.345   0.943   6.341  0.6150 -2.3491  1.8029
  127OSM    C4S13550   4.223   1.012   6.615 -0.7149  0.4028  0.0113
  127OSM    H4S13551   4.271   1.111   6.607  0.4348  0.0988  2.3687
  127OSM    C5S13552   4.121   1.000   6.707  0.3979 -0.0464  0.3415
  127OSM    H5S13553   4.060   0.909   6.700 -0.7738  0.6136  1.5370
  127OSM    C6S13554   4.082   1.111   6.803 -0.1972 -0.1567  0.1481
  127OSM    H6S13555   3.983   1.158   6.782 -1.3342 -2.1636  0.7443
  127OSM    H6T13556   4.153   1.196   6.792  2.3323 -1.8746  1.9111
  127OSM    C7S13557   4.088   1.051   6.942  0.1922 -0.3343 -0.9042
  127OSM    H7S13558   4.184   1.005   6.974 -1.7957 -2.5571  2.4194
  127OSM    H7T13559   4.025   0.960   6.948  1.4044 -1.0930  2.2903
  127OSM    C8S13560   4.030   1.151   7.038 -0.2665  0.0972 -0.0580
  127OSM    H8S13561   3.934   1.196   7.006 -0.3404  0.6414  0.9073
  127OSM    H8T13562   4.109   1.229   7.047  0.8274 -1.0927  1.2092
  127OSM    C9S13563   4.013   1.087   7.181 -0.3906 -0.1399 -0.0514
  127OSM    H9S13564   4.106   1.032   7.209 -0.8231 -1.3158 -0.8342
  127OSM    H9T13565   3.936   1.007   7.173 -1.0976  0.5687 -0.4760
  127OSM   C10S13566   3.965   1.173   7.294  0.5239  0.2498  0.3853
  127OSM   H10S13567   3.888   1.242   7.253  0.4321  0.9246  1.6223
  127OSM   H10T13568   4.045   1.232   7.342  1.6217  0.1995 -1.2957
  127OSM   C11S13569   3.895   1.091   7.414 -0.0303 -0.1260  0.0700
  127OSM   H11S13570   3.972   1.016   7.443  1.8451  1.5159 -0.4622
  127OSM   H11T13571   3.812   1.037   7.365 -0.9047  2.0340 -0.9423
  127OSM   C12S13572   3.831   1.167   7.526  0.9984  0.0280  0.9803
  127OSM   H12S13573   3.763   1.239   7.475  1.0468  0.1466  1.0838
  127OSM   H12T13574   3.909   1.221   7.584  0.2256  2.1164  0.1879
  127OSM   C13S13575   3.743   1.085   7.623  0.0574 -0.4814  0.5371
  127OSM   H13S13576   3.795   0.993   7.655 -2.2429 -2.1508 -0.2720
  127OSM   H13T13577   3.669   1.019   7.574  0.8378 -0.4729 -0.7039
  127OSM   C14S13578   3.686   1.164   7.741  0.4996 -0.1995  0.5635
  127OSM   H14S13579   3.577   1.176   7.729  0.4395  0.6312  1.7448
  127OSM   H14T13580   3.725   1.268   7.741 -1.6063  0.6266 -0.1130
  127OSM   C15S13581   3.724   1.105   7.873  0.2885 -0.6510 -0.4395
  127OSM   H15S13582   3.833   1.126   7.876  0.0964  0.3283  0.7534
  127OSM   H15T13583   3.719   0.995   7.886 -0.5506 -0.3190  3.2454
  127OSM   C16S13584   3.659   1.180   7.994 -0.4072 -0.4403 -0.2163
  127OSM   H16S13585   3.651   1.288   7.969  2.0219 -0.9374 -3.9986
  127OSM   H16T13586   3.732   1.164   8.077 -2.3351 -0.8790  1.4693
  127OSM   C17S13587   3.532   1.118   8.053  0.0151 -0.3437  0.4518
  127OSM   H17S13588   3.556   1.014   8.084  2.9112 -1.2101 -3.8273
  127OSM   H17T13589   3.465   1.103   7.966  0.6867 -1.5922  0.1190
  127OSM   C18S13590   3.473   1.199   8.172  0.2542 -0.4615 -0.4670
  127OSM   H18S13591   3.445   1.301   8.139 -0.8270 -1.0702 -1.4944
  127OSM   H18T13592   3.558   1.203   8.244  3.1415  0.7073 -3.6581
  127OSM   H18U13593   3.387   1.137   8.205  1.2175 -2.4184 -1.4805
  127OSM    C1F13594   4.512   0.751   6.749  0.1052 -0.0187 -0.4227
  127OSM     OF13595   4.622   0.776   6.714 -0.3386 -0.3202  0.2361
  127OSM    C2F13596   4.489   0.683   6.883 -0.0501  0.0602  0.1456
  127OSM    H2F13597   4.575   0.696   6.951  0.8239 -0.9746 -0.7242
  127OSM    H2G13598   4.476   0.573   6.874  1.7629 -0.1038 -0.9666
  127OSM    C3F13599   4.359   0.734   6.954  0.3711  0.3706 -0.3770
  127OSM    H3F13600   4.270   0.708   6.892 -0.5805  2.1055  0.2009
  127OSM    H3G13601   4.350   0.843   6.935  2.1250  0.4309 -1.0646
  127OSM    C4F13602   4.344   0.697   7.102  0.6733 -0.4401 -0.5349
  127OSM    H4F13603   4.429   0.741   7.159 -0.0206  0.5586 -0.2400
  127OSM    H4G13604   4.343   0.587   7.110 -0.4381 -0.2818  3.2868
  127OSM    C5F13605   4.212   0.740   7.166 -0.3779 -0.2627  0.2314
  127OSM    H5F13606   4.123   0.689   7.123  1.0321 -3.7566  1.1103
  127OSM    H5G13607   4.199   0.849   7.148 -1.1095 -0.4166 -0.2512
  127OSM    C6F13608   4.207   0.715   7.316 -0.3888 -0.0235  1.4286
  127OSM    H6F13609   4.247   0.614   7.337  0.9645 -0.2144 -1.5941
  127OSM    H6G13610   4.100   0.724   7.346 -0.6655  0.7186  0.2960
  127OSM    C7F13611   4.281   0.828   7.408  0.5782  0.5785  0.8054
  127OSM    H7F13612   4.241   0.927   7.379  3.1560  2.1913  2.4142
  127OSM    H7G13613   4.389   0.830   7.381  0.1837  2.2966 -0.8577
  127OSM    C8F13614   4.276   0.794   7.563  0.1373  0.4139 -0.5503
  127OSM    H8F13615   4.348   0.861   7.614  2.5480  0.4685 -3.6664
  127OSM    H8G13616   4.316   0.691   7.579  0.3339  1.0499  4.3768
  127OSM    C9F13617   4.143   0.828   7.623  0.3347  0.0420 -0.7306
  127OSM    H9F13618   4.102   0.928   7.601 -2.2302 -0.8940 -0.5174
  127OSM   C10F13619   4.055   0.748   7.688 -0.4399 -0.1800 -0.7200
  127OSM   H10F13620   3.956   0.793   7.705  0.4058  1.2577  0.7027
  127OSM   C11F13621   4.069   0.600   7.717  0.2478  0.2652  0.2438
  127OSM   H11F13622   4.169   0.561   7.691 -0.8882 -1.1116 -2.4967
  127OSM   H11G13623   3.999   0.536   7.660  0.6354 -1.5855  1.7687
  127OSM   C12F13624   4.041   0.567   7.869  0.1980 -1.2061  0.1625
  127OSM   H12F13625   3.950   0.620   7.904  0.8478 -1.3801  2.2217
  127OSM   H12G13626   4.124   0.606   7.932 -0.6436  0.5825  0.2230
  127OSM   C13F13627   4.000   0.423   7.892 -0.1458 -0.1679 -0.0408
  127OSM   H13F13628   4.074   0.359   7.838  0.7793  0.1985  0.7691
  127OSM   H13G13629   3.892   0.405   7.872 -0.2081  0.0407  0.1104
  127OSM   C14F13630   4.022   0.385   8.038  0.5343  0.0487  0.0650
  127OSM   H14F13631   3.947   0.306   8.060  1.9510 -0.9797  1.4979
  127OSM   H14G13632   3.999   0.471   8.104 -0.2417 -0.5632  0.6153
  127OSM   C15F13633   4.158   0.318   8.064 -0.0150 -1.0371  0.5065
  127OSM   H15F13634   4.220   0.409   8.076  0.3669 -1.1234 -0.7500
  127OSM   H15G13635   4.200   0.274   7.972  1.0479  0.8276  0.0543
  127OSM   C16F13636   4.165   0.211   8.175  0.0433  0.0731 -0.3496
  127OSM   H16F13637   4.138   0.115   8.126 -2.8439  0.7122 -0.1519
  127OSM   H16G13638   4.094   0.235   8.258  2.6265  1.6238  1.5764
  127OSM   C17F13639   4.300   0.187   8.243  0.4507 -0.2795 -0.1979
  127OSM   H17F13640   4.335   0.287   8.277 -1.1124  0.3737 -0.4419
  127OSM   H17G13641   4.377   0.139   8.178  0.3959  2.6346 -2.6213
  127OSM   C18F13642   4.284   0.093   8.370  0.3303 -0.7443  0.7298
  127OSM   H18F13643   4.215   0.137   8.445 -0.6114 -2.0613  0.6720
  127OSM   H18G13644   4.382   0.077   8.419  0.6340 -1.4920 -0.0859
  127OSM   H18H13645   4.247  -0.004   8.329  2.5590 -0.9977 -0.8689
  128OSM      N13646   5.271   5.401   5.827 -0.7868 -0.1290  0.3665
  128OSM    C1513647   5.293   5.527   5.752  0.3270  0.1261  0.1088
  128OSM   H15A13648   5.359   5.529   5.667  1.8031 -0.5468  1.2104
  128OSM   H15B13649   5.327   5.607   5.817  1.4448  0.9409 -1.4213
  128OSM   H15C13650   5.199   5.568   5.716  0.3485  0.4788  0.4431
  128OSM    C1413651   5.221   5.298   5.725 -0.3729 -0.2351  0.1365
  128OSM   H14A13652   5.206   5.202   5.772 -1.2093  0.4013  1.2451
  128OSM   H14B13653   5.285   5.308   5.639 -0.6889  0.7513 -0.0025
  128OSM   H14C13654   5.128   5.327   5.679  0.9864  0.9010 -2.0338
  128OSM    C1313655   5.406   5.348   5.871 -0.4171 -0.1924  0.1158
  128OSM   H13A13656   5.414   5.253   5.921  1.4671 -0.8238 -1.2419
  128OSM   H13B13657   5.445   5.430   5.928 -2.0900  2.4353 -2.2621
  128OSM   H13C13658   5.472   5.346   5.785 -1.4120 -0.5033 -0.6723
  128OSM    C1213659   5.187   5.413   5.946  0.4760  0.1061 -0.8097
  128OSM   H12A13660   5.231   5.464   6.031 -3.8320 -0.0997  1.8241
  128OSM   H12B13661   5.174   5.314   5.986 -0.3207  0.6195  0.2642
  128OSM    C1113662   5.045   5.478   5.944  0.5899  0.4577  0.4065
  128OSM   H11A13663   4.994   5.430   6.030  1.0543 -1.1334 -0.1827
  128OSM   H11B13664   4.997   5.455   5.847  1.5584  1.2150 -0.2706
  128OSM      P13665   5.029   5.683   6.111 -0.1091 -0.2219 -0.3137
  128OSM    O1313666   5.122   5.795   6.117 -0.4981 -0.2841  0.0747
  128OSM    O1413667   4.885   5.710   6.137 -0.5221  0.2750  0.0236
  128OSM    O1113668   5.078   5.567   6.206 -0.4117 -0.0913  0.0150
  128OSM    O1213669   5.045   5.618   5.966 -0.2514 -0.0207  0.5795
  128OSM    C1S13670   5.134   5.604   6.333 -0.8065 -0.0676  0.1022
  128OSM    H1S13671   5.073   5.680   6.387  0.0672 -0.6912  2.0951
  128OSM    H1T13672   5.236   5.646   6.317 -0.6326 -0.7334 -0.5659
  128OSM     NF13673   5.142   5.498   6.562 -0.0166  0.1458  0.2043
  128OSM    HNF13674   5.226   5.472   6.609 -0.9759  0.2326  2.0621
  128OSM    C2S13675   5.140   5.472   6.419  0.1772  0.3963  0.0992
  128OSM    H2S13676   5.041   5.425   6.400 -0.8142  2.5199 -0.3511
  128OSM    C3S13677   5.245   5.371   6.362 -0.0007 -0.3865  0.3974
  128OSM    H3S13678   5.347   5.404   6.393 -0.1993  0.5515  0.0738
  128OSM     O313679   5.240   5.344   6.219  0.0231  0.4362 -0.1633
  128OSM    HO313680   5.169   5.405   6.196  0.3167  0.5865 -0.6820
  128OSM    C4S13681   5.239   5.244   6.444  0.2716 -0.4619 -0.6501
  128OSM    H4S13682   5.302   5.256   6.533 -1.1037 -0.5102  0.3755
  128OSM    C5S13683   5.158   5.136   6.436  0.0720  0.1124  0.6009
  128OSM    H5S13684   5.074   5.123   6.366  0.8562 -3.4417  0.1078
  128OSM    C6S13685   5.164   5.022   6.536 -0.3737  0.0477  0.1878
  128OSM    H6S13686   5.251   5.024   6.605 -3.1926  1.4132  4.0601
  128OSM    H6T13687   5.158   4.925   6.483 -2.6542  1.6191 -2.7510
  128OSM    C7S13688   5.037   5.008   6.630 -0.0026 -0.2203  0.2512
  128OSM    H7S13689   4.952   4.964   6.574  1.0768 -0.0036 -1.6536
  128OSM    H7T13690   4.993   5.107   6.658 -0.6993 -0.6268  0.6088
  128OSM    C8S13691   5.067   4.925   6.754 -0.2609  0.1803 -0.6146
  128OSM    H8S13692   5.123   4.988   6.827  2.4109  1.8282 -3.8574
  128OSM    H8T13693   5.144   4.855   6.715 -0.9446 -1.3967  0.7571
  128OSM    C9S13694   4.945   4.855   6.831 -0.0971  0.0743 -0.1211
  128OSM    H9S13695   4.899   4.776   6.768 -4.1591  0.4242  2.0491
  128OSM    H9T13696   4.870   4.933   6.851  0.8908  1.2497 -0.8467
  128OSM   C10S13697   4.982   4.799   6.968 -0.2489  1.1559 -0.3777
  128OSM   H10S13698   5.067   4.727   6.962 -1.5694 -0.3931 -1.0993
  128OSM   H10T13699   4.900   4.736   7.009  1.8961 -0.5250  1.6775
  128OSM   C11S13700   5.011   4.905   7.079  0.1762  0.2013  0.2000
  128OSM   H11S13701   4.920   4.966   7.096  0.1573  0.3264 -0.3537
  128OSM   H11T13702   5.089   4.978   7.048  0.7488  0.3742  1.9410
  128OSM   C12S13703   5.030   4.830   7.207 -0.6253  0.5201  0.3666
  128OSM   H12S13704   5.115   4.761   7.189 -0.5907  0.3989  0.9680
  128OSM   H12T13705   4.948   4.760   7.232  0.3645 -1.6546 -2.0054
  128OSM   C13S13706   5.070   4.913   7.328  0.1829 -0.0239  0.5207
  128OSM   H13S13707   4.982   4.975   7.355  0.5805  0.8520 -0.1554
  128OSM   H13T13708   5.165   4.966   7.309  0.1404 -0.3325 -0.6542
  128OSM   C14S13709   5.102   4.832   7.453  0.3283 -0.6494 -0.2355
  128OSM   H14S13710   5.199   4.781   7.435  0.4720 -0.3031 -0.4434
  128OSM   H14T13711   5.014   4.767   7.475  1.0497 -1.1355  1.3697
  128OSM   C15S13712   5.113   4.926   7.576 -0.7723 -0.3321 -0.0432
  128OSM   H15S13713   5.026   4.994   7.573  0.6924  1.7708  2.1816
  128OSM   H15T13714   5.209   4.982   7.564  0.0901 -2.0865 -2.1553
  128OSM   C16S13715   5.106   4.855   7.713 -0.2119 -0.6849  0.1894
  128OSM   H16S13716   5.202   4.800   7.727  0.7862  0.9014 -0.0387
  128OSM   H16T13717   5.018   4.791   7.733  0.1177 -1.3995 -0.5767
  128OSM   C17S13718   5.124   4.948   7.838 -0.1277 -0.2126 -0.7798
  128OSM   H17S13719   5.032   5.009   7.849 -1.3922 -2.0768 -0.5419
  128OSM   H17T13720   5.208   5.020   7.829 -0.5327  0.7365  2.0284
  128OSM   C18S13721   5.144   4.860   7.960 -0.2626  0.4628 -0.1644
  128OSM   H18S13722   5.054   4.798   7.979  0.3357 -0.7967 -1.2287
  128OSM   H18T13723   5.184   4.909   8.051  2.5977 -2.0569  0.0966
  128OSM   H18U13724   5.224   4.786   7.935  0.7547  1.3882  0.2765
  128OSM    C1F13725   5.045   5.564   6.618 -1.0568 -0.0803 -1.4920
  128OSM     OF13726   4.941   5.595   6.568 -0.2446  0.0530  0.4704
  128OSM    C2F13727   5.068   5.607   6.757 -0.1418  0.2808 -0.2306
  128OSM    H2F13728   5.005   5.696   6.776  0.5887  0.2125  3.2058
  128OSM    H2G13729   5.175   5.632   6.773 -0.6585  1.0709  2.5986
  128OSM    C3F13730   5.027   5.500   6.861  0.1632  0.3706  0.0099
  128OSM    H3F13731   4.927   5.458   6.836  0.2815 -1.1944  1.9295
  128OSM    H3G13732   5.007   5.543   6.961  0.0555 -0.4486  0.3482
  128OSM    C4F13733   5.115   5.374   6.867 -0.1878  0.1169  0.3441
  128OSM    H4F13734   5.219   5.411   6.879  0.0338 -0.3380 -0.1038
  128OSM    H4G13735   5.120   5.305   6.779  0.9428  0.7360 -0.1000
  128OSM    C5F13736   5.082   5.284   6.988  0.3474  0.7022 -0.2745
  128OSM    H5F13737   5.139   5.190   6.971 -1.1773 -0.4613  0.8453
  128OSM    H5G13738   4.975   5.255   6.981 -0.4830  3.2598  0.6991
  128OSM    C6F13739   5.104   5.346   7.124 -0.8345 -0.8035  0.3742
  128OSM    H6F13740   5.028   5.423   7.150 -0.5269 -0.9606  1.8159
  128OSM    H6G13741   5.193   5.409   7.105 -1.7132 -0.4215 -3.3350
  128OSM    C7F13742   5.140   5.249   7.243 -0.3193 -0.2951 -0.2322
  128OSM    H7F13743   5.218   5.178   7.206  0.8528  0.4867  0.6677
  128OSM    H7G13744   5.051   5.186   7.266  0.6460 -1.4170  0.5644
  128OSM    C8F13745   5.184   5.302   7.380 -0.2905  0.0908 -0.2464
  128OSM    H8F13746   5.286   5.345   7.365 -0.4954  0.6748  0.0039
  128OSM    H8G13747   5.209   5.212   7.440 -0.5351 -1.2499 -2.0499
  128OSM    C9F13748   5.084   5.398   7.448 -1.2635  0.4910 -0.0100
  128OSM    H9F13749   5.045   5.484   7.391  0.1524  0.6451 -0.8015
  128OSM   C10F13750   5.043   5.374   7.574  0.0153 -0.5425  0.5052
  128OSM   H10F13751   4.953   5.425   7.611 -0.0570 -1.6130  1.8900
  128OSM   C11F13752   5.067   5.260   7.668  0.2734  0.1145  0.2928
  128OSM   H11F13753   5.146   5.192   7.631 -1.1076 -1.6214  0.4129
  128OSM   H11G13754   4.978   5.195   7.681 -0.3953  1.0589  0.6004
  128OSM   C12F13755   5.101   5.310   7.814 -0.3880  0.4792  0.7147
  128OSM   H12F13756   5.189   5.375   7.793 -0.5723  0.3180 -0.6639
  128OSM   H12G13757   5.140   5.221   7.867 -0.1454  1.7141  2.7243
  128OSM   C13F13758   4.974   5.355   7.889 -0.3887 -0.5170 -0.3481
  128OSM   H13F13759   4.913   5.264   7.907 -1.9282  0.6796  0.6807
  128OSM   H13G13760   4.923   5.434   7.831 -2.4142  0.7802  2.9432
  128OSM   C14F13761   4.998   5.424   8.026 -0.4244  0.0623 -0.5985
  128OSM   H14F13762   4.895   5.453   8.059 -0.4453 -1.2008  0.5244
  128OSM   H14G13763   5.059   5.515   8.013  0.0645 -0.3132 -0.9522
  128OSM   C15F13764   5.074   5.350   8.134 -0.2657  0.0435 -0.5032
  128OSM   H15F13765   5.052   5.410   8.225 -0.8301  1.5940 -1.6150
  128OSM   H15G13766   5.183   5.359   8.117 -0.3467  3.7491  0.1531
  128OSM   C16F13767   5.026   5.211   8.151  0.0305 -0.1705 -0.3411
  128OSM   H16F13768   5.051   5.162   8.055 -0.1506  1.3689 -1.2092
  128OSM   H16G13769   4.915   5.215   8.149  0.0499  2.4959 -2.7995
  128OSM   C17F13770   5.064   5.121   8.282 -0.7581 -0.0934  0.5846
  128OSM   H17F13771   5.175   5.121   8.290 -0.8537 -0.2811  2.0354
  128OSM   H17G13772   5.022   5.020   8.263 -0.5089 -0.3158  1.2229
  128OSM   C18F13773   5.009   5.175   8.413 -0.4140 -0.2557 -0.7298
  128OSM   H18F13774   5.053   5.119   8.497 -2.2794  2.4949  2.3141
  128OSM   H18G13775   4.903   5.149   8.432 -0.2579 -0.0326  0.5060
  128OSM   H18H13776   5.027   5.284   8.431 -0.0903 -0.4385  0.0565
  129OSM      N13777   4.132   5.119   6.244 -0.6506 -0.1047 -0.3507
  129OSM    C1513778   4.229   5.007   6.256  0.4505  0.2446  0.4903
  129OSM   H15A13779   4.224   4.939   6.172 -2.7411 -0.7563  1.3800
  129OSM   H15B13780   4.213   4.945   6.343  0.2637  1.2245  1.1753
  129OSM   H15C13781   4.331   5.044   6.265  0.2653  1.0119 -0.4139
  129OSM    C1413782   4.174   5.211   6.134  0.0305 -0.0946 -0.1689
  129OSM   H14A13783   4.271   5.256   6.151 -0.7565  1.2436  0.8815
  129OSM   H14B13784   4.098   5.286   6.124  0.3321  0.1250 -0.9174
  129OSM   H14C13785   4.163   5.154   6.042  1.5610 -1.0411  0.1841
  129OSM    C1313786   3.998   5.071   6.212  0.3128 -0.0070  0.0266
  129OSM   H13A13787   3.930   5.155   6.210 -0.3361 -0.4979  0.9287
  129OSM   H13B13788   3.972   4.991   6.279 -0.0524  0.1425  0.0691
  129OSM   H13C13789   3.998   5.008   6.124 -2.8107 -1.6734  1.0803
  129OSM    C1213790   4.132   5.187   6.381 -0.0417 -0.5462 -0.5139
  129OSM   H12A13791   4.234   5.209   6.405  0.0229 -0.0027 -1.2550
  129OSM   H12B13792   4.073   5.133   6.454 -0.2709  0.0433 -0.2565
  129OSM    C1113793   4.064   5.325   6.377 -0.4626  0.0743 -0.4528
  129OSM   H11A13794   4.057   5.356   6.484 -4.2390 -0.7109 -0.3055
  129OSM   H11B13795   3.959   5.314   6.341 -1.0158  0.9816  0.7789
  129OSM      P13796   4.057   5.537   6.227  0.0293  0.5465  0.2316
  129OSM    O1313797   4.150   5.646   6.191  0.0902  0.0618 -0.2256
  129OSM    O1413798   3.975   5.474   6.118  0.8386 -0.1959 -0.3240
  129OSM    O1113799   3.954   5.593   6.337  0.3906  0.1225 -0.2447
  129OSM    O1213800   4.127   5.429   6.307 -0.2343 -0.6976  0.1155
  129OSM    C1S13801   4.013   5.691   6.424 -0.1180 -0.2490  0.6125
  129OSM    H1S13802   4.018   5.790   6.373 -0.4269  0.2589  1.5515
  129OSM    H1T13803   4.115   5.674   6.465  0.2795  1.6240  0.5292
  129OSM     NF13804   3.992   5.824   6.638 -0.0464  0.4439  0.5935
  129OSM    HNF13805   4.055   5.804   6.713 -0.0886  1.9798  1.0762
  129OSM    C2S13806   3.933   5.718   6.557 -0.0360 -0.1824 -0.5430
  129OSM    H2S13807   3.834   5.763   6.540  0.4042  1.8504  1.6994
  129OSM    C3S13808   3.911   5.580   6.632 -0.1973 -0.4181 -0.0534
  129OSM    H3S13809   4.005   5.535   6.671  1.1246  2.7642  0.7512
  129OSM     O313810   3.843   5.481   6.557 -0.4734 -0.4156  0.0272
  129OSM    HO313811   3.828   5.514   6.468 -1.6605 -1.5912 -0.2322
  129OSM    C4S13812   3.833   5.604   6.756  0.7240 -0.0502 -0.3318
  129OSM    H4S13813   3.893   5.644   6.839 -0.8648  0.5901  0.5466
  129OSM    C5S13814   3.701   5.585   6.789  0.0510 -0.2300 -0.5846
  129OSM    H5S13815   3.638   5.537   6.713 -2.1846  1.4326  0.0987
  129OSM    C6S13816   3.642   5.611   6.926 -0.0986 -0.0403 -0.0191
  129OSM    H6S13817   3.550   5.671   6.915 -0.3328 -0.5515 -0.9976
  129OSM    H6T13818   3.708   5.668   6.995 -1.2643  1.9204 -0.4679
  129OSM    C7S13819   3.581   5.485   6.988  0.3127  0.1178 -0.1671
  129OSM    H7S13820   3.653   5.401   7.002 -0.5918 -1.0563 -2.1645
  129OSM    H7T13821   3.497   5.441   6.929 -0.5756  0.2515  0.9574
  129OSM    C8S13822   3.528   5.498   7.134 -0.2004  0.4688 -0.3058
  129OSM    H8S13823   3.515   5.400   7.184  0.4194  1.8124  2.7281
  129OSM    H8T13824   3.425   5.539   7.146 -0.9771 -1.2539 -0.7981
  129OSM    C9S13825   3.619   5.574   7.231 -0.5487  0.1254 -0.1860
  129OSM    H9S13826   3.635   5.681   7.210  0.0948  0.2286  0.7863
  129OSM    H9T13827   3.720   5.527   7.233 -0.6161 -0.0491  1.8717
  129OSM   C10S13828   3.579   5.580   7.380  0.6910 -0.2943  0.4550
  129OSM   H10S13829   3.510   5.503   7.422  1.5464 -0.9526  0.6964
  129OSM   H10T13830   3.519   5.673   7.383  1.5250  0.4171 -2.3373
  129OSM   C11S13831   3.700   5.600   7.483  0.3984 -0.2703 -0.9824
  129OSM   H11S13832   3.770   5.660   7.421  0.5509  0.5877 -0.0032
  129OSM   H11T13833   3.735   5.501   7.518 -1.0332  0.1213  1.8521
  129OSM   C12S13834   3.652   5.680   7.604  0.4289  0.0539 -0.3931
  129OSM   H12S13835   3.576   5.754   7.572  0.0424  0.1638  0.7281
  129OSM   H12T13836   3.747   5.733   7.629  0.9303 -1.5148  1.1938
  129OSM   C13S13837   3.626   5.590   7.723  0.3570  0.3800 -0.3874
  129OSM   H13S13838   3.702   5.509   7.732 -1.3286 -1.4513 -1.6873
  129OSM   H13T13839   3.528   5.544   7.699 -0.4907  2.8988 -2.0961
  129OSM   C14S13840   3.614   5.657   7.859  0.5653 -0.3624 -0.4712
  129OSM   H14S13841   3.539   5.601   7.920  1.1862  0.4420  1.0930
  129OSM   H14T13842   3.568   5.757   7.848  1.0564 -0.0527  0.2059
  129OSM   C15S13843   3.735   5.676   7.935 -0.0628 -0.0351 -0.6437
  129OSM   H15S13844   3.797   5.760   7.896 -2.3753  2.3867  0.5451
  129OSM   H15T13845   3.791   5.582   7.952  0.0456  0.3292  1.2490
  129OSM   C16S13846   3.700   5.723   8.082  0.2499 -0.1271  0.7434
  129OSM   H16S13847   3.672   5.636   8.144 -0.2737  2.1084  3.8459
  129OSM   H16T13848   3.613   5.792   8.088  0.8452  0.5912  1.1671
  129OSM   C17S13849   3.816   5.792   8.153  0.7269 -0.5525 -0.1012
  129OSM   H17S13850   3.826   5.893   8.107  0.9182  0.0738  1.2721
  129OSM   H17T13851   3.900   5.728   8.121  0.3296 -0.8637 -0.5294
  129OSM   C18S13852   3.810   5.799   8.304  0.1826  0.2966 -0.2309
  129OSM   H18S13853   3.724   5.855   8.345  0.4233 -1.5957  3.2583
  129OSM   H18T13854   3.902   5.848   8.343 -0.0240  0.7291 -0.2836
  129OSM   H18U13855   3.813   5.699   8.351 -0.2177  0.8506  1.0108
  129OSM    C1F13856   3.973   5.955   6.608  0.1570  0.6074  1.2764
  129OSM     OF13857   3.903   5.993   6.511 -0.4136  0.1539  0.2158
  129OSM    C2F13858   4.072   6.041   6.678  0.5355 -0.4501  0.2880
  129OSM    H2F13859   4.168   6.050   6.624  1.2115 -0.6412  1.4236
  129OSM    H2G13860   4.093   6.000   6.779  1.6907  1.8062  1.0280
  129OSM    C3F13861   4.019   6.182   6.699  0.0593 -0.7584  0.0869
  129OSM    H3F13862   3.929   6.183   6.764 -0.3856 -1.7659 -0.4923
  129OSM    H3G13863   3.995   6.218   6.596  0.3576  1.2901  0.6819
  129OSM    C4F13864   4.123   6.271   6.779  0.1728 -0.0316  0.2718
  129OSM    H4F13865   4.218   6.273   6.721 -0.5848  2.6475 -1.0215
  129OSM    H4G13866   4.149   6.217   6.873 -0.9120 -2.4563 -0.7321
  129OSM    C5F13867   4.056   6.414   6.789  0.0327 -0.3313 -0.1805
  129OSM    H5F13868   3.953   6.410   6.830 -0.1695  2.4586 -0.2132
  129OSM    H5G13869   4.033   6.457   6.689 -0.2742 -1.9451 -0.8348
  129OSM    C6F13870   4.145   6.516   6.859 -0.5089 -0.2471  0.4878
  129OSM    H6F13871   4.099   6.616   6.875  1.2634  0.5849  0.6327
  129OSM    H6G13872   4.244   6.517   6.808 -1.1371  0.0696 -0.7552
  129OSM    C7F13873   4.171   6.478   7.008 -0.3326  0.4965  0.0966
  129OSM    H7F13874   4.222   6.380   7.017 -0.2362  0.1930 -2.8562
  129OSM    H7G13875   4.077   6.446   7.058 -0.6046  0.9637 -0.1096
  129OSM    C8F13876   4.247   6.579   7.097  0.2370  0.0493  0.2868
  129OSM    H8F13877   4.206   6.682   7.098 -0.1667 -0.0709 -1.3764
  129OSM    H8G13878   4.347   6.600   7.053 -0.2147 -0.1762 -0.8887
  129OSM    C9F13879   4.275   6.516   7.229 -0.0586 -0.0755 -0.2291
  129OSM    H9F13880   4.339   6.426   7.228 -0.7303 -0.5712  0.5196
  129OSM   C10F13881   4.224   6.548   7.350  0.5140  0.4598 -0.1460
  129OSM   H10F13882   4.251   6.484   7.436  2.5585  0.2129 -0.9127
  129OSM   C11F13883   4.120   6.647   7.385  0.0444 -0.0331  0.1515
  129OSM   H11F13884   4.063   6.620   7.477 -1.6920 -2.4131 -1.4829
  129OSM   H11G13885   4.048   6.659   7.301 -0.5665  0.8615  0.7846
  129OSM   C12F13886   4.177   6.790   7.401  0.3481 -0.1399 -0.9269
  129OSM   H12F13887   4.246   6.815   7.317  1.1384  0.6709 -0.0583
  129OSM   H12G13888   4.243   6.797   7.489 -1.0079  0.0259  0.1040
  129OSM   C13F13889   4.069   6.896   7.413  0.2131  0.2354 -0.1409
  129OSM   H13F13890   4.004   6.864   7.497  1.6978  0.0301  0.9834
  129OSM   H13G13891   4.006   6.903   7.323 -1.8273  2.6548  1.3351
  129OSM   C14F13892   4.133   7.030   7.450 -0.2804 -0.0514  0.1329
  129OSM   H14F13893   4.201   7.015   7.537 -0.4137  1.4803  0.5360
  129OSM   H14G13894   4.052   7.105   7.464  0.4841  1.0918 -1.3484
  129OSM   C15F13895   4.222   7.095   7.344 -1.1571  0.2805  0.4959
  129OSM   H15F13896   4.302   7.021   7.324 -0.0084  1.4754  0.5277
  129OSM   H15G13897   4.272   7.189   7.374  1.1538 -0.1851 -1.5256
  129OSM   C16F13898   4.143   7.136   7.215  0.0247 -0.1961  1.1909
  129OSM   H16F13899   4.081   7.227   7.231  0.6445  0.7966 -1.5219
  129OSM   H16G13900   4.069   7.055   7.206 -0.3757  0.2934 -0.1765
  129OSM   C17F13901   4.213   7.150   7.078 -0.4017  0.3064  0.0319
  129OSM   H17F13902   4.260   7.248   7.058  0.3996 -0.2065 -0.6911
  129OSM   H17G13903   4.132   7.152   7.001 -0.0834  0.4024 -0.3037
  129OSM   C18F13904   4.304   7.039   7.028  0.0516  0.2935 -0.5996
  129OSM   H18F13905   4.248   6.948   6.997 -2.9846  2.3573 -1.6764
  129OSM   H18G13906   4.373   7.021   7.114  0.3063  0.2471 -0.8139
  129OSM   H18H13907   4.368   7.068   6.943  1.1901 -0.9438 -0.2084
  130OSM      N13908   3.734   4.033   6.219  0.4215  0.3465 -0.8032
  130OSM    C1513909   3.779   3.967   6.349  0.2444  0.2023  0.4927
  130OSM   H15A13910   3.696   3.979   6.418  1.0106  1.5894  1.2305
  130OSM   H15B13911   3.862   4.019   6.395  2.8577 -1.2814 -2.2736
  130OSM   H15C13912   3.811   3.864   6.342  1.1544  0.5548 -0.9915
  130OSM    C1413913   3.851   4.019   6.125 -0.2036  0.5680 -0.0362
  130OSM   H14A13914   3.944   4.055   6.168 -0.8110  0.7114  1.2032
  130OSM   H14B13915   3.838   4.074   6.033  1.6672  1.0062 -0.0866
  130OSM   H14C13916   3.866   3.917   6.092  0.2791 -0.2853  2.5771
  130OSM    C1313917   3.620   3.962   6.162 -0.2064  1.1853  0.4234
  130OSM   H13A13918   3.653   3.862   6.135 -3.6944 -0.0428  0.2313
  130OSM   H13B13919   3.578   4.003   6.071 -0.0875 -0.0630 -0.2222
  130OSM   H13C13920   3.539   3.941   6.231 -0.2776  0.2527  0.0743
  130OSM    C1213921   3.703   4.180   6.252 -0.0381 -0.3394 -0.1596
  130OSM   H12A13922   3.682   4.231   6.159  0.3349 -0.1007 -0.1173
  130OSM   H12B13923   3.786   4.237   6.293 -0.9607  0.6045  0.4420
  130OSM    C1113924   3.587   4.210   6.352  0.5620  0.0306 -0.0222
  130OSM   H11A13925   3.579   4.317   6.383  0.0256 -0.1502  0.4998
  130OSM   H11B13926   3.616   4.169   6.452  3.3284 -0.1401 -0.8158
  130OSM      P13927   3.377   4.249   6.203  0.4874  0.0157  0.1526
  130OSM    O1313928   3.448   4.243   6.072  0.1364 -0.6044 -0.5933
  130OSM    O1413929   3.243   4.185   6.210  0.2398 -0.4810 -0.3492
  130OSM    O1113930   3.391   4.397   6.263 -0.2638  0.4234  0.3155
  130OSM    O1213931   3.452   4.165   6.309 -0.9479 -0.2438 -0.7615
  130OSM    C1S13932   3.303   4.444   6.374 -0.0655  0.0075  0.0790
  130OSM    H1S13933   3.222   4.371   6.396 -0.8865  0.1627 -2.0945
  130OSM    H1T13934   3.252   4.537   6.341  0.6827  0.4997  0.2787
  130OSM     NF13935   3.288   4.461   6.620 -0.0807  0.0306 -0.9488
  130OSM    HNF13936   3.240   4.546   6.640  1.5525  0.6388  0.6480
  130OSM    C2S13937   3.377   4.461   6.509 -0.2786  0.4043 -0.2389
  130OSM    H2S13938   3.427   4.362   6.515 -0.4092  0.1036 -3.0724
  130OSM    C3S13939   3.481   4.576   6.500 -0.0988 -0.2089 -0.3657
  130OSM    H3S13940   3.436   4.676   6.482  2.0823  0.6099 -1.5960
  130OSM     O313941   3.576   4.569   6.392 -0.3163  0.2088 -0.3314
  130OSM    HO313942   3.534   4.503   6.336  0.4630 -1.7687  1.2829
  130OSM    C4S13943   3.549   4.583   6.638 -0.3070 -0.3479  0.1290
  130OSM    H4S13944   3.583   4.488   6.683 -2.9917 -2.3243 -1.7361
  130OSM    C5S13945   3.552   4.696   6.712 -0.0544  0.7999 -1.3392
  130OSM    H5S13946   3.504   4.783   6.664 -1.6652  0.7673  0.1167
  130OSM    C6S13947   3.605   4.702   6.849  0.3610  0.2516 -0.1775
  130OSM    H6S13948   3.663   4.796   6.859 -0.1358  0.8151 -2.0557
  130OSM    H6T13949   3.686   4.626   6.860 -1.5296 -1.7087  0.9005
  130OSM    C7S13950   3.507   4.664   6.959 -0.0639  0.6021 -0.1194
  130OSM    H7S13951   3.479   4.556   6.967 -1.3533  0.7481 -2.1396
  130OSM    H7T13952   3.409   4.714   6.944 -1.1298 -0.7451  1.8068
  130OSM    C8S13953   3.572   4.705   7.085  0.0818 -0.3340 -0.2834
  130OSM    H8S13954   3.507   4.702   7.175 -0.4755  3.7344 -0.3670
  130OSM    H8T13955   3.592   4.812   7.061 -0.3658 -0.8706 -3.5476
  130OSM    C9S13956   3.714   4.650   7.110 -0.0078  0.0407  0.0823
  130OSM    H9S13957   3.785   4.688   7.034 -0.2855  0.2380 -0.0808
  130OSM    H9T13958   3.705   4.539   7.117  1.7387 -0.0883  0.6362
  130OSM   C10S13959   3.774   4.704   7.242  0.6647 -0.3620  0.3772
  130OSM   H10S13960   3.767   4.814   7.252  1.4842 -0.3110  0.4221
  130OSM   H10T13961   3.882   4.681   7.235  0.3108 -1.7130 -3.3355
  130OSM   C11S13962   3.709   4.637   7.357  0.8442 -0.0154  0.1444
  130OSM   H11S13963   3.761   4.539   7.353  0.0987 -0.3760 -2.7614
  130OSM   H11T13964   3.600   4.616   7.352  0.9869 -0.5820 -0.6728
  130OSM   C12S13965   3.745   4.705   7.485  0.1512 -0.2995 -0.3356
  130OSM   H12S13966   3.690   4.801   7.499  1.3704  0.9288 -3.1479
  130OSM   H12T13967   3.853   4.729   7.481 -0.0939  0.7472 -1.2198
  130OSM   C13S13968   3.738   4.610   7.606 -0.4251  0.2879  0.1057
  130OSM   H13S13969   3.794   4.516   7.588 -0.7447 -0.5679  3.0779
  130OSM   H13T13970   3.634   4.584   7.635 -0.0320 -2.2093 -0.5002
  130OSM   C14S13971   3.777   4.682   7.735 -0.6345 -0.4625 -0.3803
  130OSM   H14S13972   3.692   4.751   7.755 -0.7615 -1.3506  2.6848
  130OSM   H14T13973   3.870   4.739   7.715 -0.4783  0.0095  1.5178
  130OSM   C15S13974   3.796   4.585   7.861 -0.9307 -0.8169  0.0788
  130OSM   H15S13975   3.879   4.515   7.834 -0.4080  0.2274 -1.1421
  130OSM   H15T13976   3.699   4.535   7.881 -0.9129 -1.1784 -0.7048
  130OSM   C16S13977   3.858   4.650   7.980 -0.3379 -0.6569 -0.5045
  130OSM   H16S13978   3.842   4.575   8.061  0.0708  0.1604  0.3422
  130OSM   H16T13979   3.804   4.741   8.014 -2.4541 -1.9980 -0.0359
  130OSM   C17S13980   4.013   4.677   7.956  0.3019  0.4089  0.1387
  130OSM   H17S13981   4.035   4.737   7.865  2.8643  0.0945  0.4723
  130OSM   H17T13982   4.064   4.578   7.949  0.3639  0.4444  0.0914
  130OSM   C18S13983   4.070   4.763   8.070 -0.4548 -0.3272 -0.1003
  130OSM   H18S13984   4.003   4.848   8.095 -0.4178 -0.4109  0.2966
  130OSM   H18T13985   4.166   4.809   8.040 -1.2598  0.9985 -0.7231
  130OSM   H18U13986   4.097   4.704   8.160  0.5897  1.3892  0.7562
  130OSM    C1F13987   3.238   4.353   6.681  0.5160  0.6496 -0.1563
  130OSM     OF13988   3.276   4.239   6.649 -0.0431  0.3528  0.0327
  130OSM    C2F13989   3.120   4.382   6.770  0.4441  0.3598  0.3138
  130OSM    H2F13990   3.036   4.334   6.716  0.3771 -0.3247  0.9993
  130OSM    H2G13991   3.099   4.490   6.785 -0.9181 -0.0207  1.3271
  130OSM    C3F13992   3.135   4.298   6.905  0.1556 -0.5689 -0.0578
  130OSM    H3F13993   3.211   4.351   6.966 -0.6767  1.1995 -0.4791
  130OSM    H3G13994   3.165   4.194   6.880 -2.8201 -1.6744  0.4737
  130OSM    C4F13995   3.005   4.311   6.996 -0.9641  0.1851  0.6093
  130OSM    H4F13996   2.918   4.330   6.929  0.1232  0.2027 -0.8259
  130OSM    H4G13997   2.991   4.400   7.061 -2.4383  0.9639 -0.7071
  130OSM    C5F13998   2.983   4.180   7.079  0.4534  0.5984  0.3040
  130OSM    H5F13999   3.012   4.096   7.013  1.0202  0.3583  0.8547
  130OSM    H5G14000   2.878   4.172   7.115  0.3259 -0.6552 -0.3106
  130OSM    C6F14001   3.078   4.172   7.199  0.2172 -0.4626 -0.3513
  130OSM    H6F14002   3.061   4.256   7.270  1.2069 -1.7842  1.5507
  130OSM    H6G14003   3.178   4.179   7.152  0.9920  0.0092  1.2950
  130OSM    C7F14004   3.058   4.043   7.274  0.3914  0.3638  0.3933
  130OSM    H7F14005   3.062   3.955   7.206 -0.4772  0.1097  0.6679
  130OSM    H7G14006   2.958   4.061   7.318  0.5525  1.2225  0.4315
  130OSM    C8F14007   3.154   4.033   7.391 -0.4681 -1.0799  0.0272
  130OSM    H8F14008   3.147   4.130   7.444 -0.9609  0.4206 -2.5986
  130OSM    H8G14009   3.256   4.017   7.352 -0.1010 -2.4479  1.4530
  130OSM    C9F14010   3.111   3.919   7.477 -0.0906  0.0489  0.1193
  130OSM    H9F14011   3.040   3.849   7.430  0.2726 -0.0934 -0.2205
  130OSM   C10F14012   3.154   3.891   7.599  0.1329 -0.7698 -0.2848
  130OSM   H10F14013   3.142   3.789   7.638  0.2100 -1.6281 -2.3831
  130OSM   C11F14014   3.250   3.975   7.681  0.1001  0.0009 -0.1870
  130OSM   H11F14015   3.227   3.984   7.789  0.6002 -0.5117 -0.0319
  130OSM   H11G14016   3.266   4.082   7.656  0.1355  1.5461  5.2376
  130OSM   C12F14017   3.381   3.904   7.689 -0.0985 -0.1667  0.2482
  130OSM   H12F14018   3.425   3.885   7.589 -0.0970 -0.8502  0.3748
  130OSM   H12G14019   3.363   3.807   7.739  0.2349  0.0545  0.8097
  130OSM   C13F14020   3.488   3.978   7.778  0.3835  1.1292  0.6010
  130OSM   H13F14021   3.504   4.080   7.736  1.0913  0.5762 -0.5244
  130OSM   H13G14022   3.586   3.925   7.774 -0.3806 -0.4369  1.8885
  130OSM   C14F14023   3.441   3.970   7.925  0.0506 -0.4186 -0.1439
  130OSM   H14F14024   3.426   3.863   7.951 -1.3716 -0.5143 -1.2418
  130OSM   H14G14025   3.353   4.034   7.950  1.3439  2.1113 -1.6578
  130OSM   C15F14026   3.550   4.025   8.015  0.1581  0.8428 -0.4097
  130OSM   H15F14027   3.573   4.130   7.989  1.0576  0.9490  0.7456
  130OSM   H15G14028   3.634   3.952   8.008 -2.2713 -2.4470  1.6216
  130OSM   C16F14029   3.502   4.032   8.158 -0.0901  0.2874 -0.3404
  130OSM   H16F14030   3.451   3.945   8.205  0.3752  0.2311  0.0734
  130OSM   H16G14031   3.430   4.116   8.149  1.6531  1.7402 -1.6134
  130OSM   C17F14032   3.623   4.070   8.248 -0.3399  0.3630  0.6163
  130OSM   H17F14033   3.671   4.168   8.225  1.6724 -0.9152 -0.9315
  130OSM   H17G14034   3.700   3.994   8.226 -0.9884 -0.2665  0.5056
  130OSM   C18F14035   3.586   4.071   8.396 -0.3436  0.5536  0.1289
  130OSM   H18F14036   3.516   4.153   8.425  0.5484  1.2463  0.3691
  130OSM   H18G14037   3.680   4.090   8.452  0.4625 -1.0635 -0.6139
  130OSM   H18H14038   3.554   3.969   8.428  1.8635 -0.4647 -0.7604
  131OSM      N14039   4.180   0.946   5.954 -0.1827  0.0402 -0.5299
  131OSM    C1514040   4.048   0.891   5.927 -0.1257  0.8638  0.0684
  131OSM   H15A14041   4.026   0.886   5.821 -0.5443 -0.0247  0.1846
  131OSM   H15B14042   3.970   0.939   5.983  0.7410 -0.7700  2.8731
  131OSM   H15C14043   4.043   0.789   5.962  1.3312  1.7832  3.3031
  131OSM    C1414044   4.222   1.048   5.855  0.3629  0.0959  0.0489
  131OSM   H14A14045   4.307   1.099   5.897  0.6341 -0.5370  0.2795
  131OSM   H14B14046   4.140   1.118   5.843  0.4318  0.0189 -0.9612
  131OSM   H14C14047   4.239   1.003   5.758 -0.4464  0.6031 -0.3400
  131OSM    C1314048   4.184   1.011   6.090  0.8081  0.6846  0.1580
  131OSM   H13A14049   4.134   1.106   6.083 -0.7351 -0.1808 -1.2187
  131OSM   H13B14050   4.288   1.027   6.113  0.7180 -0.0641  1.1459
  131OSM   H13C14051   4.135   0.958   6.170 -0.4491 -0.0945 -1.0729
  131OSM    C1214052   4.281   0.828   5.965  0.5665  0.0747 -0.8236
  131OSM   H12A14053   4.381   0.858   5.993 -0.2454  0.4458  1.9988
  131OSM   H12B14054   4.292   0.796   5.863 -0.2794  0.3525 -1.0045
  131OSM    C1114055   4.253   0.706   6.061 -0.1647  0.1870 -0.4413
  131OSM   H11A14056   4.245   0.753   6.161  4.6306  0.1248  0.1990
  131OSM   H11B14057   4.344   0.642   6.060 -0.7524 -0.7107 -2.3232
  131OSM      P14058   4.082   0.531   6.118  0.4556 -0.2208  0.2880
  131OSM    O1314059   3.962   0.465   6.056  0.1826  0.2600 -0.2901
  131OSM    O1414060   4.187   0.438   6.164  0.3307  0.3644 -0.5425
  131OSM    O1114061   4.046   0.636   6.229  0.5085 -0.3002  0.9870
  131OSM    O1214062   4.141   0.632   6.016 -0.2544 -0.5475 -0.0019
  131OSM    C1S14063   3.948   0.604   6.339 -0.9129 -0.8660  0.4363
  131OSM    H1S14064   3.987   0.529   6.411  1.3372  1.4536  1.8075
  131OSM    H1T14065   3.844   0.585   6.306 -0.2334 -0.8179 -1.9673
  131OSM     NF14066   3.844   0.699   6.554 -0.4573  1.0256 -0.1679
  131OSM    HNF14067   3.747   0.718   6.541 -0.5096  0.7189 -0.2190
  131OSM    C2S14068   3.922   0.734   6.431 -0.5436  0.4529 -0.1930
  131OSM    H2S14069   4.022   0.767   6.467 -0.3393 -1.6726  1.3817
  131OSM    C3S14070   3.859   0.851   6.350  0.5557  0.0034 -0.2792
  131OSM    H3S14071   3.755   0.827   6.318 -0.6078  3.7504  0.1818
  131OSM     O314072   3.931   0.883   6.228  0.3326 -0.1120 -0.3220
  131OSM    HO314073   3.994   0.811   6.219 -0.0068 -0.6998  1.5776
  131OSM    C4S14074   3.846   0.975   6.434  0.6389 -0.2022 -0.4505
  131OSM    H4S14075   3.929   0.997   6.503 -1.3800  0.6830  1.8112
  131OSM    C5S14076   3.749   1.063   6.428  0.0813  0.3946 -0.1143
  131OSM    H5S14077   3.671   1.040   6.354 -0.7139 -1.9018  1.3186
  131OSM    C6S14078   3.730   1.190   6.499 -0.8245 -0.4537 -0.2441
  131OSM    H6S14079   3.648   1.252   6.455 -0.9094 -1.7501 -2.0337
  131OSM    H6T14080   3.823   1.244   6.470 -1.7004  0.1556 -2.1337
  131OSM    C7S14081   3.712   1.168   6.655 -0.3092  0.0603  0.1963
  131OSM    H7S14082   3.788   1.102   6.701 -1.4114 -0.2416  1.6644
  131OSM    H7T14083   3.618   1.115   6.682  0.5393 -0.5681  2.1007
  131OSM    C8S14084   3.723   1.300   6.728 -0.3310  0.3842 -0.5887
  131OSM    H8S14085   3.676   1.376   6.662 -0.9808 -3.2755 -4.7688
  131OSM    H8T14086   3.832   1.325   6.729 -0.1022 -0.5726 -0.9869
  131OSM    C9S14087   3.659   1.294   6.877 -0.0007 -0.2151  0.5479
  131OSM    H9S14088   3.709   1.224   6.948 -1.6443  0.3058  2.2965
  131OSM    H9T14089   3.555   1.259   6.861 -0.7034  2.2350 -0.6899
  131OSM   C10S14090   3.660   1.432   6.940  0.3873 -0.0202 -0.3377
  131OSM   H10S14091   3.579   1.446   7.015  2.1934  0.3385  1.6415
  131OSM   H10T14092   3.634   1.505   6.861  2.9077  1.2404 -0.1153
  131OSM   C11S14093   3.796   1.469   6.996 -0.7924  0.5434 -0.1294
  131OSM   H11S14094   3.867   1.464   6.911 -0.6235 -0.8432  0.0817
  131OSM   H11T14095   3.832   1.391   7.066  4.1636  0.5716 -2.2448
  131OSM   C12S14096   3.799   1.604   7.070  0.1130  0.1470 -0.4706
  131OSM   H12S14097   3.732   1.604   7.159  3.6264 -2.3454  2.4967
  131OSM   H12T14098   3.771   1.686   7.001  1.3901  0.1643 -0.9902
  131OSM   C13S14099   3.931   1.653   7.122 -0.2088  0.3308 -0.9459
  131OSM   H13S14100   3.923   1.764   7.131  0.7006  0.4365 -1.3410
  131OSM   H13T14101   4.012   1.627   7.051 -0.2049 -1.0007 -0.4684
  131OSM   C14S14102   3.967   1.599   7.267  0.0286 -0.2518  0.1070
  131OSM   H14S14103   4.070   1.635   7.287  0.9232 -1.4594 -2.0583
  131OSM   H14T14104   3.966   1.492   7.239 -2.1183 -0.0409 -0.8306
  131OSM   C15S14105   3.885   1.631   7.397  0.5104 -0.3702  0.5607
  131OSM   H15S14106   3.785   1.594   7.366  1.0337 -1.5372  0.1962
  131OSM   H15T14107   3.883   1.741   7.416  2.8126 -0.5134  2.0779
  131OSM   C16S14108   3.938   1.557   7.522  0.6670 -0.2380 -0.5065
  131OSM   H16S14109   4.049   1.566   7.522  0.7793 -0.2171 -4.1657
  131OSM   H16T14110   3.900   1.452   7.515 -0.2697  0.1716 -1.8733
  131OSM   C17S14111   3.883   1.611   7.653 -0.3094  0.3699  0.4734
  131OSM   H17S14112   3.778   1.642   7.641  0.0124  1.5082  0.5326
  131OSM   H17T14113   3.926   1.712   7.667 -0.7159  0.5963  0.0984
  131OSM   C18S14114   3.905   1.521   7.774 -0.7008 -0.4345  0.6658
  131OSM   H18S14115   3.860   1.421   7.758  0.0525 -0.4214 -2.1401
  131OSM   H18T14116   3.880   1.566   7.872  0.9461 -0.1933  1.0057
  131OSM   H18U14117   4.012   1.490   7.772 -0.8319 -1.0160 -1.9374
  131OSM    C1F14118   3.899   0.644   6.660 -0.3368 -1.0453 -0.0994
  131OSM     OF14119   4.019   0.632   6.664  0.2331 -0.1350  0.2698
  131OSM    C2F14120   3.800   0.609   6.766 -0.1588 -0.4926 -0.1093
  131OSM    H2F14121   3.763   0.505   6.754  1.0817 -1.4896  3.6144
  131OSM    H2G14122   3.715   0.680   6.758  1.5652  1.8598  1.3083
  131OSM    C3F14123   3.868   0.613   6.907  0.4539 -1.2487 -0.6787
  131OSM    H3F14124   3.914   0.714   6.917  1.0778 -1.6532  0.8182
  131OSM    H3G14125   3.947   0.536   6.915  1.7358  0.0884  0.1553
  131OSM    C4F14126   3.767   0.588   7.018 -0.4453 -0.8538 -0.4484
  131OSM    H4F14127   3.722   0.489   6.998 -0.4771 -0.4298 -2.7770
  131OSM    H4G14128   3.687   0.665   7.021 -0.0809 -0.4954  2.5279
  131OSM    C5F14129   3.836   0.593   7.160 -0.1020  0.4249 -0.3841
  131OSM    H5F14130   3.863   0.698   7.185 -1.1688  0.7835 -0.7067
  131OSM    H5G14131   3.926   0.529   7.144 -0.3414  0.4350 -1.9486
  131OSM    C6F14132   3.755   0.527   7.267 -0.2054  0.1566 -0.3090
  131OSM    H6F14133   3.762   0.417   7.277  0.7762  0.3290  1.2170
  131OSM    H6G14134   3.647   0.547   7.254 -0.4821 -0.5634  0.8043
  131OSM    C7F14135   3.786   0.586   7.408  0.1109 -0.2495  0.4005
  131OSM    H7F14136   3.737   0.686   7.406 -0.1182 -0.3214  1.5985
  131OSM    H7G14137   3.893   0.613   7.420  0.4051 -0.7423 -0.8920
  131OSM    C8F14138   3.732   0.512   7.528  0.0952 -0.8641  0.6539
  131OSM    H8F14139   3.761   0.569   7.619 -1.6943 -1.3564  1.5775
  131OSM    H8G14140   3.776   0.410   7.521 -0.6824 -1.2436  1.1439
  131OSM    C9F14141   3.582   0.496   7.535  0.5818 -0.0034 -0.8654
  131OSM    H9F14142   3.538   0.464   7.440  2.1601 -0.8974 -1.3287
  131OSM   C10F14143   3.498   0.523   7.638 -0.1426  0.3823 -0.0890
  131OSM   H10F14144   3.391   0.499   7.629 -0.5909  2.1500 -0.0345
  131OSM   C11F14145   3.525   0.569   7.779 -0.0622  0.5051 -0.3527
  131OSM   H11F14146   3.459   0.658   7.795  0.5129  0.8189  0.3303
  131OSM   H11G14147   3.629   0.599   7.803  0.3308 -2.1273  1.7406
  131OSM   C12F14148   3.489   0.462   7.886 -0.2126 -0.0176 -0.0863
  131OSM   H12F14149   3.566   0.383   7.881  1.0703  1.2883 -2.2134
  131OSM   H12G14150   3.391   0.417   7.857 -0.4750  0.4826  0.0111
  131OSM   C13F14151   3.492   0.518   8.025 -0.5260  0.3377 -0.6485
  131OSM   H13F14152   3.444   0.439   8.088 -0.3899  1.0539  0.3802
  131OSM   H13G14153   3.438   0.614   8.036  1.3009  1.2252  1.4903
  131OSM   C14F14154   3.632   0.534   8.085 -0.2101  0.2730 -0.2923
  131OSM   H14F14155   3.683   0.613   8.026  1.0183 -1.3467 -1.5072
  131OSM   H14G14156   3.698   0.446   8.072  1.0142  1.1122  0.0181
  131OSM   C15F14157   3.628   0.564   8.235 -0.3453 -0.2705 -0.5380
  131OSM   H15F14158   3.736   0.575   8.257 -0.5400  3.0840 -0.7453
  131OSM   H15G14159   3.578   0.483   8.293 -0.8818 -0.3096 -1.0367
  131OSM   C16F14160   3.552   0.705   8.253  0.0891 -0.8732  0.0692
  131OSM   H16F14161   3.445   0.675   8.257  0.6105 -2.7307  1.8080
  131OSM   H16G14162   3.546   0.770   8.163  1.7238  0.1658  0.6588
  131OSM   C17F14163   3.610   0.787   8.371 -0.2285 -0.3320  0.1210
  131OSM   H17F14164   3.721   0.783   8.371 -0.2068  0.2128  0.7896
  131OSM   H17G14165   3.579   0.732   8.463  0.6221 -0.0966  0.5619
  131OSM   C18F14166   3.560   0.929   8.370 -0.9311 -0.6317 -0.2121
  131OSM   H18F14167   3.615   0.997   8.302 -0.5706  0.5521  1.2253
  131OSM   H18G14168   3.560   0.986   8.465 -1.0319  0.4125 -0.8213
  131OSM   H18H14169   3.451   0.935   8.347 -0.9092  1.0647 -0.0131
  132OSM      N14170   6.065   4.480   6.535 -0.1288 -0.3747 -0.1351
  132OSM    C1514171   6.090   4.342   6.478  0.5876 -0.3990  0.0709
  132OSM   H15A14172   6.191   4.345   6.441  0.4739 -0.6195 -0.2640
  132OSM   H15B14173   6.021   4.315   6.400  1.1693  0.6933 -0.8656
  132OSM   H15C14174   6.090   4.266   6.554 -1.7088 -0.4423  0.1039
  132OSM    C1414175   6.137   4.488   6.666  0.4901 -0.3281  0.1015
  132OSM   H14A14176   6.094   4.420   6.739 -0.8993  1.4101  0.9962
  132OSM   H14B14177   6.115   4.587   6.703 -1.0412 -0.8400  0.6742
  132OSM   H14C14178   6.242   4.468   6.659  0.2171 -1.7764 -0.1751
  132OSM    C1314179   6.128   4.589   6.444  0.5141  0.1946  0.3731
  132OSM   H13A14180   6.230   4.569   6.413  0.6865  1.1359  0.3084
  132OSM   H13B14181   6.120   4.687   6.487  0.3749  0.8148 -0.9945
  132OSM   H13C14182   6.071   4.598   6.352  0.0914 -0.2380  0.5893
  132OSM    C1214183   5.915   4.502   6.559  0.1988  0.6471 -0.1595
  132OSM   H12A14184   5.891   4.587   6.622  0.4962  0.4943  0.1628
  132OSM   H12B14185   5.878   4.415   6.610  2.3949 -0.2429  0.0528
  132OSM    C1114186   5.831   4.521   6.431  0.0362  0.5824  0.9330
  132OSM   H11A14187   5.864   4.603   6.363 -0.1475 -1.2461 -1.5191
  132OSM   H11B14188   5.721   4.536   6.442 -0.4940 -1.7133 -0.5477
  132OSM      P14189   5.735   4.277   6.395  0.0179 -0.2032 -0.1714
  132OSM    O1314190   5.625   4.269   6.299 -0.1059  0.4057 -0.0892
  132OSM    O1414191   5.819   4.159   6.421  0.7323  0.0048  0.2823
  132OSM    O1114192   5.673   4.313   6.540 -0.1409 -0.1542  0.2763
  132OSM    O1214193   5.832   4.397   6.360 -0.2744  0.4852  0.3020
  132OSM    C1S14194   5.722   4.240   6.650  0.3573  0.6376 -0.0556
  132OSM    H1S14195   5.833   4.237   6.642  0.7427  0.9880  3.5430
  132OSM    H1T14196   5.687   4.134   6.652 -1.6386  1.1036 -3.3367
  132OSM     NF14197   5.772   4.235   6.875 -0.1431  0.4342  0.1334
  132OSM    HNF14198   5.740   4.158   6.929 -0.4893  0.0563 -0.6027
  132OSM    C2S14199   5.686   4.299   6.782  0.0474  0.1514 -0.6107
  132OSM    H2S14200   5.709   4.406   6.760 -1.1553  0.1227 -2.1804
  132OSM    C3S14201   5.535   4.281   6.808 -0.2567  0.2581 -0.6790
  132OSM    H3S14202   5.508   4.175   6.827  0.4615  0.0424 -0.8043
  132OSM     O314203   5.456   4.321   6.696  0.2941 -0.0936  0.0715
  132OSM    HO314204   5.518   4.316   6.623  1.3599  4.6755  0.3142
  132OSM    C4S14205   5.502   4.354   6.938  0.0099  0.1217  0.4687
  132OSM    H4S14206   5.518   4.289   7.025 -0.8969  1.2560  1.5288
  132OSM    C5S14207   5.449   4.476   6.958  0.2716 -0.1769  0.1179
  132OSM    H5S14208   5.413   4.536   6.873 -0.0088  1.5341  1.4072
  132OSM    C6S14209   5.404   4.520   7.097  0.5918 -0.0542  0.0147
  132OSM    H6S14210   5.295   4.539   7.110  1.0416  1.6849  1.7925
  132OSM    H6T14211   5.437   4.625   7.109 -2.6402  1.2241 -1.3220
  132OSM    C7S14212   5.448   4.441   7.225 -0.4148  0.1025 -0.0376
  132OSM    H7S14213   5.558   4.438   7.211 -0.6909 -2.7827 -2.6371
  132OSM    H7T14214   5.418   4.334   7.229  1.4745 -0.4442  2.3991
  132OSM    C8S14215   5.414   4.511   7.355 -0.1341 -0.9165  0.1365
  132OSM    H8S14216   5.304   4.525   7.365 -0.0118 -1.2264  2.4726
  132OSM    H8T14217   5.437   4.619   7.349 -2.5601 -0.3823 -1.0721
  132OSM    C9S14218   5.463   4.444   7.484  0.1850  0.6396 -0.1365
  132OSM    H9S14219   5.571   4.418   7.492 -0.3644 -1.1039  3.2409
  132OSM    H9T14220   5.414   4.345   7.490 -0.5204  0.8644 -1.5944
  132OSM   C10S14221   5.410   4.518   7.612  0.3065  0.8040  0.3317
  132OSM   H10S14222   5.302   4.541   7.599  0.2124  0.0432 -0.2328
  132OSM   H10T14223   5.466   4.614   7.617  0.1850  1.1509 -2.8673
  132OSM   C11S14224   5.430   4.438   7.746 -0.1875 -0.4166 -0.2767
  132OSM   H11S14225   5.532   4.432   7.788 -0.3188 -0.4870  0.0401
  132OSM   H11T14226   5.389   4.336   7.730 -0.1157 -0.2872 -1.3746
  132OSM   C12S14227   5.344   4.506   7.856  0.1334  0.9549 -0.0351
  132OSM   H12S14228   5.241   4.466   7.852 -0.2619  1.7645  1.4892
  132OSM   H12T14229   5.356   4.616   7.843 -1.0152  1.2976  1.5448
  132OSM   C13S14230   5.388   4.455   7.999  0.8308  0.3284 -0.7085
  132OSM   H13S14231   5.497   4.476   8.005  1.2172 -1.8228  1.3373
  132OSM   H13T14232   5.368   4.346   8.002 -3.6572  0.9838  1.4561
  132OSM   C14S14233   5.326   4.524   8.119  0.9804 -1.1294 -0.3077
  132OSM   H14S14234   5.217   4.534   8.099  0.0958 -1.2708  3.5413
  132OSM   H14T14235   5.369   4.624   8.139  1.9224 -1.4804 -0.5449
  132OSM   C15S14236   5.344   4.451   8.253 -0.2643 -0.8624 -0.3904
  132OSM   H15S14237   5.302   4.514   8.335  3.1800 -1.7933  2.3400
  132OSM   H15T14238   5.451   4.471   8.277 -0.4518 -1.8396  1.4400
  132OSM   C16S14239   5.295   4.307   8.259  0.5196  0.6047 -0.6520
  132OSM   H16S14240   5.353   4.238   8.194  1.2685  0.9469 -0.3551
  132OSM   H16T14241   5.188   4.305   8.227 -0.7252  1.4983  3.0237
  132OSM   C17S14242   5.305   4.254   8.407  0.0104 -0.5816  1.1057
  132OSM   H17S14243   5.257   4.333   8.468 -3.6706 -1.2984 -0.5737
  132OSM   H17T14244   5.410   4.240   8.442  0.0667  0.9408  1.6174
  132OSM   C18S14245   5.237   4.114   8.426  0.1403 -0.9095  0.4117
  132OSM   H18S14246   5.150   4.115   8.357  0.3614 -3.6884 -0.0191
  132OSM   H18T14247   5.213   4.102   8.534  2.5825 -1.5161  0.9290
  132OSM   H18U14248   5.298   4.026   8.397 -0.4485 -1.2262  0.1049
  132OSM    C1F14249   5.897   4.271   6.898  0.7393  0.2136 -0.2125
  132OSM     OF14250   5.931   4.372   6.843 -0.4215  0.0916 -0.6237
  132OSM    C2F14251   5.974   4.204   6.999 -0.6175 -0.0351 -0.1157
  132OSM    H2F14252   5.985   4.094   6.987  2.4273  0.1359  0.1906
  132OSM    H2G14253   5.932   4.238   7.095  0.5521  0.3360  0.2868
  132OSM    C3F14254   6.130   4.245   6.975 -0.2676 -0.4537  0.0890
  132OSM    H3F14255   6.141   4.354   6.961  0.1790 -0.6404 -1.1298
  132OSM    H3G14256   6.174   4.206   6.881 -0.6508  1.0472 -0.7473
  132OSM    C4F14257   6.236   4.210   7.086 -0.0295 -0.2619  0.5139
  132OSM    H4F14258   6.334   4.261   7.074  1.0350 -2.4841 -0.7785
  132OSM    H4G14259   6.258   4.102   7.071  0.4076 -0.1544  0.3681
  132OSM    C5F14260   6.179   4.236   7.230 -0.6614  0.0592 -0.3592
  132OSM    H5F14261   6.091   4.174   7.254 -2.8225  3.3783  0.9853
  132OSM    H5G14262   6.131   4.336   7.226 -0.1871  0.2529 -1.8908
  132OSM    C6F14263   6.285   4.222   7.342 -0.2868 -0.1214 -0.0324
  132OSM    H6F14264   6.381   4.275   7.323 -0.9125  1.3109  0.6494
  132OSM    H6G14265   6.312   4.115   7.351  3.0189  0.5712 -0.4326
  132OSM    C7F14266   6.223   4.286   7.468 -0.8490 -0.2613 -0.6122
  132OSM    H7F14267   6.141   4.225   7.511 -0.8480  0.2821  0.1740
  132OSM    H7G14268   6.197   4.392   7.448 -0.1510  0.1463  0.5724
  132OSM    C8F14269   6.332   4.307   7.572 -0.0081  0.6690 -0.2270
  132OSM    H8F14270   6.401   4.383   7.530 -0.2231  1.8964  1.5506
  132OSM    H8G14271   6.388   4.213   7.590  3.8368  2.1174 -3.1925
  132OSM    C9F14272   6.273   4.346   7.704 -0.3364 -0.3461 -0.4962
  132OSM    H9F14273   6.187   4.288   7.738 -0.0326 -1.0738 -0.9415
  132OSM   C10F14274   6.331   4.444   7.776 -0.5666 -1.0595 -0.2685
  132OSM   H10F14275   6.284   4.480   7.869  0.4726  1.0781 -0.5083
  132OSM   C11F14276   6.458   4.530   7.751 -0.1443  0.3567 -0.9590
  132OSM   H11F14277   6.457   4.577   7.651 -0.4949  1.1968 -0.5723
  132OSM   H11G14278   6.546   4.463   7.756 -0.0798  0.5038  2.5614
  132OSM   C12F14279   6.486   4.653   7.843  0.5785  0.0775  0.3599
  132OSM   H12F14280   6.400   4.723   7.837  0.6694  0.1466 -0.1859
  132OSM   H12G14281   6.571   4.712   7.801 -1.2156  2.3127 -0.3373
  132OSM   C13F14282   6.511   4.624   7.995  0.3468  0.7605  0.2874
  132OSM   H13F14283   6.423   4.574   8.040  1.8357  0.7481  3.4473
  132OSM   H13G14284   6.517   4.718   8.054  0.4221  0.8199  0.1867
  132OSM   C14F14285   6.635   4.544   8.016  0.0569  0.4664  0.5618
  132OSM   H14F14286   6.724   4.609   8.014  0.6910 -0.3488  1.5229
  132OSM   H14G14287   6.642   4.463   7.939  1.2342  1.0143  0.0667
  132OSM   C15F14288   6.635   4.476   8.158 -0.3822  0.0440 -0.4459
  132OSM   H15F14289   6.731   4.422   8.169 -0.0616  0.5844 -0.5559
  132OSM   H15G14290   6.551   4.404   8.160 -0.3089 -0.3680 -4.3951
  132OSM   C16F14291   6.643   4.561   8.290  0.9682  0.2901 -0.6799
  132OSM   H16F14292   6.547   4.616   8.287 -0.1583 -1.5412 -4.2991
  132OSM   H16G14293   6.728   4.633   8.283  1.1947 -0.1072 -3.0042
  132OSM   C17F14294   6.652   4.463   8.406 -0.1071  0.3183 -0.3304
  132OSM   H17F14295   6.620   4.359   8.383 -1.2659  1.3315 -3.9977
  132OSM   H17G14296   6.576   4.493   8.482 -0.3721  1.3562 -0.9855
  132OSM   C18F14297   6.786   4.461   8.483  0.0631  0.5748  0.1759
  132OSM   H18F14298   6.797   4.559   8.534 -0.5142  0.0933  1.2660
  132OSM   H18G14299   6.864   4.460   8.403  0.7273  1.6558  0.7920
  132OSM   H18H14300   6.797   4.375   8.553  1.6765  0.5811 -0.0449
  133SAPE     N14301   6.604   2.390  10.786 -0.5588  0.1627 -0.6596
  133SAPE   HN114302   6.536   2.373  10.863 -1.1952 -0.4848 -1.3546
  133SAPE   HN214303   6.701   2.372  10.820 -0.9548 -0.3867  0.2033
  133SAPE   HN314304   6.595   2.490  10.758 -1.6007  0.1598 -0.3707
  133SAPE   C1214305   6.559   2.294  10.676  0.1485  0.3202 -0.7067
  133SAPE  H12A14306   6.566   2.193  10.720  0.4368  0.8998  0.6256
  133SAPE  H12B14307   6.621   2.315  10.586  1.8140  0.7782  0.4814
  133SAPE   C1114308   6.413   2.328  10.645 -0.7533 -0.3233  0.0181
  133SAPE  H11A14309   6.341   2.301  10.726 -2.6376  0.0858 -1.4435
  133SAPE  H11B14310   6.380   2.269  10.557 -2.5427  0.2143  0.2735
  133SAPE     P14311   6.248   2.525  10.599 -0.3017 -0.1851  0.2014
  133SAPE   O1314312   6.143   2.419  10.607  0.3977 -0.0155 -0.2453
  133SAPE   O1414313   6.230   2.652  10.678 -0.1323  0.1919  0.0443
  133SAPE   O1214314   6.394   2.465  10.618 -0.0703  0.3050 -0.2570
  133SAPE   O1114315   6.248   2.572  10.442  0.2570  0.2484  0.4010
  133SAPE    C114316   6.312   2.490  10.347  0.4492  0.1700  0.2194
  133SAPE    HA14317   6.286   2.383  10.361  3.2518 -0.8110 -1.3498
  133SAPE    HB14318   6.268   2.509  10.247 -1.6682 -1.3372  0.7772
  133SAPE    C214319   6.470   2.503  10.335 -0.3703 -0.5564  0.2747
  133SAPE    HS14320   6.523   2.521  10.431 -0.4916  3.4769 -0.2120
  133SAPE   O2114321   6.489   2.617  10.250 -0.4170  0.1625  0.0658
  133SAPE   C2114322   6.611   2.660  10.242  0.4159  0.4062 -0.7263
  133SAPE   O2214323   6.701   2.628  10.315 -0.2547  0.1832 -0.0608
  133SAPE   C2214324   6.616   2.772  10.129  0.9815  0.1603 -0.3659
  133SAPE   H2R14325   6.559   2.736  10.040 -0.3182  1.7381 -0.2106
  133SAPE   H2S14326   6.574   2.860  10.182  1.0288 -0.6519  1.0638
  133SAPE    C314327   6.537   2.370  10.277  0.1642 -0.2993  0.0871
  133SAPE    HX14328   6.526   2.285  10.348  0.6880 -0.1460  0.3585
  133SAPE    HY14329   6.645   2.388  10.262  0.4444 -0.4418  1.6978
  133SAPE   O3114330   6.476   2.328  10.157 -0.2520 -0.2452 -0.1602
  133SAPE   C3114331   6.515   2.388  10.046 -0.0977  0.8088  0.3127
  133SAPE   O3214332   6.624   2.438  10.028 -0.0052 -0.0126 -0.0815
  133SAPE   C3214333   6.415   2.349   9.932 -0.0740  0.0389 -0.2239
  133SAPE   H2X14334   6.314   2.393   9.946 -0.5621 -0.2502 -2.4294
  133SAPE   H2Y14335   6.408   2.242   9.904 -0.4337  0.5451 -2.2720
  133SAPE   C2314336   6.762   2.802  10.081 -0.1064 -0.5299 -0.1592
  133SAPE   H3R14337   6.810   2.710  10.043  3.0354  1.1471 -0.5222
  133SAPE   H3S14338   6.823   2.828  10.170 -1.0459 -1.0956  0.6843
  133SAPE   C2414339   6.779   2.905   9.972  0.4033  0.0369  0.4827
  133SAPE   H4R14340   6.723   2.877   9.881  0.2769  0.9027  0.2875
  133SAPE   H4S14341   6.880   2.881   9.933 -0.0888 -1.1400 -0.1062
  133SAPE   C2514342   6.745   3.042  10.031 -1.0672 -0.0923 -0.1213
  133SAPE   H5R14343   6.816   3.071  10.111 -2.4655  4.0878 -0.1270
  133SAPE   C2614344   6.658   3.135   9.981  0.6224 -0.0654  0.3717
  133SAPE   H6R14345   6.651   3.229  10.038 -0.4263  0.7848 -1.0929
  133SAPE   C2714346   6.571   3.122   9.864  0.6885 -0.4989  0.2405
  133SAPE   H7R14347   6.563   3.015   9.835  2.6130 -0.9745  1.2888
  133SAPE   H7S14348   6.618   3.170   9.775  0.6934 -1.9931 -0.6061
  133SAPE   C2814349   6.433   3.180   9.895 -0.1136 -0.2273  0.2142
  133SAPE   H8R14350   6.398   3.173   9.999 -0.8925 -0.9104 -0.0854
  133SAPE   C2914351   6.361   3.243   9.799  0.2303 -0.7546 -0.4960
  133SAPE   H9R14352   6.263   3.287   9.821  1.0265  0.1596  1.4939
  133SAPE  C21014353   6.398   3.264   9.653 -0.7472  0.2250  0.8998
  133SAPE  H10R14354   6.300   3.289   9.605 -0.2965 -2.6476 -1.8502
  133SAPE  H10S14355   6.431   3.171   9.602 -1.0666  1.5020 -1.8339
  133SAPE  C21114356   6.490   3.384   9.617  0.1395 -0.0368  0.0408
  133SAPE  H11R14357   6.571   3.405   9.689 -0.3410 -1.8822  1.1981
  133SAPE  C21214358   6.478   3.453   9.500  0.3003 -1.2394 -0.4141
  133SAPE  H12R14359   6.544   3.541   9.498 -2.0921  0.6875 -0.1282
  133SAPE  C21314360   6.387   3.430   9.383 -0.4936 -1.0026  0.0130
  133SAPE  H13R14361   6.317   3.514   9.363 -0.3226 -0.5092  1.3887
  133SAPE  H13S14362   6.316   3.347   9.408 -1.5770 -0.0439  0.1989
  133SAPE  C21414363   6.467   3.401   9.261 -0.2784 -0.2951  0.1086
  133SAPE  H14R14364   6.479   3.292   9.251 -1.0034 -0.8341  3.6835
  133SAPE  C21514365   6.497   3.483   9.164 -0.2522  0.4001 -0.0868
  133SAPE  H15R14366   6.552   3.440   9.079 -1.8240 -2.2051  0.1323
  133SAPE  C21614367   6.465   3.636   9.175  0.4235 -0.1569 -0.3062
  133SAPE  H16R14368   6.433   3.663   9.278  1.0231  0.4657 -0.2770
  133SAPE  H16S14369   6.375   3.655   9.111  0.1310  1.0242  0.4192
  133SAPE  C21714370   6.584   3.730   9.148  0.0304 -0.5104  0.2855
  133SAPE  H17R14371   6.667   3.698   9.214  1.9759  0.8964 -1.3720
  133SAPE  H17S14372   6.558   3.834   9.176  0.4973 -0.5316  0.8163
  133SAPE  C21814373   6.632   3.729   9.003 -0.2895 -0.1782 -0.1780
  133SAPE  H18R14374   6.631   3.621   8.975 -0.9222 -0.2640  0.1737
  133SAPE  H18S14375   6.734   3.771   8.985 -1.0417  1.5023 -0.7369
  133SAPE  C21914376   6.534   3.791   8.911 -0.5285 -0.1079  0.5546
  133SAPE  H19R14377   6.518   3.899   8.933 -1.1316  0.2929 -1.5971
  133SAPE  H19S14378   6.436   3.740   8.926 -1.1130  1.1282  1.1017
  133SAPE  C22014379   6.586   3.778   8.763  0.1130  0.8359 -0.0857
  133SAPE  H20R14380   6.683   3.828   8.740  0.9612 -1.2992 -1.4144
  133SAPE  H20S14381   6.501   3.811   8.699  0.6069 -0.5975 -1.5412
  133SAPE  H20T14382   6.595   3.671   8.733  0.3681  0.3685  1.5857
  133SAPE   C3314383   6.471   2.408   9.801 -1.0127  0.1441 -0.2792
  133SAPE   H3X14384   6.574   2.370   9.787 -1.1490  0.1359 -1.3841
  133SAPE   H3Y14385   6.480   2.519   9.797 -1.8638  0.1848 -1.9354
  133SAPE   C3414386   6.399   2.354   9.675 -0.4061 -0.3851  0.1906
  133SAPE   H4X14387   6.288   2.363   9.679 -0.6915 -2.9873 -0.6565
  133SAPE   H4Y14388   6.419   2.245   9.681 -1.4996 -0.5788  0.5498
  133SAPE   C3514389   6.454   2.420   9.546  0.4551  0.1172 -0.2670
  133SAPE   H5X14390   6.564   2.407   9.541  0.5795  0.6513  0.9061
  133SAPE   H5Y14391   6.429   2.528   9.558 -1.9046 -0.1243 -2.1644
  133SAPE   C3614392   6.393   2.382   9.406 -0.3683 -0.0989 -0.2369
  133SAPE   H6X14393   6.283   2.397   9.416 -0.3834  0.6906 -1.4175
  133SAPE   H6Y14394   6.408   2.277   9.370 -1.5503  0.4398 -2.5072
  133SAPE   C3714395   6.450   2.465   9.295  0.3642  0.5537 -0.9488
  133SAPE   H7X14396   6.461   2.570   9.328  0.7844  0.6178 -1.2892
  133SAPE   H7Y14397   6.391   2.449   9.203 -1.3488  3.7511 -0.5428
  133SAPE   C3814398   6.591   2.407   9.266  0.1458  0.3562 -0.1413
  133SAPE   H8X14399   6.602   2.296   9.259 -3.1617 -0.0739  0.2744
  133SAPE   H8Y14400   6.661   2.445   9.344 -1.4752  1.5845  0.7628
  133SAPE   C3914401   6.641   2.454   9.130 -0.1301 -0.2791 -0.0990
  133SAPE   H9X14402   6.578   2.406   9.052 -0.3949 -1.0890  0.5988
  133SAPE   H9Y14403   6.749   2.430   9.123  0.2237  0.9955  0.6425
  133SAPE  C31014404   6.631   2.613   9.119  0.2702  0.1007 -0.8645
  133SAPE  H10X14405   6.697   2.653   9.199 -1.1415  0.7596  0.0146
  133SAPE  H10Y14406   6.530   2.655   9.139  0.8579  0.5908  1.3025
  133SAPE  C31114407   6.663   2.656   8.976  0.0973  0.6128  0.4638
  133SAPE  H11X14408   6.587   2.616   8.905 -0.9043  1.1691  1.1954
  133SAPE  H11Y14409   6.763   2.611   8.956  0.0858  0.5299  0.5982
  133SAPE  C31214410   6.689   2.802   8.957 -0.3969 -0.7280  1.1838
  133SAPE  H12X14411   6.776   2.823   9.023  1.4665 -0.5118 -1.2043
  133SAPE  H12Y14412   6.598   2.860   8.983 -0.4138  0.4694 -1.2818
  133SAPE  C31314413   6.724   2.846   8.808  0.0022 -0.0652 -0.0419
  133SAPE  H13X14414   6.825   2.803   8.792  0.8075  1.7709 -0.1673
  133SAPE  H13Y14415   6.727   2.957   8.811 -3.3351  0.1301 -0.2095
  133SAPE  C31414416   6.627   2.817   8.690 -0.2136 -0.0012 -0.1025
  133SAPE  H14X14417   6.528   2.862   8.715  0.3295  2.5910 -2.1796
  133SAPE  H14Y14418   6.611   2.708   8.678  1.3833 -0.4880  1.7118
  133SAPE  C31514419   6.674   2.888   8.567 -0.7401  0.2837 -0.3844
  133SAPE  H15X14420   6.712   2.988   8.597  0.0180  0.6930 -2.5344
  133SAPE  H15Y14421   6.588   2.910   8.500 -2.6464 -1.6023  1.2959
  133SAPE  C31614422   6.776   2.817   8.474 -0.2540  0.0155 -0.0220
  133SAPE  H16X14423   6.722   2.723   8.447 -1.4347  1.2755 -2.3637
  133SAPE  H16Y14424   6.861   2.799   8.543  1.6776  1.3458 -1.9114
  133SAPE  C31714425   6.835   2.897   8.363 -0.7515 -0.5625  0.3015
  133SAPE  H17X14426   6.883   2.991   8.400 -2.2899  0.2948  0.1883
  133SAPE  H17Y14427   6.749   2.931   8.301 -1.4976  0.2381  1.7434
  133SAPE  C31814428   6.925   2.803   8.284 -0.3735 -0.3683  0.1499
  133SAPE  H18X14429   6.876   2.706   8.264 -0.6468  0.0955 -1.5657
  133SAPE  H18Y14430   7.024   2.790   8.334  1.2734  1.9631 -2.2163
  133SAPE  H18Z14431   6.955   2.851   8.188 -2.8518 -0.4439 -0.7245
  134SAPE     N14432   2.743   4.586  10.371  1.0783  0.1875  0.5285
  134SAPE   HN114433   2.748   4.686  10.346  0.9732  0.2909  0.9135
  134SAPE   HN214434   2.796   4.570  10.459 -0.5950 -0.1605  1.5260
  134SAPE   HN314435   2.804   4.522  10.315 -0.0279 -0.2718 -0.2085
  134SAPE   C1214436   2.599   4.530  10.381 -0.3856 -0.3853  0.2970
  134SAPE  H12A14437   2.546   4.570  10.292 -0.6727 -0.0981  0.5926
  134SAPE  H12B14438   2.560   4.563  10.480  0.4744  1.0564  0.1884
  134SAPE   C1114439   2.606   4.374  10.394 -0.2674 -0.5365  0.6304
  134SAPE  H11A14440   2.666   4.345  10.305 -0.1444 -1.5698  1.0436
  134SAPE  H11B14441   2.502   4.335  10.390 -1.2292  1.9354 -1.2511
  134SAPE     P14442   2.787   4.235  10.538 -0.1911  0.1369  0.0495
  134SAPE   O1314443   2.834   4.235  10.679 -0.5907  0.1650 -0.2707
  134SAPE   O1414444   2.756   4.108  10.472 -0.3026  0.5295 -0.1233
  134SAPE   O1214445   2.668   4.328  10.520 -0.2293 -0.4896  0.5487
  134SAPE   O1114446   2.898   4.305  10.448  0.3298  0.4024  0.0597
  134SAPE    C114447   3.016   4.221  10.429 -0.1822  0.1461  0.4987
  134SAPE    HA14448   3.078   4.216  10.522 -0.6704 -0.2268  0.8083
  134SAPE    HB14449   2.995   4.120  10.388 -0.7953  1.1017 -1.6571
  134SAPE    C214450   3.112   4.276  10.322  0.1564 -0.2585 -0.2733
  134SAPE    HS14451   3.126   4.385  10.333 -0.8214 -0.3246  2.5356
  134SAPE   O2114452   3.062   4.261  10.191  0.3979  0.3121  0.4973
  134SAPE   C2114453   2.958   4.332  10.157  0.6436 -0.7724  0.6228
  134SAPE   O2214454   2.915   4.430  10.218  0.0100  0.1262  0.4825
  134SAPE   C2214455   2.916   4.288  10.013  0.4353  0.6740  0.6577
  134SAPE   H2R14456   3.002   4.243   9.960 -1.3467  0.4481 -2.2847
  134SAPE   H2S14457   2.851   4.199  10.029 -0.3168  0.7257 -1.6805
  134SAPE    C314458   3.249   4.211  10.344  1.0229 -0.1215  0.5380
  134SAPE    HX14459   3.239   4.109  10.387 -0.5552 -0.0802  0.3527
  134SAPE    HY14460   3.292   4.269  10.428 -1.0161  0.3496  1.3133
  134SAPE   O3114461   3.330   4.206  10.226 -0.3052  0.0614  0.0689
  134SAPE   C3114462   3.374   4.329  10.182 -0.0407  0.1097  0.3955
  134SAPE   O3214463   3.364   4.436  10.244  0.1225  0.1686 -0.7139
  134SAPE   C3214464   3.477   4.304  10.070 -0.0911 -0.4778 -0.3144
  134SAPE   H2X14465   3.455   4.216  10.007 -1.3201 -1.0394  0.8399
  134SAPE   H2Y14466   3.569   4.289  10.131 -0.0822 -0.6533 -0.3702
  134SAPE   C2314467   2.853   4.405   9.936  0.2907 -0.7019 -0.1896
  134SAPE   H3R14468   2.762   4.447   9.982 -0.5337 -1.6028 -0.9377
  134SAPE   H3S14469   2.818   4.367   9.837 -1.5397  0.8798 -0.1907
  134SAPE   C2414470   2.946   4.524   9.896 -0.0259 -0.8028  0.6926
  134SAPE   H4R14471   2.972   4.580   9.989  1.9391 -1.1357  0.3897
  134SAPE   H4S14472   2.876   4.591   9.841 -0.0075 -0.5172  1.0121
  134SAPE   C2514473   3.071   4.478   9.824  0.5378 -0.3026  0.0302
  134SAPE   H5R14474   3.125   4.396   9.873  1.0833 -0.1017 -0.2279
  134SAPE   C2614475   3.104   4.516   9.703 -0.0227  0.0872  0.3288
  134SAPE   H6R14476   3.192   4.473   9.653  0.7968  2.9447 -0.8726
  134SAPE   C2714477   3.027   4.606   9.603 -1.2484  0.4275 -0.2932
  134SAPE   H7R14478   3.105   4.661   9.546  0.6812 -1.7440  0.0930
  134SAPE   H7S14479   2.968   4.687   9.650 -2.1981 -0.2882 -0.2176
  134SAPE   C2814480   2.932   4.536   9.511  0.0593 -0.2834 -0.7672
  134SAPE   H8R14481   2.841   4.494   9.558 -0.3839  1.4689  0.0008
  134SAPE   C2914482   2.947   4.521   9.380 -0.8477 -0.4673  0.8821
  134SAPE   H9R14483   2.873   4.458   9.327 -1.4862 -0.6834  1.9935
  134SAPE  C21014484   3.051   4.579   9.289  0.4125  0.3910 -0.3175
  134SAPE  H10R14485   3.073   4.492   9.223  0.9522  0.3298 -0.0610
  134SAPE  H10S14486   3.141   4.609   9.345 -0.0460 -1.0536  1.2849
  134SAPE  C21114487   2.989   4.700   9.216 -0.6322 -0.4699 -0.2002
  134SAPE  H11R14488   3.019   4.801   9.248 -1.5084  0.8557 -3.2156
  134SAPE  C21214489   2.912   4.692   9.105  0.3790  0.1704  0.1559
  134SAPE  H12R14490   2.897   4.793   9.063  0.2713  0.5847  1.1465
  134SAPE  C21314491   2.862   4.566   9.034  0.0747  0.2065  0.2931
  134SAPE  H13R14492   2.773   4.606   8.981  2.0735  3.1631 -1.0893
  134SAPE  H13S14493   2.842   4.485   9.107 -0.9489 -0.1638 -0.3706
  134SAPE  C21414494   2.957   4.515   8.933 -0.1986  0.2893 -0.6835
  134SAPE  H14R14495   3.026   4.444   8.981  0.4010  2.4287  1.8325
  134SAPE  C21514496   2.982   4.550   8.813 -0.0486  0.9562 -0.1839
  134SAPE  H15R14497   3.071   4.500   8.772 -0.5639  2.0849 -2.8936
  134SAPE  C21614498   2.908   4.660   8.734 -0.2180 -0.2336  0.3910
  134SAPE  H16R14499   2.818   4.692   8.791 -2.4343 -1.4544 -2.1883
  134SAPE  H16S14500   2.856   4.616   8.646  0.0336 -0.4021  0.3254
  134SAPE  C21714501   2.991   4.780   8.689 -1.0226 -0.4158 -0.4144
  134SAPE  H17R14502   2.931   4.857   8.635  0.9128  1.1993 -0.4017
  134SAPE  H17S14503   3.072   4.747   8.621 -1.0041 -1.7736  0.2411
  134SAPE  C21814504   3.067   4.853   8.801 -0.2529 -0.4130  0.2028
  134SAPE  H18R14505   3.159   4.890   8.752 -0.8003 -1.5059 -1.7762
  134SAPE  H18S14506   3.094   4.784   8.883 -0.1680 -2.1531 -1.2318
  134SAPE  C21914507   3.006   4.973   8.866 -0.5906 -0.5283  0.0427
  134SAPE  H19R14508   2.905   4.946   8.903 -0.4596  0.2788  1.0536
  134SAPE  H19S14509   3.001   5.052   8.789  0.3029  0.0837  0.5886
  134SAPE  C22014510   3.089   5.041   8.979  0.1551 -0.4171 -0.0765
  134SAPE  H20R14511   3.088   4.976   9.069 -0.4979  1.1686  1.0996
  134SAPE  H20S14512   3.044   5.141   9.000  0.1863  0.0351 -1.9198
  134SAPE  H20T14513   3.194   5.054   8.946  0.0338  1.0723  0.0667
  134SAPE   C3314514   3.502   4.420   9.974  0.2216 -0.1680 -0.4746
  134SAPE   H3X14515   3.569   4.492  10.026  1.0037 -0.7573 -0.6387
  134SAPE   H3Y14516   3.408   4.473   9.950 -0.7265 -1.2506  0.7238
  134SAPE   C3414517   3.580   4.383   9.847  0.2264 -0.5348 -0.2595
  134SAPE   H4X14518   3.514   4.311   9.794 -1.8606  0.4989  0.8340
  134SAPE   H4Y14519   3.670   4.320   9.865  0.1690 -1.1163 -1.8289
  134SAPE   C3514520   3.610   4.505   9.766 -0.2396 -0.2186  0.2830
  134SAPE   H5X14521   3.712   4.548   9.765 -0.5293  0.5307  1.1266
  134SAPE   H5Y14522   3.549   4.587   9.811 -0.1473 -0.5537  1.0194
  134SAPE   C3614523   3.568   4.496   9.620  0.1391  1.1687  0.3112
  134SAPE   H6X14524   3.460   4.474   9.610  0.5194 -1.3849  1.1369
  134SAPE   H6Y14525   3.617   4.411   9.568  0.2036  1.6066 -0.3536
  134SAPE   C3714526   3.604   4.611   9.524  0.3509 -0.3685 -0.2792
  134SAPE   H7X14527   3.714   4.609   9.507  0.7806 -0.0954  2.0942
  134SAPE   H7Y14528   3.565   4.703   9.572  0.0632 -0.8169  0.3660
  134SAPE   C3814529   3.529   4.591   9.389 -0.7050  0.0455  1.2503
  134SAPE   H8X14530   3.423   4.570   9.414 -0.4188 -0.2233  2.2617
  134SAPE   H8Y14531   3.573   4.504   9.336  0.1151  1.0641  0.1836
  134SAPE   C3914532   3.542   4.711   9.289 -0.4121  0.0113  0.3453
  134SAPE   H9X14533   3.648   4.735   9.266 -0.8788  0.4655 -1.4606
  134SAPE   H9Y14534   3.512   4.792   9.360 -1.7325  0.0197 -0.1990
  134SAPE  C31014535   3.464   4.703   9.155  0.0317 -0.4965  0.8032
  134SAPE  H10X14536   3.435   4.809   9.138  1.5884 -0.2984 -0.9263
  134SAPE  H10Y14537   3.369   4.645   9.157 -0.4047  0.1539 -0.3523
  134SAPE  C31114538   3.556   4.650   9.046 -0.3314  1.1265 -0.6989
  134SAPE  H11X14539   3.494   4.579   8.988 -0.8090 -0.1064  1.2091
  134SAPE  H11Y14540   3.629   4.575   9.083  0.0976  1.5848 -0.6043
  134SAPE  C31214541   3.632   4.753   8.959  0.6308 -0.2180 -0.4557
  134SAPE  H12X14542   3.704   4.701   8.892  2.7546  4.1203 -1.9535
  134SAPE  H12Y14543   3.689   4.815   9.032 -1.1729 -0.6779  1.4103
  134SAPE  C31314544   3.535   4.842   8.874 -0.0338  0.1651 -0.2861
  134SAPE  H13X14545   3.476   4.895   8.953  0.1812  0.5305 -0.3705
  134SAPE  H13Y14546   3.477   4.777   8.805 -0.6936 -1.5174  1.7504
  134SAPE  C31414547   3.613   4.941   8.795 -1.2913 -0.1051  0.2240
  134SAPE  H14X14548   3.693   4.887   8.740  1.5642  1.2414  2.7843
  134SAPE  H14Y14549   3.663   5.012   8.864 -0.8822 -0.0568 -0.1185
  134SAPE  C31514550   3.525   5.016   8.693 -0.2550 -0.3094 -0.2134
  134SAPE  H15X14551   3.474   4.943   8.627  3.1569 -1.5826 -1.6967
  134SAPE  H15Y14552   3.598   5.073   8.631 -0.5932  1.8950  1.2873
  134SAPE  C31614553   3.422   5.116   8.754 -0.1335  0.0090  0.3192
  134SAPE  H16X14554   3.465   5.179   8.834  0.8035 -0.3298  0.0923
  134SAPE  H16Y14555   3.343   5.049   8.793 -0.4752 -0.5339 -1.2197
  134SAPE  C31714556   3.358   5.193   8.639 -0.2486 -0.5302  0.4708
  134SAPE  H17X14557   3.321   5.126   8.559 -0.3740  0.4342 -0.2916
  134SAPE  H17Y14558   3.447   5.239   8.591 -0.7194 -1.7182 -1.6663
  134SAPE  C31814559   3.237   5.294   8.668  0.0869 -0.0497 -0.7272
  134SAPE  H18X14560   3.188   5.313   8.570  2.0373  0.4564 -1.6694
  134SAPE  H18Y14561   3.279   5.391   8.701  0.7940 -0.3967 -0.5850
  134SAPE  H18Z14562   3.167   5.248   8.741 -0.5070 -0.1784 -1.3742
  135SAPE     N14563   3.601   3.092  10.475 -0.0403  0.6420  0.0532
  135SAPE   HN114564   3.498   3.102  10.471 -0.0828  0.1050 -0.4661
  135SAPE   HN214565   3.623   3.062  10.378 -1.5535 -4.1505  0.9252
  135SAPE   HN314566   3.634   3.013  10.534  2.8437  0.8433 -1.0969
  135SAPE   C1214567   3.671   3.218  10.516 -0.0259 -0.0702 -0.0661
  135SAPE  H12A14568   3.658   3.237  10.625 -0.5391  4.1327 -0.6823
  135SAPE  H12B14569   3.625   3.301  10.458  1.9966 -0.1784 -1.9814
  135SAPE   C1114570   3.824   3.207  10.473  0.2855 -0.0449 -1.1194
  135SAPE  H11A14571   3.861   3.311  10.488  1.9708 -0.6770 -0.7111
  135SAPE  H11B14572   3.828   3.178  10.366 -2.0243 -2.6418 -0.6208
  135SAPE     P14573   3.991   3.002  10.509  0.1037 -0.2784 -0.2788
  135SAPE   O1314574   4.107   3.046  10.431 -0.1770  0.1654 -0.3768
  135SAPE   O1414575   4.017   2.928  10.634 -0.0724 -0.3498  0.1241
  135SAPE   O1214576   3.899   3.116  10.556 -0.4992  0.7209 -0.2200
  135SAPE   O1114577   3.889   2.927  10.418  0.6922  0.2259  0.4116
  135SAPE    C114578   3.922   2.793  10.380 -0.0564  0.5621  0.2975
  135SAPE    HA14579   3.951   2.735  10.470  0.4450 -0.5895 -0.5663
  135SAPE    HB14580   3.828   2.743  10.349 -0.5940  1.5899  0.2130
  135SAPE    C214581   4.026   2.779  10.273 -0.1171 -0.4102 -0.0028
  135SAPE    HS14582   4.127   2.803  10.313 -0.1199  0.6508 -0.5873
  135SAPE   O2114583   3.978   2.866  10.172 -0.9256 -0.1940  0.0130
  135SAPE   C2114584   4.069   2.930  10.105  0.4009  0.0093  0.1999
  135SAPE   O2214585   4.187   2.938  10.126  0.1290 -0.0271  0.1064
  135SAPE   C2214586   4.004   2.998   9.985 -0.3515 -0.3343  0.2260
  135SAPE   H2R14587   3.906   2.946   9.974  0.1494 -0.9913 -1.3689
  135SAPE   H2S14588   3.984   3.101  10.022 -2.6258  0.5460 -2.9893
  135SAPE    C314589   4.033   2.635  10.221 -0.4031 -0.3043 -0.5176
  135SAPE    HX14590   3.937   2.600  10.177 -0.6142  0.2509 -0.5021
  135SAPE    HY14591   4.058   2.567  10.305  0.0170  0.6646  0.1651
  135SAPE   O3114592   4.144   2.622  10.129  0.9604 -0.2993  0.4094
  135SAPE   C3114593   4.271   2.601  10.170  0.3247 -0.3621  0.0645
  135SAPE   O3214594   4.303   2.595  10.287  0.3719  0.2747 -0.0608
  135SAPE   C3214595   4.363   2.592  10.053 -0.3258 -0.0734 -0.0900
  135SAPE   H2X14596   4.458   2.548  10.090  1.1619  1.7902 -1.4779
  135SAPE   H2Y14597   4.385   2.693  10.013 -1.2362  0.7263  1.3481
  135SAPE   C2314598   4.093   2.984   9.850 -0.6672 -1.7167 -0.5146
  135SAPE   H3R14599   4.195   3.026   9.860 -1.0835 -0.9193  0.6412
  135SAPE   H3S14600   4.037   3.043   9.775 -0.4415 -0.7144  0.0854
  135SAPE   C2414601   4.115   2.839   9.809  0.1322  0.1068 -0.1201
  135SAPE   H4R14602   4.020   2.781   9.815 -0.7000  1.4917  0.5652
  135SAPE   H4S14603   4.183   2.782   9.876 -2.3346 -4.3225 -0.9711
  135SAPE   C2514604   4.187   2.835   9.679 -0.8084 -0.5128 -0.3199
  135SAPE   H5R14605   4.278   2.894   9.660  0.5311 -2.6480 -0.8976
  135SAPE   C2614606   4.150   2.766   9.575  0.3403  0.7702 -0.1383
  135SAPE   H6R14607   4.216   2.779   9.488 -0.1470 -1.6689 -0.9418
  135SAPE   C2714608   4.035   2.668   9.551 -0.5906  0.2005  0.3517
  135SAPE   H7R14609   3.950   2.714   9.498 -1.5896 -0.1537  1.5980
  135SAPE   H7S14610   3.997   2.630   9.648 -0.0225 -1.4478 -0.0232
  135SAPE   C2814611   4.073   2.540   9.487 -0.2163  0.7015  0.6096
  135SAPE   H8R14612   4.155   2.484   9.535  1.2881  1.1342 -1.3471
  135SAPE   C2914613   4.012   2.477   9.380 -0.6218 -0.5309  0.5903
  135SAPE   H9R14614   4.056   2.382   9.345  0.4143  0.0357  0.3325
  135SAPE  C21014615   3.911   2.541   9.287 -0.4259 -0.1374  0.0220
  135SAPE  H10R14616   3.842   2.611   9.340  0.9836  3.2992 -2.3103
  135SAPE  H10S14617   3.852   2.468   9.228  0.9835 -0.0758 -1.5305
  135SAPE  C21114618   3.986   2.611   9.178  0.3252  0.0788  0.1304
  135SAPE  H11R14619   4.095   2.593   9.171  0.7692  2.1465  1.1189
  135SAPE  C21214620   3.932   2.698   9.087 -0.7154 -0.4551  0.4942
  135SAPE  H12R14621   3.993   2.755   9.014 -1.6824 -0.8000 -0.6086
  135SAPE  C21314622   3.786   2.726   9.073  1.1889 -0.4687  0.3593
  135SAPE  H13R14623   3.768   2.832   9.103  0.7561 -0.7414  1.0936
  135SAPE  H13S14624   3.718   2.662   9.134  0.5843  2.1020  2.5999
  135SAPE  C21414625   3.745   2.715   8.926 -1.0195  0.5504 -0.5573
  135SAPE  H14R14626   3.780   2.619   8.886  0.7308  0.4537  1.0935
  135SAPE  C21514627   3.658   2.792   8.856  0.3379 -0.9285  0.1373
  135SAPE  H15R14628   3.634   2.781   8.749 -0.0612  0.4150  0.0794
  135SAPE  C21614629   3.591   2.910   8.911 -0.5074  0.1027  0.2986
  135SAPE  H16R14630   3.559   2.901   9.017 -0.7013 -0.8690  0.1664
  135SAPE  H16S14631   3.500   2.948   8.860 -1.3906 -1.1308  0.9141
  135SAPE  C21714632   3.680   3.036   8.913  0.2857 -0.3780  0.4595
  135SAPE  H17R14633   3.712   3.047   8.807 -2.2040 -2.9627 -0.7131
  135SAPE  H17S14634   3.778   3.027   8.965  1.8572  0.5109 -2.1523
  135SAPE  C21814635   3.596   3.158   8.968 -0.1309 -0.3197 -0.2437
  135SAPE  H18R14636   3.564   3.127   9.069 -2.6450 -0.4164 -1.0158
  135SAPE  H18S14637   3.504   3.192   8.915 -0.4067 -0.3616  0.2070
  135SAPE  C21914638   3.688   3.276   8.982  0.5493 -0.5338 -0.0643
  135SAPE  H19R14639   3.782   3.251   9.037  2.0787 -1.8759 -3.0650
  135SAPE  H19S14640   3.622   3.355   9.023  0.4011  0.7259 -2.5388
  135SAPE  C22014641   3.735   3.324   8.845  0.5813  0.6083 -0.3518
  135SAPE  H20R14642   3.804   3.248   8.802 -0.1635  0.0842 -0.6424
  135SAPE  H20S14643   3.790   3.419   8.863  2.1832  0.0858 -2.0986
  135SAPE  H20T14644   3.646   3.344   8.782  0.5795  0.3689 -0.4242
  135SAPE   C3314645   4.304   2.495   9.947  0.5863 -0.1358 -0.5431
  135SAPE   H3X14646   4.212   2.544   9.908  1.4032  1.1351 -0.9196
  135SAPE   H3Y14647   4.274   2.395   9.984 -0.2796 -0.5123 -2.1710
  135SAPE   C3414648   4.394   2.469   9.828  0.0379  0.4211  0.5038
  135SAPE   H4X14649   4.341   2.408   9.752  2.1890 -0.7576 -0.1569
  135SAPE   H4Y14650   4.476   2.406   9.870 -0.5749 -1.1458 -0.5622
  135SAPE   C3514651   4.468   2.580   9.759 -0.1938  0.1974 -0.7318
  135SAPE   H5X14652   4.530   2.634   9.834 -1.6319 -1.6349  1.9167
  135SAPE   H5Y14653   4.400   2.661   9.726  2.2917  2.8778  0.2888
  135SAPE   C3614654   4.551   2.529   9.637 -0.0579 -0.1369  0.2428
  135SAPE   H6X14655   4.631   2.456   9.660  0.8699  0.7188 -0.1981
  135SAPE   H6Y14656   4.596   2.612   9.580 -1.2795  0.1754 -0.2934
  135SAPE   C3714657   4.456   2.460   9.528 -0.3445 -0.1933  1.0395
  135SAPE   H7X14658   4.379   2.531   9.491 -1.3140 -0.1397  3.0462
  135SAPE   H7Y14659   4.405   2.372   9.572  0.2260 -0.5765  0.9408
  135SAPE   C3814660   4.535   2.403   9.412 -0.0172 -0.3369  0.4308
  135SAPE   H8X14661   4.465   2.341   9.353 -0.3243  0.0399  0.3953
  135SAPE   H8Y14662   4.619   2.336   9.441  0.0056 -1.1725 -1.4431
  135SAPE   C3914663   4.579   2.517   9.310  0.2394  0.4063  0.2111
  135SAPE   H9X14664   4.669   2.552   9.365 -0.0125 -2.2799  2.6199
  135SAPE   H9Y14665   4.500   2.594   9.296 -0.8441 -0.8330 -0.7954
  135SAPE  C31014666   4.627   2.463   9.178  0.4158 -1.1147 -0.5921
  135SAPE  H10X14667   4.565   2.381   9.134  0.9126 -3.0028  2.0116
  135SAPE  H10Y14668   4.731   2.428   9.196  1.9680  3.1504 -0.2736
  135SAPE  C31114669   4.638   2.575   9.076 -0.6912 -0.5146  0.3487
  135SAPE  H11X14670   4.709   2.658   9.098  0.8702 -1.0263 -2.3064
  135SAPE  H11Y14671   4.541   2.619   9.048 -0.2299  0.0505 -0.4015
  135SAPE  C31214672   4.707   2.518   8.948 -0.4374 -0.2205  0.0060
  135SAPE  H12X14673   4.633   2.458   8.889 -0.8576  0.3483 -0.0513
  135SAPE  H12Y14674   4.799   2.461   8.970  0.6864  2.0850  1.6501
  135SAPE  C31314675   4.750   2.632   8.850 -0.0594  0.3514 -0.0321
  135SAPE  H13X14676   4.819   2.694   8.912  0.1146  0.3303 -0.2038
  135SAPE  H13Y14677   4.659   2.693   8.839 -0.0600  0.7097  1.6779
  135SAPE  C31414678   4.834   2.590   8.727 -0.2594 -0.2422  0.2546
  135SAPE  H14X14679   4.842   2.479   8.727  0.6734 -0.2284  2.6479
  135SAPE  H14Y14680   4.937   2.629   8.741  0.8857 -2.4421 -1.4920
  135SAPE  C31514681   4.785   2.627   8.584 -0.1556 -0.4011 -0.1923
  135SAPE  H15X14682   4.856   2.603   8.503 -0.0447  0.3049 -0.3100
  135SAPE  H15Y14683   4.761   2.734   8.565 -0.6084 -0.7458 -1.6656
  135SAPE  C31614684   4.654   2.548   8.552  0.6982 -0.2429 -0.3803
  135SAPE  H16X14685   4.600   2.526   8.647 -2.2406  1.8804 -1.4299
  135SAPE  H16Y14686   4.673   2.445   8.513  1.3751  0.0168 -0.7497
  135SAPE  C31714687   4.559   2.609   8.454 -0.6646  0.7577 -0.7148
  135SAPE  H17X14688   4.508   2.687   8.516  1.5953  1.6776  0.0927
  135SAPE  H17Y14689   4.481   2.542   8.411 -1.7343  0.6726  1.2307
  135SAPE  C31814690   4.630   2.679   8.344  0.2855 -0.1427  0.0742
  135SAPE  H18X14691   4.564   2.676   8.255  0.3684 -0.4362  0.0188
  135SAPE  H18Y14692   4.713   2.610   8.317 -0.6220 -1.5018  0.6626
  135SAPE  H18Z14693   4.654   2.785   8.367 -1.1517  0.3945 -0.7394
  136SAPE     N14694   5.563   1.637  10.691  0.3802 -0.6892 -0.1800
  136SAPE   HN114695   5.548   1.731  10.735 -1.3867 -0.6566 -0.7717
  136SAPE   HN214696   5.538   1.568  10.764  0.5649 -2.4169 -1.6867
  136SAPE   HN314697   5.664   1.633  10.664  1.3506  3.0419  2.0958
  136SAPE   C1214698   5.475   1.614  10.566  0.1465 -0.1700 -0.6245
  136SAPE  H12A14699   5.511   1.521  10.517  1.1014 -0.3476  0.3662
  136SAPE  H12B14700   5.498   1.701  10.501  1.4523 -1.4934 -2.0002
  136SAPE   C1114701   5.323   1.619  10.602 -0.3212  0.6964 -0.3956
  136SAPE  H11A14702   5.298   1.537  10.672 -1.9315 -0.1718 -1.8803
  136SAPE  H11B14703   5.261   1.597  10.512  0.0440 -1.3304 -0.1958
  136SAPE     P14704   5.169   1.782  10.747 -0.2882  0.0187 -0.0810
  136SAPE   O1314705   5.153   1.675  10.846 -0.9020  0.5029 -0.5010
  136SAPE   O1414706   5.191   1.913  10.807 -0.5333 -0.1009  0.1934
  136SAPE   O1214707   5.285   1.748  10.649  0.0663 -0.1346  0.5076
  136SAPE   O1114708   5.039   1.796  10.654  0.1011  0.4567 -0.4721
  136SAPE    C114709   5.021   1.920  10.577  0.2051  0.5758  0.0398
  136SAPE    HA14710   4.915   1.951  10.585 -0.8506 -2.3820 -1.0036
  136SAPE    HB14711   5.078   2.001  10.628  1.7863 -0.0231 -0.7309
  136SAPE    C214712   5.053   1.897  10.433  0.3868  0.0944 -1.3840
  136SAPE    HS14713   5.164   1.898  10.424  0.7892  0.3562  2.1013
  136SAPE   O2114714   5.000   2.013  10.368  0.1529  0.1904 -0.6381
  136SAPE   C2114715   5.072   2.125  10.373 -0.8420 -0.1251  0.2137
  136SAPE   O2214716   5.183   2.131  10.423 -0.4273  0.1444 -0.1223
  136SAPE   C2214717   5.008   2.237  10.301  0.6383 -0.5756  0.2969
  136SAPE   H2R14718   4.898   2.227  10.296  0.5167  0.8924 -0.6056
  136SAPE   H2S14719   5.040   2.325  10.362  0.9023  0.3997 -1.1999
  136SAPE    C314720   4.997   1.762  10.378 -0.1553  0.4236 -0.6731
  136SAPE    HX14721   4.893   1.750  10.413  0.2554 -0.3328  0.3243
  136SAPE    HY14722   5.053   1.681  10.429  0.1998  1.4733  0.6513
  136SAPE   O3114723   5.004   1.755  10.235 -0.4307 -0.2247 -0.0591
  136SAPE   C3114724   5.119   1.706  10.195  0.7759 -0.1991  0.2041
  136SAPE   O3214725   5.210   1.660  10.262 -0.5067 -0.3488  1.0205
  136SAPE   C3214726   5.111   1.686  10.043  0.1193  0.3299  0.0612
  136SAPE   H2X14727   5.056   1.770   9.996 -1.0035 -1.0556 -1.1963
  136SAPE   H2Y14728   5.059   1.589  10.029 -0.4725  0.5563  0.6709
  136SAPE   C2314729   5.064   2.257  10.153 -0.0408 -0.0704  0.5579
  136SAPE   H3R14730   5.170   2.291  10.157  0.3029 -1.1233  0.5340
  136SAPE   H3S14731   5.004   2.344  10.117  1.3557  0.4636 -0.5844
  136SAPE   C2414732   5.036   2.137  10.061 -0.5762 -0.0176 -0.4987
  136SAPE   H4R14733   5.022   2.184   9.961  2.1249  0.5097 -0.7044
  136SAPE   H4S14734   4.943   2.084  10.091 -0.8525  0.3229 -0.7403
  136SAPE   C2514735   5.157   2.044  10.067 -0.6741  0.1586 -0.6172
  136SAPE   H5R14736   5.163   1.982  10.157  1.3210  1.7868  0.4554
  136SAPE   C2614737   5.267   2.043   9.986 -0.0701 -0.1793 -0.3982
  136SAPE   H6R14738   5.337   1.964  10.015  0.3561  0.2738 -0.1683
  136SAPE   C2714739   5.304   2.111   9.854 -0.1041  0.4310 -0.3744
  136SAPE   H7R14740   5.204   2.138   9.814 -1.3016 -3.0635 -0.1088
  136SAPE   H7S14741   5.363   2.042   9.790  1.0930  2.0197 -1.0486
  136SAPE   C2814742   5.384   2.242   9.875  0.3096 -0.7520  0.2146
  136SAPE   H8R14743   5.352   2.306   9.958 -0.4997  0.3392 -0.8933
  136SAPE   C2914744   5.494   2.276   9.806  0.1394 -0.0652 -0.0993
  136SAPE   H9R14745   5.534   2.377   9.826  0.7879 -0.5789  1.2469
  136SAPE  C21014746   5.550   2.200   9.694  0.7442  0.0887  0.4662
  136SAPE  H10R14747   5.613   2.269   9.634 -1.0873  0.8859 -0.6275
  136SAPE  H10S14748   5.463   2.183   9.627  1.0953 -0.4543  0.1457
  136SAPE  C21114749   5.622   2.066   9.728  1.2392  0.2389 -0.4902
  136SAPE  H11R14750   5.628   2.046   9.836  0.3566 -0.8500 -0.6310
  136SAPE  C21214751   5.667   1.975   9.638 -0.9526  0.2465 -0.1744
  136SAPE  H12R14752   5.718   1.883   9.670  0.1219  1.3802  1.5046
  136SAPE  C21314753   5.666   1.986   9.484  0.0801  0.2489  0.2079
  136SAPE  H13R14754   5.769   1.988   9.443  0.0263  1.2588  0.1070
  136SAPE  H13S14755   5.625   2.079   9.439 -2.1683 -0.9581 -0.3939
  136SAPE  C21414756   5.592   1.866   9.433 -0.6933  0.2219 -0.3648
  136SAPE  H14R14757   5.491   1.853   9.473 -0.1025 -2.2821  0.5121
  136SAPE  C21514758   5.643   1.775   9.349 -0.8501  0.3757 -1.1244
  136SAPE  H15R14759   5.591   1.679   9.335  0.4376 -1.2745  3.5037
  136SAPE  C21614760   5.781   1.773   9.285 -0.7510 -0.4691 -1.0873
  136SAPE  H16R14761   5.859   1.747   9.360 -1.5436 -0.0597 -0.0967
  136SAPE  H16S14762   5.816   1.868   9.239  1.4044 -0.6531  0.0407
  136SAPE  C21714763   5.790   1.665   9.175  0.5370 -0.7049 -0.2458
  136SAPE  H17R14764   5.783   1.567   9.227  2.0597 -0.4588  0.4655
  136SAPE  H17S14765   5.884   1.670   9.115 -1.0351  0.5598 -2.7583
  136SAPE  C21814766   5.673   1.668   9.072 -0.0732 -0.1845 -0.1142
  136SAPE  H18R14767   5.633   1.770   9.060  3.0008  1.0084 -1.4677
  136SAPE  H18S14768   5.597   1.612   9.130  1.1566  1.2631  3.0921
  136SAPE  C21914769   5.722   1.602   8.944 -0.2887  0.1795  0.4553
  136SAPE  H19R14770   5.727   1.492   8.955  1.1463  0.4444  4.1469
  136SAPE  H19S14771   5.826   1.636   8.923 -0.3963 -0.4131 -1.1063
  136SAPE  C22014772   5.635   1.643   8.831 -0.5429 -0.7682 -0.0687
  136SAPE  H20R14773   5.692   1.602   8.744 -2.5453 -2.5877 -0.5881
  136SAPE  H20S14774   5.603   1.750   8.828 -3.0001 -1.4221 -3.2320
  136SAPE  H20T14775   5.542   1.584   8.836 -1.8195  0.9703 -1.7153
  136SAPE   C3314776   5.250   1.671   9.968  0.4002  0.4429  0.4635
  136SAPE   H3X14777   5.291   1.571   9.994 -2.3868 -0.3943  2.1616
  136SAPE   H3Y14778   5.322   1.751   9.995  1.3937 -1.3716  3.9031
  136SAPE   C3414779   5.228   1.659   9.821  0.8681 -0.3201 -0.7738
  136SAPE   H4X14780   5.172   1.747   9.782  1.3961 -0.0717 -0.9816
  136SAPE   H4Y14781   5.188   1.561   9.787  1.0827 -0.5962 -0.2492
  136SAPE   C3514782   5.369   1.673   9.748  0.1789 -0.6912 -0.1348
  136SAPE   H5X14783   5.444   1.619   9.811 -0.3212 -1.2546 -0.0117
  136SAPE   H5Y14784   5.407   1.777   9.742  1.3406 -1.1868 -2.4234
  136SAPE   C3614785   5.363   1.615   9.602  0.1161  0.8291  0.5117
  136SAPE   H6X14786   5.349   1.505   9.610 -1.0465  1.0098  1.1722
  136SAPE   H6Y14787   5.469   1.621   9.568 -0.2936  1.8804 -0.6370
  136SAPE   C3714788   5.264   1.683   9.504 -0.2779 -0.1439  0.0229
  136SAPE   H7X14789   5.261   1.793   9.519 -1.9904 -0.3458  1.4646
  136SAPE   H7Y14790   5.157   1.667   9.528 -0.4338  1.8823  0.8341
  136SAPE   C3814791   5.289   1.633   9.361  0.1702 -0.1317 -0.5172
  136SAPE   H8X14792   5.242   1.533   9.354  1.0317 -0.5866  0.0240
  136SAPE   H8Y14793   5.396   1.614   9.338  0.6433  0.3366  1.2171
  136SAPE   C3914794   5.207   1.717   9.257 -0.7442  0.3996 -0.6948
  136SAPE   H9X14795   5.245   1.821   9.246  1.1666 -0.1846 -0.1045
  136SAPE   H9Y14796   5.100   1.708   9.283  0.1179  1.0279  3.9043
  136SAPE  C31014797   5.222   1.655   9.119 -0.0627 -0.3076  0.0047
  136SAPE  H10X14798   5.196   1.547   9.112  0.5952 -0.3665 -2.3385
  136SAPE  H10Y14799   5.328   1.652   9.088 -0.3485 -2.6778 -0.9368
  136SAPE  C31114800   5.133   1.735   9.023 -1.0968  0.5680  0.5341
  136SAPE  H11X14801   5.116   1.843   9.042  0.3882  1.1448 -1.0822
  136SAPE  H11Y14802   5.037   1.681   9.035 -0.2155 -1.3498 -0.6199
  136SAPE  C31214803   5.164   1.701   8.875  0.1237  0.7362 -0.1647
  136SAPE  H12X14804   5.066   1.678   8.828 -0.4171  0.3868  1.0744
  136SAPE  H12Y14805   5.240   1.620   8.866  1.7499  1.8193  2.4952
  136SAPE  C31314806   5.228   1.821   8.797  0.2294 -0.5921 -0.2975
  136SAPE  H13X14807   5.320   1.786   8.746  0.0119 -0.7381 -0.5967
  136SAPE  H13Y14808   5.266   1.891   8.874 -0.2865  0.8477 -1.3186
  136SAPE  C31414809   5.134   1.896   8.700  1.1559  0.2223  0.2847
  136SAPE  H14X14810   5.174   1.995   8.671 -0.7310  1.2141  0.9585
  136SAPE  H14Y14811   5.044   1.920   8.760  0.3432 -0.8098 -0.4912
  136SAPE  C31514812   5.099   1.822   8.574  0.2469 -0.5009  0.5369
  136SAPE  H15X14813   5.045   1.727   8.597  1.0292 -0.9313  0.6341
  136SAPE  H15Y14814   5.195   1.799   8.524  0.6543  0.7139  0.7234
  136SAPE  C31614815   5.018   1.905   8.472 -0.0831 -0.0327 -0.0029
  136SAPE  H16X14816   5.073   1.997   8.442  1.4045 -0.3542  1.5382
  136SAPE  H16Y14817   4.923   1.952   8.503 -0.6264  0.4676 -2.2716
  136SAPE  C31714818   4.986   1.826   8.345  0.4786 -0.6476 -0.4693
  136SAPE  H17X14819   4.948   1.728   8.379 -0.5216  1.1177  4.2595
  136SAPE  H17Y14820   5.075   1.819   8.280 -0.8042  2.0658 -2.7531
  136SAPE  C31814821   4.878   1.900   8.265 -0.0671 -0.1017 -0.1348
  136SAPE  H18X14822   4.930   1.988   8.221 -0.3615  0.2440  0.2036
  136SAPE  H18Y14823   4.799   1.935   8.335 -0.0359  0.9357 -0.5976
  136SAPE  H18Z14824   4.836   1.837   8.184  0.3850  0.9215 -1.1997
  137SAPE     N14825   3.608   5.545  10.710 -0.3210 -0.0052 -0.0926
  137SAPE   HN114826   3.549   5.468  10.747 -0.4411 -0.3824 -1.0465
  137SAPE   HN214827   3.553   5.608  10.648  0.3593  0.2035 -0.4980
  137SAPE   HN314828   3.671   5.492  10.646  3.2456 -1.5003  4.1408
  137SAPE   C1214829   3.680   5.633  10.814 -0.4110 -0.2753 -0.8532
  137SAPE  H12A14830   3.738   5.565  10.880 -0.4987  0.6285  0.1875
  137SAPE  H12B14831   3.608   5.682  10.883  2.3199  0.9241  1.3715
  137SAPE   C1114832   3.779   5.744  10.764  0.7993 -0.1900  0.0080
  137SAPE  H11A14833   3.805   5.812  10.848 -2.2299  1.0702  0.0454
  137SAPE  H11B14834   3.718   5.809  10.697  0.7911 -0.6257 -0.4127
  137SAPE     P14835   4.006   5.769  10.642  0.6501 -0.3783 -0.5542
  137SAPE   O1314836   4.075   5.845  10.748 -0.2235 -0.5357  0.0001
  137SAPE   O1414837   4.092   5.683  10.559 -0.5502 -0.4811 -0.1680
  137SAPE   O1214838   3.892   5.681  10.710  0.3448 -0.0820  0.1029
  137SAPE   O1114839   3.921   5.869  10.554 -0.0250  0.0336 -0.2770
  137SAPE    C114840   3.988   5.917  10.435  0.2081 -0.0446 -0.1883
  137SAPE    HA14841   3.953   6.022  10.420 -0.6240 -0.3572 -0.4985
  137SAPE    HB14842   4.098   5.910  10.446  0.2398 -1.2283 -1.2032
  137SAPE    C214843   3.928   5.839  10.311  0.3805  0.1237  0.0744
  137SAPE    HS14844   3.984   5.742  10.312 -1.3561 -0.9535 -1.1960
  137SAPE   O2114845   3.946   5.912  10.184 -0.2348 -0.3410 -0.6458
  137SAPE   C2114846   4.074   5.926  10.150  0.5600 -0.9932  0.0322
  137SAPE   O2214847   4.169   5.880  10.210  0.3060  0.3697  0.1648
  137SAPE   C2214848   4.080   6.032  10.031 -0.3720  0.1966 -0.1781
  137SAPE   H2R14849   4.024   5.986   9.947 -1.4497 -0.6095  0.9576
  137SAPE   H2S14850   4.029   6.122  10.069 -1.3313 -0.5989  0.4758
  137SAPE    C314851   3.778   5.806  10.325 -0.3142 -0.0288  0.2904
  137SAPE    HX14852   3.723   5.901  10.338  0.9151  1.0076 -1.5153
  137SAPE    HY14853   3.746   5.732  10.401  2.8326 -2.4870 -0.5667
  137SAPE   O3114854   3.730   5.758  10.195  0.1093 -0.5350  0.0247
  137SAPE   C3114855   3.720   5.624  10.193  0.2337 -0.0858 -0.5256
  137SAPE   O3214856   3.756   5.548  10.279 -0.8256 -0.0834 -0.0427
  137SAPE   C3214857   3.687   5.587  10.049  0.4880  1.2441 -0.0410
  137SAPE   H2X14858   3.765   5.638   9.988  0.8153  0.7355 -0.0529
  137SAPE   H2Y14859   3.587   5.615  10.009  0.5377  1.1956 -0.1993
  137SAPE   C2314860   4.220   6.048   9.978 -0.0895 -0.0128 -0.3566
  137SAPE   H3R14861   4.290   6.066  10.063  2.3191 -2.6744 -1.6211
  137SAPE   H3S14862   4.227   6.136   9.912 -1.1171 -0.1852 -0.7256
  137SAPE   C2414863   4.271   5.928   9.896 -0.2969 -0.3589 -0.1524
  137SAPE   H4R14864   4.196   5.916   9.814 -0.1650  4.9256 -1.4002
  137SAPE   H4S14865   4.288   5.836   9.955  2.4910  0.1816 -0.0088
  137SAPE   C2514866   4.405   5.950   9.828 -0.4917  0.5952 -0.8487
  137SAPE   H5R14867   4.494   5.985   9.882  1.9376  0.9309 -4.7607
  137SAPE   C2614868   4.442   5.925   9.698  0.7173 -0.0576 -0.3167
  137SAPE   H6R14869   4.543   5.948   9.660  0.2232  1.2481 -0.9102
  137SAPE   C2714870   4.358   5.884   9.579 -0.7120 -0.2680  0.4623
  137SAPE   H7R14871   4.377   5.964   9.505 -0.5180 -0.9670 -0.2562
  137SAPE   H7S14872   4.250   5.892   9.601 -0.8938 -0.7879 -0.2027
  137SAPE   C2814873   4.400   5.747   9.539 -0.8312  1.6035 -0.4130
  137SAPE   H8R14874   4.499   5.738   9.491 -0.7935 -4.2865 -0.0312
  137SAPE   C2914875   4.343   5.630   9.573 -0.5784  0.2427  0.2774
  137SAPE   H9R14876   4.386   5.533   9.543 -1.3696  0.3356 -1.2362
  137SAPE  C21014877   4.213   5.618   9.654 -0.2476 -0.6110  0.1931
  137SAPE  H10R14878   4.130   5.589   9.587 -0.0771  1.3896 -0.9485
  137SAPE  H10S14879   4.187   5.722   9.681 -0.2030 -0.3104 -0.8724
  137SAPE  C21114880   4.224   5.532   9.771  0.0633  0.4454  0.5601
  137SAPE  H11R14881   4.264   5.579   9.862  3.4784  1.0810 -1.0988
  137SAPE  C21214882   4.211   5.392   9.772  0.1720 -0.0886  0.6709
  137SAPE  H12R14883   4.192   5.344   9.869 -0.5376 -1.6675 -0.2072
  137SAPE  C21314884   4.169   5.309   9.656  0.0663 -0.5405 -0.0980
  137SAPE  H13R14885   4.074   5.351   9.616  1.3208  1.6836 -0.9367
  137SAPE  H13S14886   4.142   5.209   9.696  1.9552 -1.1925 -0.3346
  137SAPE  C21414887   4.274   5.286   9.549 -0.1110 -0.2819 -0.7857
  137SAPE  H14R14888   4.375   5.277   9.591 -0.9933  1.7539  2.1336
  137SAPE  C21514889   4.247   5.274   9.418 -0.1062 -0.4681  0.9471
  137SAPE  H15R14890   4.339   5.267   9.357  3.2059  0.8759  5.2519
  137SAPE  C21614891   4.115   5.289   9.348 -0.9514 -0.5360 -0.1682
  137SAPE  H16R14892   4.048   5.333   9.426  1.0801 -1.2090  2.0885
  137SAPE  H16S14893   4.072   5.192   9.317  0.1132 -0.8562 -0.6748
  137SAPE  C21714894   4.118   5.384   9.220  0.3228  0.1548 -0.0480
  137SAPE  H17R14895   4.009   5.396   9.201  0.3250  1.6442  0.7253
  137SAPE  H17S14896   4.175   5.331   9.141 -0.5351 -1.0833  0.1481
  137SAPE  C21814897   4.178   5.525   9.239 -0.2797  0.1635 -0.4418
  137SAPE  H18R14898   4.288   5.529   9.251 -0.3017 -1.0565  0.2739
  137SAPE  H18S14899   4.133   5.558   9.335  0.2789 -1.0694  0.2547
  137SAPE  C21914900   4.127   5.634   9.141  0.4083 -0.0221 -0.0852
  137SAPE  H19R14901   4.016   5.633   9.153  0.4633 -0.3311  0.4124
  137SAPE  H19S14902   4.151   5.601   9.038 -0.8467  0.6213 -0.6009
  137SAPE  C22014903   4.186   5.768   9.171  0.4211 -0.7742 -0.6967
  137SAPE  H20R14904   4.135   5.847   9.111  2.1388  2.0397  1.2996
  137SAPE  H20S14905   4.294   5.776   9.146  0.7050 -1.7854  0.1813
  137SAPE  H20T14906   4.168   5.797   9.277 -2.9834  1.0636 -1.6009
  137SAPE   C3314907   3.697   5.430  10.035  0.2969  0.2290  0.1691
  137SAPE   H3X14908   3.619   5.387  10.102 -0.7128  0.6859 -0.6782
  137SAPE   H3Y14909   3.788   5.386  10.081  0.1712  0.4198  0.6008
  137SAPE   C3414910   3.687   5.370   9.897 -0.2213 -0.9042  0.6941
  137SAPE   H4X14911   3.580   5.375   9.869  0.1492  2.2096 -0.5631
  137SAPE   H4Y14912   3.712   5.262   9.904 -0.8123 -1.2711 -1.8739
  137SAPE   C3514913   3.798   5.431   9.807  0.3646  0.7100  0.8347
  137SAPE   H5X14914   3.902   5.399   9.828  0.2065 -0.1380  0.3734
  137SAPE   H5Y14915   3.801   5.542   9.805 -1.1696  0.7756 -0.5176
  137SAPE   C3614916   3.756   5.392   9.665  0.2094  0.3570  0.0173
  137SAPE   H6X14917   3.648   5.417   9.657  0.0354 -0.0851  0.9439
  137SAPE   H6Y14918   3.781   5.286   9.644  0.9319  0.2260  1.4503
  137SAPE   C3714919   3.815   5.492   9.562  0.4720 -0.1307  0.4275
  137SAPE   H7X14920   3.926   5.501   9.553  0.4904  0.4551  1.1533
  137SAPE   H7Y14921   3.781   5.595   9.586 -0.9282 -0.9915  2.3871
  137SAPE   C3814922   3.757   5.468   9.423  0.5147  0.3399  0.1208
  137SAPE   H8X14923   3.647   5.466   9.440 -0.1749  1.0246 -3.3390
  137SAPE   H8Y14924   3.791   5.370   9.382  1.8076  0.4801  0.8181
  137SAPE   C3914925   3.777   5.575   9.317 -0.7993 -0.0420  0.7948
  137SAPE   H9X14926   3.887   5.583   9.300 -0.7558 -0.1930  0.9954
  137SAPE   H9Y14927   3.744   5.677   9.344 -2.8850 -0.0892 -1.2426
  137SAPE  C31014928   3.703   5.549   9.179 -0.2448 -0.7393 -0.3329
  137SAPE  H10X14929   3.734   5.636   9.117 -0.3706 -0.8246 -0.5151
  137SAPE  H10Y14930   3.593   5.560   9.191 -0.2979 -2.3501  1.0069
  137SAPE  C31114931   3.739   5.424   9.102  0.0236 -0.3526  0.3489
  137SAPE  H11X14932   3.725   5.330   9.159 -0.9177  0.8756  2.2724
  137SAPE  H11Y14933   3.847   5.434   9.079 -0.1027  0.6347  0.1327
  137SAPE  C31214934   3.667   5.411   8.969 -0.3604 -0.4382 -0.0680
  137SAPE  H12X14935   3.563   5.380   8.995 -0.1484  0.4835  2.0908
  137SAPE  H12Y14936   3.715   5.333   8.907  0.3624  1.2257 -1.6841
  137SAPE  C31314937   3.674   5.542   8.887  0.3795 -0.2787  0.0794
  137SAPE  H13X14938   3.776   5.586   8.882  0.3470  0.1254  1.9976
  137SAPE  H13Y14939   3.620   5.625   8.938  0.1445  0.0413 -0.6708
  137SAPE  C31414940   3.607   5.522   8.743 -0.3558 -1.1250 -0.1580
  137SAPE  H14X14941   3.533   5.440   8.757 -2.3875  0.2620 -2.0671
  137SAPE  H14Y14942   3.686   5.487   8.673  1.1181  1.2899  0.1564
  137SAPE  C31514943   3.538   5.648   8.685  0.2942 -0.7012  0.5285
  137SAPE  H15X14944   3.612   5.722   8.648  1.4065 -1.9142  0.2573
  137SAPE  H15Y14945   3.481   5.693   8.769  0.2677  1.2622 -0.4806
  137SAPE  C31614946   3.441   5.607   8.564 -0.3966 -0.4199 -0.2670
  137SAPE  H16X14947   3.347   5.561   8.602 -0.0574 -1.5000 -0.6808
  137SAPE  H16Y14948   3.495   5.540   8.493 -2.0532 -1.8132 -0.2788
  137SAPE  C31714949   3.411   5.728   8.474 -0.1783  0.4217 -0.3185
  137SAPE  H17X14950   3.371   5.692   8.377 -0.0616  2.2516 -1.0779
  137SAPE  H17Y14951   3.511   5.770   8.448 -0.1687  0.3800 -0.3472
  137SAPE  C31814952   3.324   5.833   8.534  0.0225  0.6027 -0.0656
  137SAPE  H18X14953   3.217   5.804   8.540 -0.4392  1.6495 -2.1941
  137SAPE  H18Y14954   3.321   5.928   8.478 -1.7309  0.6560  0.0682
  137SAPE  H18Z14955   3.368   5.845   8.635 -1.9994  0.3354  0.8860
  138SAPE     N14956   6.845   4.384  10.744  0.8169  0.3330 -0.1151
  138SAPE   HN114957   6.745   4.367  10.767  0.5187  1.1636 -0.7711
  138SAPE   HN214958   6.837   4.379  10.640 -1.9356  0.4278  0.0210
  138SAPE   HN314959   6.902   4.306  10.781  0.4572 -0.5167 -1.2486
  138SAPE   C1214960   6.894   4.518  10.792  0.1068 -0.0612 -0.0224
  138SAPE  H12A14961   6.821   4.550  10.869  0.0838 -1.8264  0.7216
  138SAPE  H12B14962   6.884   4.583  10.702  0.6220 -1.0159 -0.7851
  138SAPE   C1114963   7.027   4.500  10.861  0.6447 -0.2844  0.3906
  138SAPE  H11A14964   6.998   4.433  10.945 -0.6646  1.1788  1.1607
  138SAPE  H11B14965   7.067   4.595  10.902  1.6775  0.5969 -2.3831
  138SAPE     P14966   7.230   4.532  10.698  0.4285  0.1556 -0.4050
  138SAPE   O1314967   7.230   4.668  10.750 -0.2254 -0.1879  0.3579
  138SAPE   O1414968   7.358   4.468  10.697  0.1124  0.5200  0.3283
  138SAPE   O1214969   7.120   4.440  10.770 -0.4514  0.2081 -0.2038
  138SAPE   O1114970   7.167   4.549  10.550  0.0514  0.6745  0.0964
  138SAPE    C114971   7.150   4.418  10.477 -0.4172 -0.1591 -0.2496
  138SAPE    HA14972   7.194   4.325  10.519  3.1454  0.1298 -2.7989
  138SAPE    HB14973   7.045   4.404  10.445  0.1352 -1.5995 -1.5469
  138SAPE    C214974   7.215   4.432  10.333  0.5769 -0.0296  0.0767
  138SAPE    HS14975   7.322   4.446  10.359  0.4146 -0.7490  1.2178
  138SAPE   O2114976   7.154   4.545  10.267 -0.2020  0.5942 -0.1541
  138SAPE   C2114977   7.229   4.599  10.180  0.1910  0.0207  0.1288
  138SAPE   O2214978   7.348   4.584  10.163  0.5340 -0.5514  0.0340
  138SAPE   C2214979   7.143   4.688  10.090  0.4267 -0.0691  0.1710
  138SAPE   H2R14980   7.036   4.692  10.120  0.3090 -2.2368  0.2564
  138SAPE   H2S14981   7.193   4.786  10.100  0.8046 -0.3768  1.6200
  138SAPE    C314982   7.199   4.296  10.244 -0.6121  0.2829  0.1783
  138SAPE    HX14983   7.091   4.279  10.225 -0.4971  0.8012 -1.0355
  138SAPE    HY14984   7.243   4.216  10.307  0.6285 -0.1943 -1.2248
  138SAPE   O3114985   7.267   4.302  10.117 -0.2738 -0.8193  0.7379
  138SAPE   C3114986   7.399   4.295  10.110 -0.0179  0.2555  0.1940
  138SAPE   O3214987   7.477   4.269  10.201  0.2562 -0.2606 -0.0876
  138SAPE   C3214988   7.437   4.289   9.960  0.1040  0.0284 -0.6216
  138SAPE   H2X14989   7.539   4.247   9.974  0.4062  0.8658 -0.3084
  138SAPE   H2Y14990   7.448   4.389   9.913  2.9746 -0.4968 -1.2711
  138SAPE   C2314991   7.140   4.646   9.943  0.3425 -0.6027 -0.5533
  138SAPE   H3R14992   7.091   4.549   9.925  1.0032 -1.2335  0.8670
  138SAPE   H3S14993   7.239   4.637   9.893 -0.7260  0.2582 -2.9927
  138SAPE   C2414994   7.070   4.757   9.849  0.4165 -0.2269  0.6745
  138SAPE   H4R14995   7.103   4.746   9.744 -1.1711 -0.3026  0.1574
  138SAPE   H4S14996   7.084   4.861   9.884  2.4087 -0.5291  0.9165
  138SAPE   C2514997   6.924   4.733   9.860  0.5447  0.6802  0.5606
  138SAPE   H5R14998   6.883   4.755   9.959 -0.2659  0.0737  0.3660
  138SAPE   C2614999   6.836   4.676   9.769  0.2277 -0.0815  0.3091
  138SAPE   H6R15000   6.732   4.661   9.804 -0.0011  0.5378 -0.0886
  138SAPE   C2715001   6.864   4.614   9.633 -0.0253  0.8033  0.6487
  138SAPE   H7R15002   6.790   4.532   9.623 -1.4856  1.6917  3.2038
  138SAPE   H7S15003   6.960   4.558   9.627 -0.0066  0.9754 -1.5495
  138SAPE   C2815004   6.859   4.716   9.525  0.1202  0.1817  0.0196
  138SAPE   H8R15005   6.874   4.815   9.570 -0.9554  0.3421  0.0452
  138SAPE   C2915006   6.829   4.702   9.395  0.1515  0.2373 -0.1547
  138SAPE   H9R15007   6.831   4.786   9.324  1.5752  1.2658  1.0077
  138SAPE  C21015008   6.790   4.568   9.340 -0.5630  1.6039  0.4111
  138SAPE  H10R15009   6.746   4.587   9.240 -1.3993 -1.3368  0.1212
  138SAPE  H10S15010   6.709   4.520   9.399  0.6414  1.0085  1.6342
  138SAPE  C21115011   6.891   4.456   9.328 -0.6490 -0.1412 -0.1170
  138SAPE  H11R15012   6.984   4.473   9.384  0.1593 -2.1849 -0.7511
  138SAPE  C21215013   6.883   4.349   9.243 -0.2690 -0.0941  0.1507
  138SAPE  H12R15014   6.978   4.296   9.226  0.9650  3.0055 -4.0028
  138SAPE  C21315015   6.770   4.331   9.142  0.0481  0.0892 -0.6146
  138SAPE  H13R15016   6.681   4.387   9.179 -0.1246 -0.6743  0.1776
  138SAPE  H13S15017   6.753   4.222   9.125 -1.1322  0.2780 -0.7080
  138SAPE  C21415018   6.791   4.401   9.010 -0.4206  0.6720 -0.3143
  138SAPE  H14R15019   6.849   4.494   9.019  0.3316  0.0311  2.8609
  138SAPE  C21515020   6.740   4.373   8.891 -0.6046  0.4726 -0.2561
  138SAPE  H15R15021   6.762   4.444   8.810  1.5962  1.7510  1.3556
  138SAPE  C21615022   6.630   4.272   8.866  0.4569  0.0605  1.0064
  138SAPE  H16R15023   6.540   4.274   8.931 -0.2533 -0.4541  0.0686
  138SAPE  H16S15024   6.680   4.175   8.886 -0.3664 -0.9614 -1.4514
  138SAPE  C21715025   6.584   4.272   8.720  0.5373 -0.2413 -0.3483
  138SAPE  H17R15026   6.680   4.264   8.665  1.7946 -2.5638  1.9240
  138SAPE  H17S15027   6.537   4.371   8.700 -1.3156 -0.6605  1.5837
  138SAPE  C21815028   6.487   4.154   8.697  0.1391 -0.3933  0.1278
  138SAPE  H18R15029   6.399   4.165   8.764  0.0446  1.0410 -0.1903
  138SAPE  H18S15030   6.542   4.061   8.722  0.4859  0.2025  1.7689
  138SAPE  C21915031   6.434   4.147   8.555 -0.8993 -0.1466  0.1061
  138SAPE  H19R15032   6.365   4.061   8.543 -0.9647 -0.0387 -0.3189
  138SAPE  H19S15033   6.517   4.128   8.484 -0.0988  1.8174  0.4294
  138SAPE  C22015034   6.359   4.277   8.514  0.1497 -0.4955 -0.1337
  138SAPE  H20R15035   6.321   4.270   8.410  2.0908  1.1328 -1.0288
  138SAPE  H20S15036   6.430   4.363   8.509 -0.1783 -0.2894 -1.9266
  138SAPE  H20T15037   6.283   4.285   8.594 -0.1263 -0.4644 -0.3995
  138SAPE   C3315038   7.344   4.197   9.870 -0.2246  0.4993  0.2483
  138SAPE   H3X15039   7.249   4.255   9.859 -0.9923 -0.6163  0.8086
  138SAPE   H3Y15040   7.325   4.102   9.924 -1.5608 -0.7633 -2.2346
  138SAPE   C3415041   7.398   4.183   9.721  0.7139  0.3227  0.4633
  138SAPE   H4X15042   7.348   4.094   9.678  2.2126 -0.0122 -0.6407
  138SAPE   H4Y15043   7.508   4.172   9.721  0.6327 -0.6798 -0.5637
  138SAPE   C3515044   7.367   4.308   9.642 -0.2130 -0.5025 -0.1112
  138SAPE   H5X15045   7.427   4.397   9.671  0.5981 -0.9610 -0.3518
  138SAPE   H5Y15046   7.260   4.338   9.653 -1.2568 -3.3075 -1.6644
  138SAPE   C3615047   7.371   4.282   9.494 -0.1739 -0.3532  0.4632
  138SAPE   H6X15048   7.309   4.195   9.462  0.0537 -0.1753 -0.4889
  138SAPE   H6Y15049   7.471   4.249   9.457 -0.4463 -3.4510  2.1454
  138SAPE   C3715050   7.338   4.403   9.405  0.1930  0.5492  0.4549
  138SAPE   H7X15051   7.418   4.481   9.406  0.4183  0.3198  0.8138
  138SAPE   H7Y15052   7.254   4.452   9.457 -1.3788 -0.5373 -0.9718
  138SAPE   C3815053   7.303   4.370   9.264 -0.3151 -0.2801 -0.2437
  138SAPE   H8X15054   7.231   4.285   9.273 -1.7574  0.7191 -1.6893
  138SAPE   H8Y15055   7.393   4.334   9.210  0.5720  2.9282 -1.0950
  138SAPE   C3915056   7.238   4.478   9.174  0.1018  0.0362  0.0548
  138SAPE   H9X15057   7.308   4.562   9.154  1.9057 -1.6138 -0.8533
  138SAPE   H9Y15058   7.143   4.510   9.221  0.1609  1.2282 -0.6058
  138SAPE  C31015059   7.213   4.415   9.032  0.6889  0.0161  0.7416
  138SAPE  H10X15060   7.124   4.348   9.034 -0.3132  1.2375 -0.7483
  138SAPE  H10Y15061   7.299   4.354   8.999  0.5693 -0.4555  1.2894
  138SAPE  C31115062   7.169   4.528   8.938  0.4851 -0.0882 -0.7683
  138SAPE  H11X15063   7.251   4.603   8.928  0.5920 -0.1082 -0.0958
  138SAPE  H11Y15064   7.092   4.588   8.991  2.4179  1.4335  0.4489
  138SAPE  C31215065   7.128   4.471   8.802 -0.4327  0.4020 -0.5513
  138SAPE  H12X15066   7.032   4.418   8.819  1.1041 -2.6581 -0.7891
  138SAPE  H12Y15067   7.192   4.396   8.751  0.5771 -1.2406  2.8972
  138SAPE  C31315068   7.114   4.579   8.698  1.1413  0.8031  0.6154
  138SAPE  H13X15069   7.068   4.674   8.735 -1.1148 -0.5600  1.4710
  138SAPE  H13Y15070   7.052   4.550   8.610  0.6400 -0.0021  1.2283
  138SAPE  C31415071   7.251   4.616   8.633 -0.6218  0.7741 -0.2729
  138SAPE  H14X15072   7.335   4.620   8.706  0.3622 -1.1663 -1.2115
  138SAPE  H14Y15073   7.253   4.720   8.595  0.4685  0.9341  0.1946
  138SAPE  C31515074   7.284   4.518   8.511  0.0605 -0.1446 -0.4070
  138SAPE  H15X15075   7.216   4.538   8.425  0.6134  0.2379 -0.7674
  138SAPE  H15Y15076   7.270   4.409   8.529 -0.8496 -0.1133 -0.8823
  138SAPE  C31615077   7.428   4.540   8.466  0.0407  0.5962 -0.8055
  138SAPE  H16X15078   7.460   4.463   8.393 -0.1702  0.7184 -1.0289
  138SAPE  H16Y15079   7.502   4.532   8.549 -1.8497  1.3789  1.0692
  138SAPE  C31715080   7.439   4.677   8.387  0.4198  0.1232 -0.4535
  138SAPE  H17X15081   7.396   4.755   8.453  1.1514 -1.4476  2.0154
  138SAPE  H17Y15082   7.368   4.672   8.302 -1.0860 -1.1327  0.8230
  138SAPE  C31815083   7.583   4.717   8.362  0.0266  0.0650 -0.4869
  138SAPE  H18X15084   7.634   4.626   8.324 -3.3638 -2.8135  1.1811
  138SAPE  H18Y15085   7.634   4.738   8.458 -1.2407 -0.8570  0.4294
  138SAPE  H18Z15086   7.590   4.799   8.288  1.0440 -0.3658 -0.8790
  139SAPE     N15087   1.683   2.856  10.616  0.0653 -0.0702 -0.3145
  139SAPE   HN115088   1.683   2.757  10.649  1.9918  0.2000  0.6516
  139SAPE   HN215089   1.757   2.907  10.667 -0.8047  3.0624 -1.9335
  139SAPE   HN315090   1.589   2.889  10.646 -0.4053 -0.3799 -1.3780
  139SAPE   C1215091   1.698   2.857  10.463 -0.1763  0.5120  0.1587
  139SAPE  H12A15092   1.618   2.799  10.413 -0.1313  0.5142  0.0833
  139SAPE  H12B15093   1.797   2.810  10.441 -0.4836 -0.1751  0.2293
  139SAPE   C1115094   1.705   3.000  10.400 -0.2884 -0.0280  0.7281
  139SAPE  H11A15095   1.717   2.980  10.292 -0.2961 -2.1671  1.0810
  139SAPE  H11B15096   1.803   3.047  10.422 -0.1661  0.5132 -0.8410
  139SAPE     P15097   1.602   3.192  10.542  0.1190  0.4770 -0.5134
  139SAPE   O1315098   1.650   3.126  10.664  0.7699  0.1386  0.7059
  139SAPE   O1415099   1.684   3.302  10.486 -0.8283  0.2196  0.2864
  139SAPE   O1215100   1.589   3.082  10.431  0.6857 -0.2382  0.1663
  139SAPE   O1115101   1.455   3.245  10.565 -0.5194  0.0477 -0.0203
  139SAPE    C115102   1.334   3.172  10.575 -0.0090 -0.4343  0.1572
  139SAPE    HA15103   1.350   3.064  10.597  0.9255 -0.4667 -0.6271
  139SAPE    HB15104   1.277   3.216  10.659 -0.8826 -0.8175 -0.2204
  139SAPE    C215105   1.244   3.204  10.448  0.4199  0.7595  0.1878
  139SAPE    HS15106   1.142   3.164  10.466  0.2462  0.9351 -0.3811
  139SAPE   O2115107   1.292   3.138  10.331  0.2115 -0.1793 -0.2317
  139SAPE   C2115108   1.304   3.008  10.332  0.2153 -0.1262 -0.0907
  139SAPE   O2215109   1.271   2.936  10.432 -0.2553  0.7658 -0.3609
  139SAPE   C2215110   1.363   2.959  10.195  0.1127  0.3785 -0.4342
  139SAPE   H2R15111   1.445   3.029  10.167  0.8194 -1.0117 -1.9187
  139SAPE   H2S15112   1.407   2.858  10.204  1.1596  0.5905 -2.6906
  139SAPE    C315113   1.239   3.355  10.430 -1.3746  0.1675 -0.7107
  139SAPE    HX15114   1.340   3.400  10.433 -0.0792 -2.4520 -1.6803
  139SAPE    HY15115   1.193   3.388  10.525 -0.2200 -3.4478  1.3105
  139SAPE   O3115116   1.164   3.404  10.316 -0.7471  0.0659  0.7636
  139SAPE   C3115117   1.236   3.419  10.203 -0.5271  0.1261  0.1025
  139SAPE   O3215118   1.350   3.385  10.188 -0.2161 -0.6585 -0.3765
  139SAPE   C3215119   1.147   3.491  10.105  0.1345  0.0393  1.1066
  139SAPE   H2X15120   1.209   3.577  10.070  0.6708 -1.5931 -2.4259
  139SAPE   H2Y15121   1.053   3.521  10.156 -0.9810  0.3626 -1.0136
  139SAPE   C2315122   1.252   2.949  10.086  0.3271 -0.0499 -0.2057
  139SAPE   H3R15123   1.155   2.948  10.139  1.0042  1.7499  1.1611
  139SAPE   H3S15124   1.265   2.858  10.025 -2.1102  0.0841 -1.0460
  139SAPE   C2415125   1.257   3.069   9.985 -0.0067  0.2736 -0.2130
  139SAPE   H4R15126   1.340   3.059   9.912  0.2734  2.8021 -0.3302
  139SAPE   H4S15127   1.271   3.164  10.041  1.2485  1.0319 -1.7366
  139SAPE   C2515128   1.125   3.068   9.901 -0.2366  0.4658 -0.1777
  139SAPE   H5R15129   1.040   3.121   9.946  0.9355  2.7685 -0.4937
  139SAPE   C2615130   1.105   3.006   9.784 -0.4807  0.5127 -0.2264
  139SAPE   H6R15131   1.008   3.015   9.733 -0.5453  0.3362 -0.1370
  139SAPE   C2715132   1.211   2.928   9.720  0.0016 -0.0535 -0.3761
  139SAPE   H7R15133   1.239   2.858   9.801 -0.2271  0.8519  0.5053
  139SAPE   H7S15134   1.300   2.993   9.707  2.0515 -2.7628 -0.9088
  139SAPE   C2815135   1.190   2.849   9.588  0.2603  1.2808 -0.5450
  139SAPE   H8R15136   1.089   2.844   9.545  0.5440 -0.9740 -1.1036
  139SAPE   C2915137   1.284   2.786   9.512  0.6810  0.4629 -0.8056
  139SAPE   H9R15138   1.265   2.745   9.412  0.6073 -1.1042 -0.1692
  139SAPE  C21015139   1.431   2.794   9.550  0.4037  0.3258  0.1219
  139SAPE  H10R15140   1.442   2.856   9.641 -0.9298 -0.2986  0.7313
  139SAPE  H10S15141   1.481   2.853   9.470 -0.7816  0.9058 -0.2132
  139SAPE  C21115142   1.505   2.660   9.555 -0.2857  0.0983 -0.1184
  139SAPE  H11R15143   1.455   2.578   9.501  2.3685 -1.1521 -0.8087
  139SAPE  C21215144   1.621   2.624   9.616  0.0590 -0.0805  0.3874
  139SAPE  H12R15145   1.663   2.523   9.602 -0.0581  0.1446 -1.8173
  139SAPE  C21315146   1.702   2.721   9.709 -0.6303  0.7401 -0.0326
  139SAPE  H13R15147   1.727   2.807   9.643 -1.2651  0.3244 -0.8309
  139SAPE  H13S15148   1.805   2.686   9.732 -0.5382  0.4282 -0.8932
  139SAPE  C21415149   1.624   2.745   9.837  0.5495 -0.0702  0.1745
  139SAPE  H14R15150   1.559   2.833   9.845 -1.1957 -1.1347 -1.4767
  139SAPE  C21515151   1.612   2.661   9.938 -0.3346  0.0425  0.0924
  139SAPE  H15R15152   1.530   2.682  10.009 -3.2920  1.1895 -3.3841
  139SAPE  C21615153   1.684   2.530   9.960 -0.8326 -0.5886  0.1886
  139SAPE  H16R15154   1.770   2.509   9.893  0.6256 -0.4974  1.9677
  139SAPE  H16S15155   1.610   2.450   9.935  0.7287 -1.5691 -1.5724
  139SAPE  C21715156   1.738   2.542  10.104  0.1474 -0.9581  0.3308
  139SAPE  H17R15157   1.782   2.442  10.123 -0.1825 -1.4319 -1.2325
  139SAPE  H17S15158   1.664   2.550  10.186  1.9259 -1.4695  2.0618
  139SAPE  C21815159   1.847   2.647  10.104  0.1040 -0.3756  0.5437
  139SAPE  H18R15160   1.805   2.750  10.107  1.0697  0.0494 -0.1462
  139SAPE  H18S15161   1.907   2.629  10.012  0.5927  0.0806  0.7764
  139SAPE  C21915162   1.946   2.626  10.220 -0.1762 -0.3568 -0.4206
  139SAPE  H19R15163   1.977   2.519  10.216  1.8468  0.1715 -0.2591
  139SAPE  H19S15164   1.877   2.644  10.305 -1.5651 -1.7452 -1.2040
  139SAPE  C22015165   2.075   2.708  10.208 -0.4931  0.2898 -0.3868
  139SAPE  H20R15166   2.138   2.708  10.300  0.8304  0.1271 -1.2650
  139SAPE  H20S15167   2.041   2.811  10.182 -0.6825  0.0995 -0.9112
  139SAPE  H20T15168   2.140   2.681  10.122  1.1759 -0.9380  1.1863
  139SAPE   C3315169   1.123   3.405   9.973 -0.2523 -0.4107  0.1175
  139SAPE   H3X15170   1.061   3.322  10.013  0.9683 -0.6965  1.5279
  139SAPE   H3Y15171   1.216   3.358   9.935 -0.5756  0.7861 -2.3374
  139SAPE   C3415172   1.051   3.477   9.862 -0.6577  0.0474  0.7743
  139SAPE   H4X15173   1.105   3.567   9.826 -0.0100 -1.4453 -2.3453
  139SAPE   H4Y15174   0.958   3.523   9.902 -1.2642  0.6931 -1.2234
  139SAPE   C3515175   1.024   3.402   9.727  0.5898 -0.0549  0.3075
  139SAPE   H5X15176   0.967   3.310   9.750  1.3964 -0.4115  0.9368
  139SAPE   H5Y15177   1.119   3.371   9.678  0.1220  0.0464 -0.6734
  139SAPE   C3615178   0.936   3.486   9.630 -0.4733  0.1451  0.1359
  139SAPE   H6X15179   0.991   3.583   9.626 -1.3855  0.6297 -1.6757
  139SAPE   H6Y15180   0.836   3.496   9.677 -0.7756 -1.1366 -0.1888
  139SAPE   C3715181   0.911   3.429   9.487  0.2536 -0.0286  0.2503
  139SAPE   H7X15182   1.009   3.446   9.438  0.3147  0.0962  0.4119
  139SAPE   H7Y15183   0.840   3.501   9.440  0.5636  0.5265  0.6067
  139SAPE   C3815184   0.877   3.282   9.478 -0.9755  0.3302 -0.0237
  139SAPE   H8X15185   0.780   3.264   9.529 -1.2048  1.6880  0.0720
  139SAPE   H8Y15186   0.963   3.232   9.527 -2.8975 -1.3185  1.8452
  139SAPE   C3915187   0.867   3.224   9.333 -0.0150 -0.5719 -0.5003
  139SAPE   H9X15188   0.819   3.296   9.263 -2.2811 -0.2084  1.3096
  139SAPE   H9Y15189   0.812   3.127   9.328  1.1200 -1.1936 -1.7473
  139SAPE  C31015190   1.003   3.209   9.272  0.0796 -0.0468 -0.6210
  139SAPE  H10X15191   1.048   3.112   9.301  1.4577  0.6837 -0.1999
  139SAPE  H10Y15192   1.077   3.288   9.298 -0.0382 -0.3434  0.6561
  139SAPE  C31115193   0.988   3.214   9.121 -0.3866  0.0412  0.4267
  139SAPE  H11X15194   0.964   3.318   9.090 -0.6076  0.3484  1.5874
  139SAPE  H11Y15195   0.902   3.152   9.086  0.9884 -1.3024 -0.6805
  139SAPE  C31215196   1.110   3.160   9.051 -0.3865  0.0797 -0.4428
  139SAPE  H12X15197   1.140   3.068   9.105 -1.3452  0.0298  0.0226
  139SAPE  H12Y15198   1.181   3.244   9.066 -2.5158  2.0770 -0.8531
  139SAPE  C31315199   1.087   3.141   8.907 -0.2566 -0.0644  0.2819
  139SAPE  H13X15200   1.171   3.181   8.846 -2.5007  1.8187 -1.7876
  139SAPE  H13Y15201   1.001   3.206   8.881  0.0812  0.6143  0.8197
  139SAPE  C31415202   1.051   3.003   8.859  0.7804  0.3075  0.9784
  139SAPE  H14X15203   0.986   2.955   8.936 -1.8306  1.2127 -0.5620
  139SAPE  H14Y15204   1.146   2.945   8.860  0.1668 -1.0356 -3.0256
  139SAPE  C31515205   0.999   3.008   8.716 -0.0485 -0.2553  1.0149
  139SAPE  H15X15206   1.078   3.057   8.656 -0.2231 -1.0836  0.0906
  139SAPE  H15Y15207   0.911   3.076   8.712  1.7418  2.1846  0.9933
  139SAPE  C31615208   0.978   2.867   8.653 -0.2865  0.3487  0.5475
  139SAPE  H16X15209   0.936   2.874   8.550  0.9543 -2.3073 -0.2175
  139SAPE  H16Y15210   1.075   2.813   8.645 -0.9609 -0.7527 -0.5500
  139SAPE  C31715211   0.877   2.783   8.736  0.3859  0.2358  0.6254
  139SAPE  H17X15212   0.780   2.832   8.715  0.2216 -0.5297 -0.4673
  139SAPE  H17Y15213   0.888   2.791   8.846  1.4927 -0.3697  0.5759
  139SAPE  C31815214   0.881   2.630   8.697  0.0331 -1.3635  0.4917
  139SAPE  H18X15215   0.800   2.578   8.754  0.0777  1.2947  3.2487
  139SAPE  H18Y15216   0.981   2.593   8.729  0.9951 -0.8943 -1.7780
  139SAPE  H18Z15217   0.879   2.616   8.587  0.3270 -0.2360  0.3323
  140SAPE     N15218   1.910   0.948  10.808  0.3544  0.4131 -0.4656
  140SAPE   HN115219   1.824   1.001  10.833 -1.1664  0.2512 -4.5983
  140SAPE   HN215220   1.891   0.848  10.784 -0.3648  0.7594 -1.4155
  140SAPE   HN315221   1.970   0.961  10.891 -1.5125  1.7623  0.7538
  140SAPE   C1215222   1.966   1.020  10.690  0.3288 -0.1463 -0.1750
  140SAPE  H12A15223   1.985   1.129  10.704  0.9543 -0.1851 -0.6966
  140SAPE  H12B15224   1.888   1.034  10.612  0.3720 -0.9356 -0.3630
  140SAPE   C1115225   2.106   0.961  10.659 -0.3891  0.3924  0.1049
  140SAPE  H11A15226   2.137   1.008  10.564 -1.9034 -2.2032 -1.7938
  140SAPE  H11B15227   2.105   0.852  10.639 -1.2216  0.3332  0.4531
  140SAPE     P15228   2.256   0.902  10.867 -0.4946 -0.0118 -0.3404
  140SAPE   O1315229   2.359   0.968  10.955 -0.1330 -0.7015  0.3380
  140SAPE   O1415230   2.141   0.839  10.938  0.3215  0.0373  0.1993
  140SAPE   O1215231   2.199   0.999  10.764 -0.1543 -0.4580  0.4343
  140SAPE   O1115232   2.325   0.783  10.787 -0.0027  0.1987  0.0900
  140SAPE    C115233   2.446   0.805  10.711 -0.3484  0.1644  0.4705
  140SAPE    HA15234   2.478   0.912  10.717 -3.5226  1.1553  2.1421
  140SAPE    HB15235   2.533   0.748  10.749  0.4993  1.8339  1.1495
  140SAPE    C215236   2.414   0.792  10.556  0.2784 -0.2597 -0.5409
  140SAPE    HS15237   2.347   0.877  10.534  2.0401  1.5199  0.6106
  140SAPE   O2115238   2.354   0.668  10.530 -0.4765  0.4864  0.4579
  140SAPE   C2115239   2.295   0.641  10.423 -0.5094 -0.1258  0.2007
  140SAPE   O2215240   2.254   0.723  10.343  0.5707 -0.1451  0.5846
  140SAPE   C2215241   2.280   0.488  10.414 -0.6143 -0.2702  0.9531
  140SAPE   H2R15242   2.376   0.445  10.451 -0.0246  0.6549  0.5313
  140SAPE   H2S15243   2.204   0.467  10.492 -0.7856  0.9543  1.1395
  140SAPE    C315244   2.541   0.807  10.469 -0.9479  0.5393 -0.5338
  140SAPE    HX15245   2.607   0.726  10.505 -2.5633  0.3952  2.3582
  140SAPE    HY15246   2.596   0.899  10.499  1.7205 -1.3646  0.8643
  140SAPE   O3115247   2.512   0.799  10.329 -0.3154  0.0247  0.3716
  140SAPE   C3115248   2.475   0.921  10.277 -0.2061 -0.3895  0.4732
  140SAPE   O3215249   2.457   1.023  10.342  0.6117  0.8143  0.3366
  140SAPE   C3215250   2.434   0.904  10.138  0.0409  0.3079  0.0834
  140SAPE   H2X15251   2.322   0.906  10.140 -0.1043  4.3697 -1.7163
  140SAPE   H2Y15252   2.474   0.812  10.091  0.2060  0.9591 -1.0784
  140SAPE   C2315253   2.246   0.437  10.269 -0.8733  0.2140  0.1746
  140SAPE   H3R15254   2.158   0.492  10.229 -2.2718 -2.6563 -1.0170
  140SAPE   H3S15255   2.201   0.337  10.286 -0.2044 -0.1197 -0.0234
  140SAPE   C2415256   2.368   0.432  10.176 -0.1925 -0.3076 -0.3083
  140SAPE   H4R15257   2.433   0.522  10.176  0.5002 -0.7925  0.0866
  140SAPE   H4S15258   2.328   0.403  10.077 -1.8850  1.1624 -0.1106
  140SAPE   C2515259   2.475   0.334  10.215 -0.0200 -0.1347  0.1713
  140SAPE   H5R15260   2.463   0.304  10.320 -1.7197 -1.3223 -0.3238
  140SAPE   C2615261   2.564   0.272  10.138  0.2349  0.6274  0.1843
  140SAPE   H6R15262   2.633   0.201  10.185 -0.3356  0.9971  1.6589
  140SAPE   C2715263   2.577   0.307   9.995 -0.5769  0.4570  0.5443
  140SAPE   H7R15264   2.558   0.414   9.973 -0.5142  0.5568  0.9714
  140SAPE   H7S15265   2.488   0.254   9.954 -0.0119  1.6857 -2.5033
  140SAPE   C2815266   2.707   0.273   9.925  0.2792 -0.0598 -0.3110
  140SAPE   H8R15267   2.787   0.241   9.993  0.2721  1.3122  0.3750
  140SAPE   C2915268   2.720   0.275   9.791  0.1326  0.1758  0.1378
  140SAPE   H9R15269   2.820   0.258   9.748 -0.5929 -1.5510 -0.9518
  140SAPE  C21015270   2.613   0.311   9.692 -0.3735 -0.0423  0.6262
  140SAPE  H10R15271   2.539   0.372   9.748 -1.4386 -0.3566 -0.3831
  140SAPE  H10S15272   2.550   0.227   9.655 -0.4165  0.4227 -0.3952
  140SAPE  C21115273   2.655   0.381   9.557 -0.1524  0.5574  0.3795
  140SAPE  H11R15274   2.628   0.487   9.548 -0.3474  0.4960  0.2237
  140SAPE  C21215275   2.733   0.327   9.459 -0.0739 -0.1738 -0.2398
  140SAPE  H12R15276   2.749   0.395   9.374 -2.5347  1.7216  0.7092
  140SAPE  C21315277   2.787   0.190   9.461 -0.5849 -0.0656 -0.7125
  140SAPE  H13R15278   2.799   0.154   9.566  1.2166  4.3906  0.8512
  140SAPE  H13S15279   2.889   0.180   9.420  0.1269  0.2947  0.8708
  140SAPE  C21415280   2.694   0.088   9.406 -0.1455  0.5161  0.6389
  140SAPE  H14R15281   2.613   0.068   9.479 -1.9149  3.1088 -0.4578
  140SAPE  C21515282   2.675   0.036   9.286 -0.2840 -0.1457 -0.1453
  140SAPE  H15R15283   2.609  -0.048   9.257 -0.5101  0.4521 -1.4717
  140SAPE  C21615284   2.760   0.067   9.160  0.0350  0.1788  0.1229
  140SAPE  H16R15285   2.776  -0.027   9.102  1.6288  0.3747  0.2071
  140SAPE  H16S15286   2.861   0.106   9.184  0.2510 -0.9289  1.1097
  140SAPE  C21715287   2.705   0.170   9.058 -0.0767 -0.1862  0.1415
  140SAPE  H17R15288   2.772   0.156   8.970  2.1688 -1.1884  1.9299
  140SAPE  H17S15289   2.706   0.276   9.090  0.0104 -0.7031  1.9126
  140SAPE  C21815290   2.565   0.129   9.012 -0.9067 -0.0899  0.1904
  140SAPE  H18R15291   2.488   0.162   9.085  0.1640  1.6713  0.5810
  140SAPE  H18S15292   2.573   0.019   9.011 -1.8066 -0.1802  1.0463
  140SAPE  C21915293   2.520   0.170   8.871  0.4468 -0.0547 -0.3586
  140SAPE  H19R15294   2.600   0.122   8.811 -0.0272 -1.4142  0.0505
  140SAPE  H19S15295   2.514   0.280   8.855 -1.7857  0.0370  0.7872
  140SAPE  C22015296   2.383   0.118   8.848 -0.4018  0.2743  0.9199
  140SAPE  H20R15297   2.304   0.181   8.895  0.5526  2.2177  0.0180
  140SAPE  H20S15298   2.382   0.014   8.887 -0.4943 -0.1562 -0.1902
  140SAPE  H20T15299   2.362   0.107   8.740 -0.0562 -0.4886  0.9268
  140SAPE   C3315300   2.470   1.017  10.042 -0.0494 -0.2840 -0.7469
  140SAPE   H3X15301   2.580   1.021  10.029  0.2041 -1.8536  0.6412
  140SAPE   H3Y15302   2.454   1.115  10.092 -0.1841  0.1465 -1.6026
  140SAPE   C3415303   2.400   1.003   9.903  0.0523 -0.0655  0.6515
  140SAPE   H4X15304   2.291   0.988   9.911 -0.0642 -0.3009 -1.0243
  140SAPE   H4Y15305   2.447   0.924   9.841  0.4716  1.2321 -0.7366
  140SAPE   C3515306   2.405   1.133   9.823 -0.1758 -0.7427  1.0132
  140SAPE   H5X15307   2.512   1.165   9.819 -0.3622 -0.1974  0.2324
  140SAPE   H5Y15308   2.338   1.216   9.854  0.0548  0.7439 -2.0539
  140SAPE   C3615309   2.355   1.110   9.679 -0.2840  0.8996 -0.6547
  140SAPE   H6X15310   2.249   1.140   9.691 -1.0126 -1.0200 -1.7784
  140SAPE   H6Y15311   2.368   1.006   9.642  1.1149  1.3825 -1.6022
  140SAPE   C3715312   2.430   1.190   9.580  0.1065 -0.0387  0.4778
  140SAPE   H7X15313   2.536   1.157   9.589 -0.1550 -0.9431  0.2900
  140SAPE   H7Y15314   2.434   1.299   9.605 -0.2102  0.7495 -2.4744
  140SAPE   C3815315   2.361   1.178   9.446 -0.3696  0.0990  0.2347
  140SAPE   H8X15316   2.411   1.247   9.376  1.3426 -1.4924 -0.1781
  140SAPE   H8Y15317   2.252   1.199   9.448 -0.7092 -1.5226  2.1038
  140SAPE   C3915318   2.378   1.037   9.387  0.2864 -0.9017 -0.7343
  140SAPE   H9X15319   2.335   0.963   9.458  0.8868 -0.6906 -0.1380
  140SAPE   H9Y15320   2.485   1.007   9.378  0.6783  0.4551 -0.7840
  140SAPE  C31015321   2.314   1.019   9.250  0.0664 -0.7578 -0.2020
  140SAPE  H10X15322   2.213   1.067   9.247  0.3031 -0.2445 -0.0428
  140SAPE  H10Y15323   2.301   0.909   9.238 -0.0931 -0.8943  1.1338
  140SAPE  C31115324   2.397   1.088   9.142  0.3213  0.1518 -0.0444
  140SAPE  H11X15325   2.489   1.026   9.133 -0.5141 -1.3072  0.9792
  140SAPE  H11Y15326   2.422   1.195   9.157 -0.8605  0.4124  0.2122
  140SAPE  C31215327   2.334   1.080   9.000  0.2706  0.5049  0.8039
  140SAPE  H12X15328   2.257   1.157   8.981  2.0416  1.7717 -1.7823
  140SAPE  H12Y15329   2.291   0.980   8.975  1.6597  0.2960 -1.0149
  140SAPE  C31315330   2.447   1.107   8.897 -0.1008 -0.0255  0.0365
  140SAPE  H13X15331   2.516   1.021   8.904 -0.6634 -0.4090  1.2098
  140SAPE  H13Y15332   2.502   1.196   8.934 -2.6966  1.3548  0.8320
  140SAPE  C31415333   2.405   1.139   8.758 -0.4946  0.3845  0.8215
  140SAPE  H14X15334   2.327   1.068   8.723 -0.1367 -0.2951  1.3776
  140SAPE  H14Y15335   2.495   1.136   8.693 -0.6638  2.1734  0.4717
  140SAPE  C31515336   2.353   1.280   8.755 -0.2279 -0.2412 -0.6758
  140SAPE  H15X15337   2.409   1.351   8.819 -0.8541  0.4522 -0.8778
  140SAPE  H15Y15338   2.245   1.287   8.782 -0.6622  1.9812 -2.6235
  140SAPE  C31615339   2.367   1.331   8.611  0.0831  0.5276 -0.6742
  140SAPE  H16X15340   2.475   1.336   8.588 -0.0091  2.3774 -0.8871
  140SAPE  H16Y15341   2.342   1.440   8.611  1.4723  0.8637 -0.2099
  140SAPE  C31715342   2.298   1.247   8.505  0.2111 -0.3272  0.6131
  140SAPE  H17X15343   2.336   1.143   8.500 -0.7383 -0.6176 -1.2685
  140SAPE  H17Y15344   2.324   1.304   8.413  0.4885  0.5203  1.1985
  140SAPE  C31815345   2.146   1.242   8.528  1.1920  0.1153  0.3053
  140SAPE  H18X15346   2.099   1.213   8.432 -2.7367  0.6123  1.9162
  140SAPE  H18Y15347   2.119   1.342   8.566  0.9631  0.3539 -0.4612
  140SAPE  H18Z15348   2.117   1.165   8.603 -1.2071 -0.5793 -1.2216
  141SAPE     N15349   3.260   2.141  11.223 -0.3452  0.0297  0.2406
  141SAPE   HN115350   3.339   2.208  11.234  0.8042 -1.1539 -0.6129
  141SAPE   HN215351   3.182   2.190  11.175 -1.5129  0.5449  2.5266
  141SAPE   HN315352   3.222   2.131  11.320  2.0351  1.5607  1.4370
  141SAPE   C1215353   3.290   2.008  11.155 -0.3268 -0.2307  0.4324
  141SAPE  H12A15354   3.204   1.937  11.156  0.7169 -1.5720 -1.1611
  141SAPE  H12B15355   3.368   1.970  11.224  0.4532  0.1690 -0.2129
  141SAPE   C1115356   3.347   2.038  11.011  0.1343 -0.2561  0.1050
  141SAPE  H11A15357   3.385   1.946  10.961 -0.1750  0.0511 -0.7176
  141SAPE  H11B15358   3.431   2.109  11.020 -0.3577  0.4183 -0.5283
  141SAPE     P15359   3.143   2.031  10.835  0.3203  0.0858  0.4266
  141SAPE   O1315360   3.143   1.884  10.847  0.0002  0.8107  0.5986
  141SAPE   O1415361   3.017   2.107  10.839 -0.1993 -0.0923  0.2595
  141SAPE   O1215362   3.239   2.100  10.935  0.0052  0.4163 -0.4860
  141SAPE   O1115363   3.227   2.061  10.705 -0.0563 -0.2663  0.5156
  141SAPE    C115364   3.270   2.194  10.680  0.2305 -0.1243  0.4757
  141SAPE    HA15365   3.194   2.270  10.709  1.0276  2.4409 -3.3523
  141SAPE    HB15366   3.352   2.229  10.745  1.0627 -0.9171 -0.1153
  141SAPE    C215367   3.296   2.222  10.528  0.0468 -0.3530 -0.7810
  141SAPE    HS15368   3.324   2.329  10.517  1.2093 -0.3313  1.7073
  141SAPE   O2115369   3.184   2.190  10.455 -0.1190 -0.6720  0.1494
  141SAPE   C2115370   3.087   2.270  10.458  0.3658  0.4677 -0.0449
  141SAPE   O2215371   3.084   2.381  10.522 -0.3728 -0.2312  0.5577
  141SAPE   C2215372   2.987   2.221  10.351  0.2209 -0.3144  0.2534
  141SAPE   H2R15373   3.040   2.180  10.262  1.5634  0.7489  0.5266
  141SAPE   H2S15374   2.937   2.134  10.398 -0.0682 -0.6894 -0.7251
  141SAPE    C315375   3.411   2.132  10.480 -0.0243 -0.6792 -0.0017
  141SAPE    HX15376   3.371   2.031  10.504 -1.6757 -0.5264 -1.8169
  141SAPE    HY15377   3.509   2.151  10.529  0.8968 -1.0228 -1.6123
  141SAPE   O3115378   3.426   2.142  10.338  0.2063  0.4702 -0.1864
  141SAPE   C3115379   3.501   2.245  10.297 -0.2452  0.1113 -0.8192
  141SAPE   O3215380   3.558   2.327  10.371  0.0947 -0.2181  0.0536
  141SAPE   C3215381   3.495   2.258  10.154  0.0688  0.4756  0.0101
  141SAPE   H2X15382   3.455   2.355  10.118  1.1911  0.8282 -0.3385
  141SAPE   H2Y15383   3.442   2.173  10.106 -0.9798  1.5540 -0.7670
  141SAPE   C2315384   2.889   2.338  10.321 -0.0080  0.1350 -0.7170
  141SAPE   H3R15385   2.926   2.411  10.247 -1.5477  1.6558 -0.0563
  141SAPE   H3S15386   2.860   2.383  10.419 -0.1270 -1.4834  0.0366
  141SAPE   C2415387   2.754   2.275  10.273  0.2123  0.0083 -0.3930
  141SAPE   H4R15388   2.716   2.207  10.351 -3.0545  1.0571 -0.9256
  141SAPE   H4S15389   2.786   2.224  10.180  1.0812  1.6331 -1.0342
  141SAPE   C2515390   2.647   2.374  10.238 -0.2697 -0.2125  0.4246
  141SAPE   H5R15391   2.583   2.392  10.326 -0.2412 -1.8467  0.8031
  141SAPE   C2615392   2.625   2.437  10.120 -0.3855  0.1547 -0.1249
  141SAPE   H6R15393   2.547   2.514  10.121  2.4693  3.2969  0.2250
  141SAPE   C2715394   2.687   2.426   9.979 -0.1869  0.3584 -1.2132
  141SAPE   H7R15395   2.603   2.431   9.907 -0.6745 -1.8784 -0.8760
  141SAPE   H7S15396   2.724   2.322   9.968 -1.8201 -0.2435 -1.2219
  141SAPE   C2815397   2.807   2.521   9.953 -0.1407 -0.5916 -0.3283
  141SAPE   H8R15398   2.876   2.533  10.038 -0.4217 -0.2864 -0.1412
  141SAPE   C2915399   2.837   2.579   9.832 -0.2967  0.0378 -0.1990
  141SAPE   H9R15400   2.925   2.643   9.819 -0.9517  1.5471  2.1542
  141SAPE  C21015401   2.751   2.561   9.706  0.9489  0.1255 -0.7455
  141SAPE  H10R15402   2.758   2.654   9.645  1.4199 -0.2130 -1.2141
  141SAPE  H10S15403   2.642   2.566   9.729  1.5079 -0.1513  2.3627
  141SAPE  C21115404   2.786   2.434   9.624  0.2456 -0.4279  0.0587
  141SAPE  H11R15405   2.895   2.416   9.623  0.1650 -1.1016  1.0014
  141SAPE  C21215406   2.701   2.345   9.573 -0.2067 -0.6832 -0.0076
  141SAPE  H12R15407   2.743   2.253   9.531  1.2848  0.9494 -2.3247
  141SAPE  C21315408   2.552   2.340   9.579 -0.0637  0.1556 -0.3363
  141SAPE  H13R15409   2.504   2.432   9.618 -0.5397 -0.0839 -0.3519
  141SAPE  H13S15410   2.524   2.269   9.659  2.8425  0.0580  0.7451
  141SAPE  C21415411   2.498   2.299   9.449  0.5197  0.3880 -0.4418
  141SAPE  H14R15412   2.489   2.190   9.438  0.5574 -0.1769  3.5081
  141SAPE  C21515413   2.462   2.378   9.346  0.5208  0.6181  0.6420
  141SAPE  H15R15414   2.422   2.335   9.253  0.1203  0.6420  0.8036
  141SAPE  C21615415   2.474   2.528   9.341  0.9173 -0.5046  0.2833
  141SAPE  H16R15416   2.485   2.571   9.442 -1.4988 -0.5466  0.6336
  141SAPE  H16S15417   2.371   2.565   9.318  0.7716 -1.2113 -0.2668
  141SAPE  C21715418   2.570   2.597   9.236 -0.5247  0.0833 -0.0223
  141SAPE  H17R15419   2.677   2.584   9.263 -0.0481  0.8835 -1.3751
  141SAPE  H17S15420   2.539   2.703   9.249 -1.2636  0.0990 -1.6392
  141SAPE  C21815421   2.540   2.560   9.087 -0.2291  0.1697 -0.4155
  141SAPE  H18R15422   2.430   2.550   9.087 -0.3425  1.2209  0.2081
  141SAPE  H18S15423   2.566   2.453   9.069  0.1139 -0.0398  1.1815
  141SAPE  C21915424   2.591   2.661   8.985  0.1411 -0.5867  0.0441
  141SAPE  H19R15425   2.702   2.655   8.996  0.1927 -1.3841 -0.8047
  141SAPE  H19S15426   2.566   2.764   9.020  0.4767  0.1443 -1.7764
  141SAPE  C22015427   2.549   2.633   8.839  0.4473 -0.1324  0.2901
  141SAPE  H20R15428   2.440   2.658   8.836  0.8973  2.0279  0.2478
  141SAPE  H20S15429   2.567   2.528   8.808 -0.6439  0.1312 -1.3707
  141SAPE  H20T15430   2.596   2.696   8.761  1.1399 -1.0823 -0.0747
  141SAPE   C3315431   3.643   2.239  10.097 -0.4582  0.2154 -0.5262
  141SAPE   H3X15432   3.700   2.159  10.148  3.1531  2.9093  0.0638
  141SAPE   H3Y15433   3.704   2.329  10.120 -2.3035  1.3014  0.3953
  141SAPE   C3415434   3.640   2.180   9.955  0.3031  0.1044 -0.2513
  141SAPE   H4X15435   3.557   2.107   9.945  2.3116 -2.5137  0.9248
  141SAPE   H4Y15436   3.735   2.122   9.952 -0.1850 -0.6993 -0.9850
  141SAPE   C3515437   3.639   2.287   9.842 -0.6923 -0.1800 -1.1444
  141SAPE   H5X15438   3.717   2.360   9.872 -1.6910 -0.2091  1.8698
  141SAPE   H5Y15439   3.544   2.345   9.841 -1.1113 -0.8308 -0.5137
  141SAPE   C3615440   3.670   2.237   9.707  0.4660 -0.6566 -0.1054
  141SAPE   H6X15441   3.616   2.143   9.682 -0.8454 -0.1757  0.7553
  141SAPE   H6Y15442   3.779   2.222   9.694  0.4278 -0.8311 -0.2257
  141SAPE   C3715443   3.621   2.345   9.614  0.4797 -0.2050  0.7748
  141SAPE   H7X15444   3.668   2.442   9.641  0.1345  0.2895 -0.3357
  141SAPE   H7Y15445   3.511   2.359   9.615  0.5807  0.7771  2.3362
  141SAPE   C3815446   3.668   2.324   9.465  1.1654  0.2902 -0.3087
  141SAPE   H8X15447   3.773   2.292   9.453  0.2741 -2.7176 -0.7478
  141SAPE   H8Y15448   3.650   2.416   9.405  0.0697  1.1282  1.2031
  141SAPE   C3915449   3.576   2.213   9.401 -0.1013  0.8201 -0.9779
  141SAPE   H9X15450   3.473   2.230   9.439  0.2845  1.9348 -0.3777
  141SAPE   H9Y15451   3.615   2.121   9.450  1.2694  0.7418 -2.1446
  141SAPE  C31015452   3.591   2.199   9.251 -0.4391 -0.0686 -0.6534
  141SAPE  H10X15453   3.565   2.092   9.233  2.6166 -1.4570  2.1414
  141SAPE  H10Y15454   3.700   2.213   9.242  0.0786 -1.8737  1.8363
  141SAPE  C31115455   3.502   2.286   9.162 -0.8322 -0.4457  0.5948
  141SAPE  H11X15456   3.533   2.393   9.170 -5.8470  1.4405 -0.9641
  141SAPE  H11Y15457   3.395   2.282   9.191 -1.4671  2.4577 -0.9957
  141SAPE  C31215458   3.516   2.260   9.012 -0.0965  0.6660 -0.4828
  141SAPE  H12X15459   3.435   2.318   8.962  0.1026  0.5757 -0.9111
  141SAPE  H12Y15460   3.483   2.154   9.001 -3.8635  1.6111  0.1612
  141SAPE  C31315461   3.653   2.279   8.958  0.0817  0.8304 -0.5349
  141SAPE  H13X15462   3.721   2.209   9.011 -0.3730 -0.6597 -1.8690
  141SAPE  H13Y15463   3.694   2.382   8.969 -0.4575  0.9598  0.3813
  141SAPE  C31415464   3.674   2.226   8.815 -0.2103 -0.3126 -0.0559
  141SAPE  H14X15465   3.621   2.306   8.760 -0.2774 -0.1806  0.2003
  141SAPE  H14Y15466   3.625   2.128   8.796  1.1260 -1.0460  0.1488
  141SAPE  C31515467   3.827   2.220   8.789 -0.5710  0.2980  0.3875
  141SAPE  H15X15468   3.872   2.140   8.851 -2.0548  1.5272  3.2247
  141SAPE  H15Y15469   3.871   2.314   8.830 -0.2422  0.0012  0.7203
  141SAPE  C31615470   3.864   2.203   8.634 -0.0207 -0.2085 -0.1993
  141SAPE  H16X15471   3.837   2.296   8.580  0.0638  0.2566  0.5546
  141SAPE  H16Y15472   3.805   2.115   8.598 -0.7832  0.7216 -1.2860
  141SAPE  C31715473   4.009   2.169   8.602  0.7604 -0.1325  0.0557
  141SAPE  H17X15474   4.051   2.092   8.670  0.0057 -0.9143 -0.3497
  141SAPE  H17Y15475   4.064   2.264   8.617 -0.2376  0.3119  0.9636
  141SAPE  C31815476   4.022   2.122   8.457  0.1639 -0.1857  0.4041
  141SAPE  H18X15477   3.969   2.029   8.429 -0.2119  0.1835 -0.1384
  141SAPE  H18Y15478   4.128   2.108   8.426 -0.0695 -0.6598 -0.2056
  141SAPE  H18Z15479   3.983   2.203   8.392  1.8667 -0.2091 -0.7062
  142SAPE     N15480   3.695   6.602  11.253  1.1112  0.0028  0.0202
  142SAPE   HN115481   3.741   6.509  11.265  0.4092 -0.4693 -0.8026
  142SAPE   HN215482   3.597   6.593  11.289  1.2625  0.8841  0.6978
  142SAPE   HN315483   3.697   6.624  11.152  2.1272 -2.9118 -0.6904
  142SAPE   C1215484   3.774   6.697  11.335  0.3835 -0.2770 -0.0949
  142SAPE  H12A15485   3.879   6.688  11.297  0.3855 -0.3045 -0.0827
  142SAPE  H12B15486   3.759   6.653  11.435 -4.5557 -1.4924 -1.1354
  142SAPE   C1115487   3.707   6.834  11.336 -0.6350 -0.2975  0.2521
  142SAPE  H11A15488   3.781   6.905  11.380 -0.2709 -0.4553 -0.0924
  142SAPE  H11B15489   3.616   6.825  11.399  0.6279 -1.7179  1.9644
  142SAPE     P15490   3.576   6.990  11.171 -0.0417  0.1434 -0.1160
  142SAPE   O1315491   3.442   6.937  11.204 -0.3626  0.2196 -0.0839
  142SAPE   O1415492   3.621   7.121  11.218 -0.5473 -0.6271 -0.4274
  142SAPE   O1215493   3.678   6.879  11.198  0.2154  0.0732 -0.3897
  142SAPE   O1115494   3.578   6.989  11.020  0.2297  0.1882  0.1639
  142SAPE    C115495   3.679   7.048  10.938  0.2464  0.5603  0.3408
  142SAPE    HA15496   3.775   7.074  10.988  0.7847 -1.6333  0.5656
  142SAPE    HB15497   3.700   6.973  10.858 -0.2685  0.0377  0.6935
  142SAPE    C215498   3.628   7.176  10.876  0.0104 -0.3988  0.4869
  142SAPE    HS15499   3.556   7.215  10.951 -2.1806 -1.9040 -0.7223
  142SAPE   O2115500   3.549   7.141  10.758  0.5647 -0.4459 -0.1312
  142SAPE   C2115501   3.448   7.221  10.712 -0.5288  0.0074 -0.6220
  142SAPE   O2215502   3.426   7.329  10.765 -0.2040  0.5313  0.0316
  142SAPE   C2215503   3.371   7.154  10.595  0.1081  0.4805 -0.5911
  142SAPE   H2R15504   3.394   7.046  10.601  0.4360  0.4983 -1.4714
  142SAPE   H2S15505   3.261   7.162  10.606 -0.0505 -0.9041 -1.0802
  142SAPE    C315506   3.742   7.272  10.839 -0.4337  0.0610 -0.3098
  142SAPE    HX15507   3.802   7.287  10.931  0.5979 -1.5796 -0.6703
  142SAPE    HY15508   3.706   7.377  10.824  1.7369  1.2715  2.1045
  142SAPE   O3115509   3.835   7.222  10.743  0.0801 -0.4805  0.3276
  142SAPE   C3115510   3.802   7.254  10.616  0.4298  0.4734 -0.0078
  142SAPE   O3215511   3.700   7.312  10.583 -0.3659 -0.2971 -0.7346
  142SAPE   C3215512   3.906   7.209  10.522 -0.3968  0.1828  0.2218
  142SAPE   H2X15513   3.904   7.098  10.524 -1.1027  0.0809 -2.6556
  142SAPE   H2Y15514   4.009   7.243  10.546 -0.6384  1.8353 -0.9445
  142SAPE   C2315515   3.431   7.196  10.455 -1.1540 -0.2701 -0.2657
  142SAPE   H3R15516   3.536   7.160  10.455 -1.4508 -1.1746  0.1239
  142SAPE   H3S15517   3.425   7.306  10.442 -1.0116  0.1724  2.6859
  142SAPE   C2415518   3.369   7.121  10.345 -0.1553  0.1256  0.4245
  142SAPE   H4R15519   3.365   7.016  10.382  1.0825  0.6491  2.1772
  142SAPE   H4S15520   3.440   7.111  10.261  2.2587  0.3592  2.3434
  142SAPE   C2515521   3.234   7.159  10.304  0.1510 -0.1551  0.0460
  142SAPE   H5R15522   3.158   7.155  10.384  0.8941 -0.4939  0.7407
  142SAPE   C2615523   3.188   7.205  10.183 -0.1534  0.6743 -0.2509
  142SAPE   H6R15524   3.078   7.213  10.176 -0.1247  0.6523 -0.8365
  142SAPE   C2715525   3.265   7.232  10.054 -0.6503 -0.3138  0.9327
  142SAPE   H7R15526   3.376   7.222  10.060 -0.5238  1.0021  1.2397
  142SAPE   H7S15527   3.249   7.337  10.021 -1.8383 -0.3543  1.3633
  142SAPE   C2815528   3.224   7.130   9.960 -0.0290 -0.4674  0.4863
  142SAPE   H8R15529   3.245   7.028   9.993  2.1347 -0.1331  0.2573
  142SAPE   C2915530   3.178   7.149   9.837  0.0445 -0.4101  0.9154
  142SAPE   H9R15531   3.154   7.063   9.773  0.3242 -0.3911  0.7857
  142SAPE  C21015532   3.153   7.279   9.775 -0.5962  0.2154 -0.3942
  142SAPE  H10R15533   3.249   7.333   9.763  0.6137 -1.7181  0.1446
  142SAPE  H10S15534   3.110   7.353   9.847 -0.0673 -1.0054  1.2450
  142SAPE  C21115535   3.060   7.280   9.664  0.0476 -0.3271  0.4152
  142SAPE  H11R15536   2.954   7.274   9.692 -0.2315 -0.2176 -0.5825
  142SAPE  C21215537   3.093   7.270   9.534 -0.0117 -0.5448  0.2511
  142SAPE  H12R15538   3.018   7.284   9.454  0.0744  0.1556  0.2879
  142SAPE  C21315539   3.236   7.253   9.486 -0.6627  0.1372 -0.1710
  142SAPE  H13R15540   3.305   7.241   9.572 -1.3290 -2.4097  0.0682
  142SAPE  H13S15541   3.275   7.347   9.440 -2.7489  2.9923  3.3010
  142SAPE  C21415542   3.259   7.136   9.400 -0.4798  0.4665 -0.2613
  142SAPE  H14R15543   3.323   7.056   9.439 -0.6344 -0.4280 -1.7613
  142SAPE  C21515544   3.210   7.108   9.275  0.7996 -0.3495 -0.1085
  142SAPE  H15R15545   3.241   7.014   9.227  1.4324 -0.4059  0.4022
  142SAPE  C21615546   3.124   7.204   9.196  1.0129 -0.5214 -0.3353
  142SAPE  H16R15547   3.148   7.312   9.202 -0.8645 -0.1253  0.7291
  142SAPE  H16S15548   3.020   7.196   9.233  1.4012  0.4805  1.0581
  142SAPE  C21715549   3.135   7.166   9.051  0.4610 -0.1771 -0.0216
  142SAPE  H17R15550   3.108   7.060   9.031  1.7889 -1.0568  2.4692
  142SAPE  H17S15551   3.240   7.187   9.022 -0.0306 -0.5713 -2.3390
  142SAPE  C21815552   3.032   7.252   8.968 -0.0039  0.5737  0.1185
  142SAPE  H18R15553   3.033   7.359   8.999  0.3249  0.4701  0.4739
  142SAPE  H18S15554   2.933   7.203   8.979 -1.2668  2.4654 -1.9444
  142SAPE  C21915555   3.068   7.246   8.819  0.3407 -0.5890 -0.3423
  142SAPE  H19R15556   3.176   7.272   8.816 -0.1158  1.3734 -1.3658
  142SAPE  H19S15557   3.025   7.337   8.771 -1.5727 -1.0439  0.3979
  142SAPE  C22015558   3.039   7.120   8.738 -0.2516  0.2827  0.2270
  142SAPE  H20R15559   3.121   7.045   8.740 -0.2251  0.3191  0.5594
  142SAPE  H20S15560   3.020   7.137   8.630 -0.9140 -3.0351 -0.2804
  142SAPE  H20T15561   2.948   7.071   8.778 -1.2766  0.6615 -1.5329
  142SAPE   C3315562   3.896   7.248  10.372  0.7452 -0.7760  0.5674
  142SAPE   H3X15563   3.990   7.220  10.320  1.3227 -2.1985  2.2899
  142SAPE   H3Y15564   3.880   7.357  10.356  2.0368 -0.7928 -1.1655
  142SAPE   C3415565   3.782   7.176  10.294 -0.6943 -0.5319  0.3347
  142SAPE   H4X15566   3.681   7.208  10.327 -0.7359  1.1946 -1.2778
  142SAPE   H4Y15567   3.792   7.067  10.316 -0.0941 -0.6135 -0.2836
  142SAPE   C3515568   3.803   7.201  10.137  0.0923  0.6936 -0.3062
  142SAPE   H5X15569   3.912   7.187  10.118  0.4470 -0.6842  2.3680
  142SAPE   H5Y15570   3.772   7.304  10.110 -0.8298  0.4798 -0.0970
  142SAPE   C3615571   3.721   7.099  10.049  0.6551 -0.0977 -0.9413
  142SAPE   H6X15572   3.613   7.103  10.073  0.9088 -0.1364  0.2450
  142SAPE   H6Y15573   3.752   6.999  10.087 -1.6165  0.2608  2.2255
  142SAPE   C3715574   3.745   7.111   9.903  0.1659  0.8742 -0.9902
  142SAPE   H7X15575   3.736   7.009   9.859  3.5359  1.0871 -2.5348
  142SAPE   H7Y15576   3.853   7.133   9.887  0.0340  1.7871 -0.6831
  142SAPE   C3815577   3.657   7.208   9.832 -0.4820  0.1741  0.3778
  142SAPE   H8X15578   3.677   7.308   9.875  0.2052  1.2951 -2.3154
  142SAPE   H8Y15579   3.551   7.196   9.864 -0.6262  0.4795  0.0334
  142SAPE   C3915580   3.673   7.221   9.681  0.4865  0.6450  0.1013
  142SAPE   H9X15581   3.627   7.132   9.633  2.0399 -0.3333  0.3590
  142SAPE   H9Y15582   3.783   7.228   9.664  0.2692 -1.0621 -2.6040
  142SAPE  C31015583   3.597   7.346   9.630  0.3029 -0.6273  0.0963
  142SAPE  H10X15584   3.650   7.430   9.681 -0.1236  1.3767 -2.5512
  142SAPE  H10Y15585   3.497   7.354   9.678 -0.0978 -4.1201  0.1129
  142SAPE  C31115586   3.589   7.374   9.483 -0.1559  0.2899  0.4920
  142SAPE  H11X15587   3.547   7.475   9.466  0.6448  0.4963 -0.3393
  142SAPE  H11Y15588   3.520   7.305   9.430 -1.6324  0.5890  1.9252
  142SAPE  C31215589   3.723   7.375   9.410 -0.0716 -0.0168 -0.0754
  142SAPE  H12X15590   3.754   7.268   9.408  0.9534  0.2668 -0.1515
  142SAPE  H12Y15591   3.807   7.421   9.466  1.6821 -2.9374 -0.1062
  142SAPE  C31315592   3.722   7.434   9.269 -0.0208  0.1336 -0.1938
  142SAPE  H13X15593   3.821   7.430   9.219 -0.3502 -0.5665 -0.8090
  142SAPE  H13Y15594   3.695   7.541   9.262 -2.5361 -0.4700 -0.6579
  142SAPE  C31415595   3.612   7.375   9.186 -0.1571 -0.6623  0.3576
  142SAPE  H14X15596   3.527   7.446   9.174  0.4839 -0.2328 -2.4138
  142SAPE  H14Y15597   3.565   7.292   9.242 -0.7313 -0.9606 -0.5349
  142SAPE  C31515598   3.664   7.323   9.049 -0.5257 -0.8614  0.3281
  142SAPE  H15X15599   3.581   7.265   9.005 -0.1146 -1.0742 -0.1773
  142SAPE  H15Y15600   3.751   7.255   9.063 -0.1788 -0.5524 -0.2847
  142SAPE  C31615601   3.708   7.429   8.950 -0.3541  0.6307 -0.4793
  142SAPE  H16X15602   3.732   7.377   8.855  0.4289 -1.9149  1.0317
  142SAPE  H16Y15603   3.807   7.469   8.982 -0.3244 -0.6724  1.1549
  142SAPE  C31715604   3.612   7.543   8.935 -0.0662  0.0619 -0.8587
  142SAPE  H17X15605   3.610   7.599   9.030 -0.6440  1.5385 -1.7075
  142SAPE  H17Y15606   3.507   7.511   8.918  0.6510 -3.3798  0.3395
  142SAPE  C31815607   3.659   7.632   8.826  0.2872  0.1713 -0.5749
  142SAPE  H18X15608   3.641   7.575   8.732  1.1617 -0.9194 -0.1055
  142SAPE  H18Y15609   3.767   7.653   8.841 -0.0418  0.6105  1.3903
  142SAPE  H18Z15610   3.596   7.723   8.826 -0.7200 -0.4253 -3.2090
  143SAPE     N15611   4.828   0.856  10.777  0.3364 -0.5538 -0.3229
  143SAPE   HN115612   4.780   0.909  10.701  0.5568 -0.1442 -0.1801
  143SAPE   HN215613   4.928   0.843  10.752  1.1569  0.2644  2.1922
  143SAPE   HN315614   4.783   0.763  10.790 -1.6349  0.6287  2.0880
  143SAPE   C1215615   4.838   0.933  10.911  0.5965  0.1313  0.3335
  143SAPE  H12A15616   4.946   0.918  10.935  0.6721 -3.0768 -1.4857
  143SAPE  H12B15617   4.781   0.877  10.988  0.3940 -1.0047 -0.6140
  143SAPE   C1115618   4.804   1.079  10.885  0.5139 -0.3858 -0.2155
  143SAPE  H11A15619   4.696   1.094  10.863 -0.0804 -1.1285  1.9226
  143SAPE  H11B15620   4.844   1.106  10.786 -2.1459  0.6007 -1.1040
  143SAPE     P15621   4.991   1.208  11.029 -0.4127 -0.2337 -0.1619
  143SAPE   O1315622   4.973   1.353  11.052  0.1015 -0.4990 -0.2609
  143SAPE   O1415623   5.040   1.115  11.137  0.9561  0.4245  0.7383
  143SAPE   O1215624   4.847   1.153  10.991 -0.1920  0.0242  0.2249
  143SAPE   O1115625   5.090   1.188  10.903 -0.0843 -0.2870 -0.1163
  143SAPE    C115626   5.144   1.291  10.818  0.1363  0.1159 -0.3199
  143SAPE    HA15627   5.069   1.372  10.809 -2.0327 -1.6563  0.9692
  143SAPE    HB15628   5.229   1.337  10.874  0.0733  0.4591 -0.5043
  143SAPE    C215629   5.192   1.234  10.682  0.3564 -0.2006 -0.0044
  143SAPE    HS15630   5.263   1.305  10.636  1.2208  0.6083  2.4278
  143SAPE   O2115631   5.080   1.208  10.592 -0.1004  0.5751  0.0396
  143SAPE   C2115632   5.034   1.315  10.539 -0.0751 -0.1227  0.4610
  143SAPE   O2215633   5.081   1.430  10.561 -0.2676  0.6158  0.0472
  143SAPE   C2215634   4.936   1.280  10.427 -0.0528 -0.4496 -0.4185
  143SAPE   H2R15635   4.952   1.174  10.398  0.7874  0.0424 -1.8212
  143SAPE   H2S15636   4.837   1.303  10.472 -0.1354  0.3286 -0.9832
  143SAPE    C315637   5.289   1.103  10.712  0.5809 -0.2562 -0.7199
  143SAPE    HX15638   5.220   1.022  10.743 -0.7393  0.9356 -0.4167
  143SAPE    HY15639   5.331   1.130  10.811 -2.5055 -1.7472  1.1567
  143SAPE   O3115640   5.387   1.063  10.618 -0.0579 -0.1408 -0.8492
  143SAPE   C3115641   5.337   1.004  10.509  0.1959 -0.0026 -0.1767
  143SAPE   O3215642   5.225   0.968  10.496  0.6743  0.2568 -0.2812
  143SAPE   C3215643   5.431   1.013  10.387 -0.1559  0.5860 -0.0653
  143SAPE   H2X15644   5.460   0.908  10.368 -2.9934 -0.4433  0.8367
  143SAPE   H2Y15645   5.515   1.075  10.427  0.2957 -0.5499  0.8068
  143SAPE   C2315646   4.955   1.369  10.307 -0.4002  0.4927  0.0774
  143SAPE   H3R15647   4.986   1.310  10.218 -1.7660  0.0045 -0.0942
  143SAPE   H3S15648   5.036   1.444  10.319 -0.8814  0.8277  1.3266
  143SAPE   C2415649   4.823   1.443  10.266 -0.1951  1.0555 -0.3945
  143SAPE   H4R15650   4.843   1.526  10.194 -0.8381  1.4831 -0.0911
  143SAPE   H4S15651   4.791   1.503  10.355  0.0697 -1.8629  1.8153
  143SAPE   C2515652   4.708   1.354  10.228  0.3509  0.0992 -0.1880
  143SAPE   H5R15653   4.629   1.337  10.303  0.8097  2.2225  0.8748
  143SAPE   C2615654   4.688   1.309  10.102 -0.4753 -0.6145  0.6228
  143SAPE   H6R15655   4.593   1.261  10.074 -0.5942 -1.4525  2.3219
  143SAPE   C2715656   4.767   1.340   9.980 -0.6732  0.4681  0.1620
  143SAPE   H7R15657   4.872   1.323  10.011 -1.2852 -0.1249  2.0662
  143SAPE   H7S15658   4.765   1.447   9.950 -0.6118  0.5100  0.3100
  143SAPE   C2815659   4.736   1.258   9.860  0.0208  0.2616 -1.2486
  143SAPE   H8R15660   4.682   1.166   9.889 -0.0863  0.6537 -0.1551
  143SAPE   C2915661   4.783   1.280   9.735  0.1261 -0.2554  0.5489
  143SAPE   H9R15662   4.740   1.212   9.660  0.5682 -1.4831  1.3738
  143SAPE  C21015663   4.871   1.401   9.695 -0.6278 -0.2346  0.1885
  143SAPE  H10R15664   4.937   1.362   9.615 -1.5271 -1.7163  0.1319
  143SAPE  H10S15665   4.943   1.435   9.773 -0.8777 -2.2247  1.3362
  143SAPE  C21115666   4.780   1.513   9.648  0.1351 -0.2651  0.4653
  143SAPE  H11R15667   4.711   1.561   9.718  0.1443  0.3960  0.0319
  143SAPE  C21215668   4.776   1.560   9.521 -0.6343 -0.5516  0.1258
  143SAPE  H12R15669   4.704   1.641   9.499 -0.5645 -0.5596 -0.1305
  143SAPE  C21315670   4.855   1.504   9.402 -0.6311 -0.5264  0.8224
  143SAPE  H13R15671   4.964   1.500   9.422 -0.5005  1.6683  0.7439
  143SAPE  H13S15672   4.843   1.579   9.321 -1.7723  0.1410  1.5770
  143SAPE  C21415673   4.811   1.382   9.334  0.0701  0.4879  0.0146
  143SAPE  H14R15674   4.808   1.291   9.397 -1.2097  0.9419  0.6409
  143SAPE  C21515675   4.758   1.372   9.210  0.5151  0.1116 -0.0156
  143SAPE  H15R15676   4.718   1.274   9.180 -1.4035 -0.2686  3.2520
  143SAPE  C21615677   4.728   1.479   9.106 -0.5573 -0.0370 -0.0432
  143SAPE  H16R15678   4.789   1.569   9.129 -0.0334 -0.3564 -0.1685
  143SAPE  H16S15679   4.621   1.510   9.110 -1.3504 -2.2689 -1.5999
  143SAPE  C21715680   4.766   1.438   8.968  0.6560 -0.4182 -0.1158
  143SAPE  H17R15681   4.710   1.347   8.936 -0.3327  0.8076 -2.1496
  143SAPE  H17S15682   4.876   1.421   8.973  0.7507  0.5515  2.8471
  143SAPE  C21815683   4.744   1.538   8.853  0.2382  0.6196  0.4972
  143SAPE  H18R15684   4.810   1.626   8.867  2.0933 -0.5361 -0.6010
  143SAPE  H18S15685   4.640   1.575   8.856  0.3592  0.9632  0.4554
  143SAPE  C21915686   4.777   1.495   8.710 -0.0505 -0.7070 -0.2338
  143SAPE  H19R15687   4.718   1.403   8.686 -2.2271  0.9362 -1.5005
  143SAPE  H19S15688   4.884   1.466   8.706 -0.2002 -1.1236 -3.2286
  143SAPE  C22015689   4.753   1.599   8.610 -0.2703 -0.2080  0.6672
  143SAPE  H20R15690   4.831   1.678   8.624 -0.1718  0.0893 -1.3303
  143SAPE  H20S15691   4.649   1.638   8.604 -0.3354 -0.4913 -0.1452
  143SAPE  H20T15692   4.775   1.561   8.508  0.7969  1.1144  0.3619
  143SAPE   C3315693   5.372   1.059  10.252 -0.4345  0.2105  0.9099
  143SAPE   H3X15694   5.275   1.008  10.232  1.2338 -2.5934 -0.5820
  143SAPE   H3Y15695   5.428   1.032  10.160 -2.5209  3.7372 -1.6583
  143SAPE   C3415696   5.350   1.211  10.229 -0.6760 -0.0508 -0.0254
  143SAPE   H4X15697   5.444   1.270  10.230 -0.2181 -0.7160  2.1728
  143SAPE   H4Y15698   5.319   1.244  10.331  1.9472 -1.7660  1.4803
  143SAPE   C3515699   5.244   1.229  10.120  0.3653  0.7708  0.2566
  143SAPE   H5X15700   5.236   1.338  10.102  1.2766  1.2727  2.6102
  143SAPE   H5Y15701   5.147   1.200  10.164  1.0357  0.0523  1.2972
  143SAPE   C3615702   5.281   1.166   9.987 -0.1552  0.3303  0.5767
  143SAPE   H6X15703   5.275   1.056   9.992  4.0859 -0.0289  1.1962
  143SAPE   H6Y15704   5.391   1.171   9.970 -0.3107  0.0349 -0.5894
  143SAPE   C3715705   5.201   1.221   9.868  0.3054  0.1872  0.5259
  143SAPE   H7X15706   5.212   1.331   9.867 -0.7454  0.3236  1.8970
  143SAPE   H7Y15707   5.094   1.193   9.879  0.0427  0.9502 -0.0192
  143SAPE   C3815708   5.256   1.167   9.731  0.3409 -0.2365 -0.0190
  143SAPE   H8X15709   5.256   1.056   9.727 -0.1738 -0.2105 -0.9300
  143SAPE   H8Y15710   5.362   1.198   9.719 -0.0063  0.6826 -0.8926
  143SAPE   C3915711   5.185   1.222   9.607  0.5960 -0.2683  0.1469
  143SAPE   H9X15712   5.172   1.331   9.625 -2.0862 -0.7011  1.1905
  143SAPE   H9Y15713   5.089   1.170   9.587 -0.2216  0.7906  1.2040
  143SAPE  C31015714   5.263   1.221   9.477 -0.3591  0.4906 -0.0578
  143SAPE  H10X15715   5.334   1.135   9.478 -0.6019  0.2683 -0.9876
  143SAPE  H10Y15716   5.319   1.317   9.478 -1.2690  1.0338 -0.5069
  143SAPE  C31115717   5.178   1.222   9.346 -0.0931 -0.2863  0.4033
  143SAPE  H11X15718   5.108   1.307   9.360  1.3122  0.7539  1.3879
  143SAPE  H11Y15719   5.116   1.131   9.329 -0.4100  0.1065 -0.6250
  143SAPE  C31215720   5.251   1.246   9.216 -0.3280 -0.4609 -0.0627
  143SAPE  H12X15721   5.319   1.164   9.186 -1.8869 -1.5485 -0.7791
  143SAPE  H12Y15722   5.313   1.338   9.228  0.4211 -1.2180  2.4926
  143SAPE  C31315723   5.139   1.279   9.112 -0.6860  0.2416  0.1363
  143SAPE  H13X15724   5.067   1.354   9.150 -1.5715 -0.1900 -0.6485
  143SAPE  H13Y15725   5.078   1.186   9.119 -0.6082  0.3079  2.8263
  143SAPE  C31415726   5.189   1.323   8.977  0.0270 -0.4001  0.5842
  143SAPE  H14X15727   5.280   1.386   8.987  0.0813 -0.2423 -0.7521
  143SAPE  H14Y15728   5.111   1.386   8.929  0.7351  0.3532  0.4033
  143SAPE  C31515729   5.219   1.204   8.897 -0.1099 -0.3865  0.3567
  143SAPE  H15X15730   5.126   1.143   8.899 -0.0716 -0.4911 -0.5553
  143SAPE  H15Y15731   5.295   1.133   8.937  0.1730 -1.0047 -1.2063
  143SAPE  C31615732   5.250   1.240   8.747 -0.2902 -0.2273  0.3812
  143SAPE  H16X15733   5.334   1.313   8.746 -0.0433 -0.4725 -2.0116
  143SAPE  H16Y15734   5.171   1.285   8.683  0.7950  0.0408 -0.8238
  143SAPE  C31715735   5.294   1.115   8.668  0.1938 -1.1083 -0.0280
  143SAPE  H17X15736   5.337   1.054   8.751  1.0136 -0.7617 -0.1964
  143SAPE  H17Y15737   5.376   1.139   8.598  1.4399 -2.5297  0.8836
  143SAPE  C31815738   5.195   1.025   8.600  0.3778 -0.2560  0.0081
  143SAPE  H18X15739   5.130   0.984   8.681  0.7905 -0.2800  0.3282
  143SAPE  H18Y15740   5.234   0.939   8.543  1.8632 -1.7729  3.0955
  143SAPE  H18Z15741   5.134   1.088   8.531  0.6069 -0.9713 -0.8543
  144SAPE     N15742   0.598   5.517  10.805 -0.8587  0.2491  1.0709
  144SAPE   HN115743   0.658   5.509  10.720  1.5462 -1.0144  2.7690
  144SAPE   HN215744   0.501   5.545  10.781 -0.7825 -0.1006  0.3068
  144SAPE   HN315745   0.639   5.593  10.863 -1.4697  0.2201  1.5474
  144SAPE   C1215746   0.625   5.388  10.878 -0.9050 -0.4048 -0.7298
  144SAPE  H12A15747   0.604   5.300  10.813 -1.4686 -0.8117 -0.0191
  144SAPE  H12B15748   0.560   5.395  10.968 -1.7983  0.9381 -1.4435
  144SAPE   C1115749   0.780   5.379  10.916 -1.1246 -0.2790  0.0386
  144SAPE  H11A15750   0.801   5.282  10.965  1.3338 -0.5346 -1.4032
  144SAPE  H11B15751   0.783   5.453  11.000  2.9014  0.1278 -0.2713
  144SAPE     P15752   0.953   5.332  10.722 -0.2657  0.1231  0.2321
  144SAPE   O1315753   1.070   5.277  10.800 -0.9569 -0.3510 -0.1615
  144SAPE   O1415754   0.864   5.240  10.647  0.2307 -0.0364  0.3867
  144SAPE   O1215755   0.873   5.432  10.822 -0.2534  0.8512 -0.0364
  144SAPE   O1115756   1.008   5.425  10.605 -0.1049 -0.4074  0.0531
  144SAPE    C115757   1.069   5.551  10.637 -0.4520  0.5346 -0.3686
  144SAPE    HA15758   1.135   5.552  10.726 -1.5426  1.1181  0.4672
  144SAPE    HB15759   1.143   5.578  10.558  0.8060  1.3844  1.0488
  144SAPE    C215760   0.975   5.674  10.648 -0.3234 -0.3514 -0.4103
  144SAPE    HS15761   0.904   5.665  10.734 -1.3296 -0.9654 -1.2854
  144SAPE   O2115762   0.903   5.705  10.528  0.3178  0.0145 -0.4856
  144SAPE   C2115763   0.800   5.625  10.502 -0.6450 -0.1763 -0.0402
  144SAPE   O2215764   0.756   5.535  10.574  0.3582  0.8213  0.3499
  144SAPE   C2215765   0.751   5.659  10.357 -0.5800 -0.5736 -0.3358
  144SAPE   H2R15766   0.684   5.748  10.364 -0.9637 -0.9619  1.3334
  144SAPE   H2S15767   0.839   5.687  10.295 -0.2886 -2.2038 -0.6907
  144SAPE    C315768   1.070   5.788  10.689 -0.3668 -0.6973  0.2985
  144SAPE    HX15769   1.167   5.775  10.637  0.2660 -0.7259  1.4407
  144SAPE    HY15770   1.094   5.769  10.796  0.6214 -0.9234  0.0448
  144SAPE   O3115771   1.014   5.926  10.667 -0.4278  0.0288  0.0413
  144SAPE   C3115772   1.013   5.967  10.539  0.5865  0.4108  0.6891
  144SAPE   O3215773   1.087   5.924  10.453 -0.1841  0.5873  0.0001
  144SAPE   C3215774   0.907   6.077  10.525 -0.5297  0.1182  0.6994
  144SAPE   H2X15775   0.958   6.166  10.484  0.5327 -1.6530 -2.0631
  144SAPE   H2Y15776   0.854   6.101  10.620 -1.1781 -1.6487  0.8188
  144SAPE   C2315777   0.676   5.539  10.293  0.1259 -0.8677 -0.0061
  144SAPE   H3R15778   0.638   5.585  10.199  0.5239  0.8222  0.6321
  144SAPE   H3S15779   0.597   5.509  10.365  0.2431 -0.1979  0.4131
  144SAPE   C2415780   0.764   5.422  10.248 -0.3020 -0.0334 -0.1526
  144SAPE   H4R15781   0.703   5.330  10.231  0.2178 -0.8344  1.9928
  144SAPE   H4S15782   0.827   5.394  10.335  0.4430  3.2243  0.4781
  144SAPE   C2515783   0.855   5.458  10.128 -0.2757 -0.0215  0.4409
  144SAPE   H5R15784   0.937   5.525  10.157 -0.7237  0.8316 -0.2260
  144SAPE   C2615785   0.837   5.426   9.997 -0.0766 -0.9339 -0.3557
  144SAPE   H6R15786   0.906   5.453   9.915 -1.8013  0.3462 -1.4429
  144SAPE   C2715787   0.719   5.352   9.941 -0.6247  0.3896  0.4972
  144SAPE   H7R15788   0.634   5.340  10.011 -0.4201  3.1593  1.3497
  144SAPE   H7S15789   0.754   5.247   9.937 -1.5207 -0.0154  2.2688
  144SAPE   C2815790   0.683   5.406   9.803  0.0816 -0.0374 -0.7475
  144SAPE   H8R15791   0.624   5.499   9.799  1.1052  0.6093 -2.1563
  144SAPE   C2915792   0.729   5.349   9.688  0.4180  0.3243  0.1195
  144SAPE   H9R15793   0.696   5.393   9.593  0.1326 -1.9800 -0.9154
  144SAPE  C21015794   0.811   5.228   9.669 -0.4247  0.7990  0.1468
  144SAPE  H10R15795   0.759   5.174   9.587  0.9544 -0.9966  0.3881
  144SAPE  H10S15796   0.804   5.159   9.757  0.2445  1.0687  0.4173
  144SAPE  C21115797   0.951   5.259   9.627  0.8001 -1.0821 -0.0082
  144SAPE  H11R15798   1.007   5.312   9.706 -2.2499  1.3032  0.7564
  144SAPE  C21215799   1.021   5.222   9.518 -0.2177 -0.4943  0.5428
  144SAPE  H12R15800   1.124   5.260   9.515  0.1203 -1.4442 -0.6534
  144SAPE  C21315801   0.970   5.135   9.403  0.8149  0.4420 -0.4046
  144SAPE  H13R15802   0.960   5.194   9.310 -1.8107  0.4855 -0.1653
  144SAPE  H13S15803   0.871   5.096   9.436  0.0758  1.5158 -1.2979
  144SAPE  C21415804   1.071   5.029   9.360  0.5634 -0.1380 -0.8060
  144SAPE  H14R15805   1.175   5.046   9.389  0.2315  1.8998 -0.6263
  144SAPE  C21515806   1.046   4.929   9.272  0.2449  0.2629  0.2631
  144SAPE  H15R15807   1.130   4.866   9.242 -0.1106  0.1383 -0.4916
  144SAPE  C21615808   0.912   4.897   9.205 -0.8237 -0.5786  0.6617
  144SAPE  H16R15809   0.826   4.955   9.243  0.1370  1.9247 -0.7625
  144SAPE  H16S15810   0.894   4.788   9.222 -0.5986 -0.5242  1.2832
  144SAPE  C21715811   0.916   4.895   9.044 -0.7282  0.3884  0.4911
  144SAPE  H17R15812   1.010   4.852   9.003 -1.0380  1.0942 -1.0116
  144SAPE  H17S15813   0.933   5.002   9.019 -1.2200  0.2525 -0.4552
  144SAPE  C21815814   0.792   4.834   8.968 -0.1752  0.6067 -0.5836
  144SAPE  H18R15815   0.697   4.851   9.024  0.4888 -0.3296  0.9014
  144SAPE  H18S15816   0.797   4.724   8.983 -0.2988  0.7889  1.0416
  144SAPE  C21915817   0.778   4.866   8.822 -0.1463  0.3632 -0.0044
  144SAPE  H19R15818   0.725   4.963   8.808 -2.7237 -0.5609  2.3728
  144SAPE  H19S15819   0.704   4.793   8.783  2.5283 -2.6219  0.1536
  144SAPE  C22015820   0.907   4.846   8.734  0.1013 -0.1917  0.4104
  144SAPE  H20R15821   0.951   4.947   8.750 -2.1238  0.6207  1.9021
  144SAPE  H20S15822   0.880   4.836   8.627 -0.7635 -1.0573  0.6928
  144SAPE  H20T15823   0.972   4.760   8.759 -0.8521 -1.3312 -0.8503
  144SAPE   C3315824   0.806   6.055  10.414  0.9815  0.4265  0.2587
  144SAPE   H3X15825   0.761   6.153  10.390 -0.4421 -0.1197  0.6362
  144SAPE   H3Y15826   0.723   5.993  10.453 -0.4080  0.5913 -2.2391
  144SAPE   C3415827   0.870   5.995  10.289  0.9882 -1.0230  0.2025
  144SAPE   H4X15828   0.900   5.889  10.301 -0.9969 -1.3573  3.6668
  144SAPE   H4Y15829   0.948   6.061  10.246  0.2171  0.9801  1.6939
  144SAPE   C3515830   0.767   5.982  10.174 -0.3180 -0.8073  0.1094
  144SAPE   H5X15831   0.721   6.078  10.143  0.8685  0.8753  3.0776
  144SAPE   H5Y15832   0.679   5.922  10.208 -1.4540  0.7372 -0.0272
  144SAPE   C3615833   0.834   5.909  10.056  0.0351 -0.2729 -0.2007
  144SAPE   H6X15834   0.878   5.815  10.095 -2.0234 -0.3188  2.3285
  144SAPE   H6Y15835   0.911   5.974  10.010  0.0407  1.4461  2.0786
  144SAPE   C3715836   0.737   5.893   9.936  1.4298 -1.0769 -0.5178
  144SAPE   H7X15837   0.692   5.987   9.898  0.9152 -1.0745  0.0938
  144SAPE   H7Y15838   0.650   5.827   9.954  0.3851  0.2723 -0.4548
  144SAPE   C3815839   0.810   5.836   9.810  0.1285 -0.4556  0.1587
  144SAPE   H8X15840   0.876   5.753   9.847  1.0536  0.6486  1.0735
  144SAPE   H8Y15841   0.887   5.912   9.785  1.7292 -0.7507  3.5575
  144SAPE   C3915842   0.716   5.808   9.687 -0.2198  1.0097  0.2847
  144SAPE   H9X15843   0.695   5.906   9.640 -3.0365 -0.1345 -1.0929
  144SAPE   H9Y15844   0.623   5.760   9.725  0.5900 -0.8514  0.0666
  144SAPE  C31015845   0.783   5.717   9.578 -0.1357 -0.0874 -0.7597
  144SAPE  H10X15846   0.817   5.621   9.623 -0.0357 -1.5755 -3.7324
  144SAPE  H10Y15847   0.875   5.761   9.534  0.7962  0.0170  1.1812
  144SAPE  C31115848   0.698   5.665   9.459  0.3829  0.5195 -0.3338
  144SAPE  H11X15849   0.651   5.754   9.412  1.0189 -0.2713 -2.6308
  144SAPE  H11Y15850   0.626   5.586   9.489  1.3760 -0.9390 -1.6207
  144SAPE  C31215851   0.776   5.598   9.343 -0.1128  0.4062  0.3351
  144SAPE  H12X15852   0.825   5.499   9.356 -1.5583 -0.3380  0.2698
  144SAPE  H12Y15853   0.850   5.679   9.320 -0.2320  0.6438  0.7938
  144SAPE  C31315854   0.686   5.567   9.223  0.0803 -0.6715  0.3340
  144SAPE  H13X15855   0.642   5.657   9.173 -0.3858 -2.1376 -2.0701
  144SAPE  H13Y15856   0.612   5.491   9.255 -1.1567 -0.7303 -2.3459
  144SAPE  C31415857   0.758   5.491   9.103  0.4507 -0.3546 -0.8296
  144SAPE  H14X15858   0.823   5.411   9.144  2.2287  0.0260 -2.7008
  144SAPE  H14Y15859   0.825   5.563   9.050 -1.5488  0.0508 -2.9594
  144SAPE  C31515860   0.663   5.437   8.999  0.2972  0.0846 -0.0675
  144SAPE  H15X15861   0.630   5.512   8.925  1.1753  0.9770  0.4261
  144SAPE  H15Y15862   0.570   5.402   9.048 -0.7680  0.0801 -2.0243
  144SAPE  C31615863   0.727   5.319   8.923  0.0572 -0.7847 -0.3691
  144SAPE  H16X15864   0.643   5.295   8.854 -1.8929  4.0907 -0.1094
  144SAPE  H16Y15865   0.738   5.231   8.991 -0.0349 -0.4322  0.1067
  144SAPE  C31715866   0.860   5.352   8.844 -0.0816  0.7250  0.6326
  144SAPE  H17X15867   0.934   5.385   8.920 -0.4156  0.9528  0.8585
  144SAPE  H17Y15868   0.824   5.441   8.787 -1.3480  0.0336  0.3174
  144SAPE  C31815869   0.926   5.244   8.757  0.0857  0.2580 -0.7005
  144SAPE  H18X15870   1.021   5.291   8.725 -0.5218  1.1573 -1.2660
  144SAPE  H18Y15871   0.858   5.225   8.670  0.6137 -0.6308 -0.9255
  144SAPE  H18Z15872   0.949   5.149   8.809  0.6332  1.0128  0.4814
  145SAPE     N15873   5.121   6.774  11.348  0.0180  0.4967 -0.0030
  145SAPE   HN115874   5.135   6.873  11.318  0.5695 -0.2029 -2.3181
  145SAPE   HN215875   5.031   6.760  11.398  1.7623 -0.0970  3.2639
  145SAPE   HN315876   5.198   6.739  11.408 -1.1844 -1.4630  0.5064
  145SAPE   C1215877   5.116   6.686  11.227 -0.1583  0.1213 -0.4398
  145SAPE  H12A15878   5.219   6.644  11.220 -0.8313 -1.8172  0.6164
  145SAPE  H12B15879   5.090   6.761  11.149 -0.4646  0.9266  0.4180
  145SAPE   C1115880   5.028   6.556  11.250 -0.2314 -0.2252 -0.1285
  145SAPE  H11A15881   5.022   6.507  11.150 -0.4629 -0.4345 -0.0139
  145SAPE  H11B15882   4.923   6.585  11.269  0.1466  0.7619  0.4972
  145SAPE     P15883   5.216   6.376  11.314  0.1121 -0.0447  0.3241
  145SAPE   O1315884   5.337   6.465  11.309 -0.2505 -0.3518 -0.7814
  145SAPE   O1415885   5.213   6.270  11.417  0.2350 -0.4378 -0.4189
  145SAPE   O1215886   5.082   6.465  11.347 -0.2063  0.2117  0.7416
  145SAPE   O1115887   5.185   6.321  11.173 -0.0138 -0.4729 -0.5713
  145SAPE    C115888   5.111   6.205  11.148  0.1014  0.6505 -0.9227
  145SAPE    HA15889   5.029   6.195  11.222 -0.6219 -2.0094 -1.9765
  145SAPE    HB15890   5.057   6.217  11.052 -2.1911 -1.3780  0.0187
  145SAPE    C215891   5.202   6.082  11.135 -1.3741  0.3859 -0.4181
  145SAPE    HS15892   5.250   6.072  11.234 -2.2260 -1.2204 -0.1351
  145SAPE   O2115893   5.298   6.100  11.033 -0.5599  0.5799 -0.8027
  145SAPE   C2115894   5.425   6.142  11.061 -0.0907  0.4629 -0.0719
  145SAPE   O2215895   5.458   6.174  11.174 -0.0818 -0.1347 -0.8141
  145SAPE   C2215896   5.521   6.118  10.942 -0.4379 -0.3784 -0.7100
  145SAPE   H2R15897   5.594   6.038  10.968  0.5642 -0.7092 -4.0414
  145SAPE   H2S15898   5.457   6.085  10.858  2.2478  1.0300 -3.5082
  145SAPE    C315899   5.112   5.950  11.118  0.1267 -0.1867 -0.7387
  145SAPE    HX15900   5.052   5.940  11.211 -1.8775  1.1149 -1.7965
  145SAPE    HY15901   5.189   5.872  11.129  0.1152  0.0405  1.4226
  145SAPE   O3115902   5.021   5.958  11.000 -0.1205 -0.0147 -0.1722
  145SAPE   C3115903   5.059   5.867  10.909 -0.3639 -0.1253 -0.2771
  145SAPE   O3215904   5.130   5.771  10.925 -0.1713 -0.1676 -0.4350
  145SAPE   C3215905   5.013   5.910  10.775  0.0528 -0.4095  0.9104
  145SAPE   H2X15906   4.915   5.959  10.793  0.5588  1.0990 -0.2201
  145SAPE   H2Y15907   4.983   5.821  10.715 -0.8748  1.9201 -2.3950
  145SAPE   C2315908   5.599   6.246  10.900  0.0730 -0.1443 -0.3840
  145SAPE   H3R15909   5.675   6.290  10.968  2.4501  0.2963 -3.1382
  145SAPE   H3S15910   5.516   6.317  10.878 -0.6699 -1.2001 -1.0994
  145SAPE   C2415911   5.677   6.213  10.769  0.0016 -0.1137 -0.3623
  145SAPE   H4R15912   5.615   6.144  10.708 -0.5535 -0.6125  0.7304
  145SAPE   H4S15913   5.773   6.168  10.801 -0.6778 -1.8690 -0.6736
  145SAPE   C2515914   5.709   6.346  10.689  0.6685 -0.5355 -0.4370
  145SAPE   H5R15915   5.748   6.427  10.753  0.7513 -1.3527  0.5636
  145SAPE   C2615916   5.689   6.377  10.556 -0.9618  0.6878 -0.4490
  145SAPE   H6R15917   5.714   6.480  10.527 -0.5226  0.4160 -1.0750
  145SAPE   C2715918   5.619   6.300  10.444 -0.5165  0.4785 -0.3148
  145SAPE   H7R15919   5.684   6.211  10.427 -0.8865  0.3699 -1.2019
  145SAPE   H7S15920   5.618   6.360  10.351 -1.5245 -1.4057 -1.5804
  145SAPE   C2815921   5.481   6.239  10.469 -0.6466 -0.0282 -0.7063
  145SAPE   H8R15922   5.480   6.160  10.545  2.6401  3.1421  3.0753
  145SAPE   C2915923   5.362   6.275  10.418 -0.6523 -0.4550  0.1940
  145SAPE   H9R15924   5.274   6.225  10.460  0.0550  0.1952  2.6271
  145SAPE  C21015925   5.320   6.384  10.320 -0.3007  0.0995  1.0580
  145SAPE  H10R15926   5.399   6.449  10.277 -1.0232  0.7869  0.7633
  145SAPE  H10S15927   5.261   6.461  10.374  0.6280  1.5634  0.0458
  145SAPE  C21115928   5.245   6.324  10.199 -0.1074 -0.6845 -0.0010
  145SAPE  H11R15929   5.152   6.270  10.220  0.9897 -2.6416  0.0068
  145SAPE  C21215930   5.279   6.330  10.069 -0.0462  0.5430  0.1007
  145SAPE  H12R15931   5.217   6.290   9.987  0.5461  1.3716 -0.7739
  145SAPE  C21315932   5.396   6.386   9.999 -0.1418  0.4776  0.8444
  145SAPE  H13R15933   5.471   6.403  10.079  0.8590  2.5651 -0.4428
  145SAPE  H13S15934   5.364   6.482   9.954 -3.7145 -0.2416  1.5348
  145SAPE  C21415935   5.455   6.287   9.905 -0.1013  0.4610  0.3595
  145SAPE  H14R15936   5.545   6.236   9.942 -0.4305 -0.6657 -0.3431
  145SAPE  C21515937   5.417   6.263   9.775 -0.1608  0.6100 -0.5776
  145SAPE  H15R15938   5.463   6.177   9.724 -2.5354 -1.5085  0.6513
  145SAPE  C21615939   5.315   6.326   9.694  0.6454  0.1685  0.0596
  145SAPE  H16R15940   5.342   6.430   9.664 -1.2263  0.8059  0.4275
  145SAPE  H16S15941   5.223   6.336   9.756  0.5413 -0.8325  0.0731
  145SAPE  C21715942   5.280   6.252   9.564  0.0703  0.3683 -0.2392
  145SAPE  H17R15943   5.181   6.289   9.532  0.4375  0.7117 -1.0242
  145SAPE  H17S15944   5.270   6.143   9.580  0.3031  0.2949 -0.5804
  145SAPE  C21815945   5.375   6.282   9.449 -0.2172 -0.2960 -0.0591
  145SAPE  H18R15946   5.472   6.238   9.479  0.6988  0.5883 -1.6242
  145SAPE  H18S15947   5.385   6.392   9.438  0.0399 -0.5661 -3.1880
  145SAPE  C21915948   5.320   6.226   9.319  0.3357  1.5309  0.3826
  145SAPE  H19R15949   5.209   6.232   9.318  0.0454 -1.7179  2.0303
  145SAPE  H19S15950   5.355   6.121   9.322  0.6140  1.6543  1.7783
  145SAPE  C22015951   5.377   6.288   9.192  0.1607 -0.0300  0.6567
  145SAPE  H20R15952   5.330   6.241   9.103  0.0739  0.6471  0.3359
  145SAPE  H20S15953   5.488   6.279   9.191  0.1549 -0.4582  1.9747
  145SAPE  H20T15954   5.363   6.398   9.199 -0.0810  0.1063 -1.3584
  145SAPE   C3315955   5.095   6.011  10.686  0.2773 -0.4771 -0.1563
  145SAPE   H3X15956   5.123   6.100  10.745 -0.6544  0.1679 -0.6656
  145SAPE   H3Y15957   5.026   6.039  10.604 -0.4518 -2.2441 -0.1943
  145SAPE   C3415958   5.222   5.943  10.621  0.1857  0.2911  0.1766
  145SAPE   H4X15959   5.272   5.882  10.700 -1.6634 -0.1247  1.1138
  145SAPE   H4Y15960   5.283   6.029  10.587 -1.1568  2.1512  2.2182
  145SAPE   C3515961   5.198   5.852  10.499  0.2705  0.5370 -0.3278
  145SAPE   H5X15962   5.125   5.771  10.521  0.1707  0.2000 -1.7763
  145SAPE   H5Y15963   5.293   5.799  10.473 -0.6579 -0.7813 -1.1936
  145SAPE   C3615964   5.151   5.938  10.379 -0.3432 -0.8477  0.2376
  145SAPE   H6X15965   5.209   6.032  10.367  0.7002 -1.1269  2.5354
  145SAPE   H6Y15966   5.048   5.972  10.406 -0.8305 -2.3684  0.3701
  145SAPE   C3715967   5.170   5.868  10.248  0.3800 -0.1096 -0.2337
  145SAPE   H7X15968   5.096   5.786  10.238  1.6810 -1.4337  0.6574
  145SAPE   H7Y15969   5.271   5.827  10.227  1.5223  2.9097 -1.1019
  145SAPE   C3815970   5.134   5.961  10.129 -0.8248 -0.1602 -0.2451
  145SAPE   H8X15971   5.226   6.002  10.083 -1.1741  0.3906 -0.4652
  145SAPE   H8Y15972   5.056   6.035  10.159 -0.2879  0.4897 -0.4346
  145SAPE   C3915973   5.064   5.888  10.012  0.0371 -0.7272 -0.8399
  145SAPE   H9X15974   4.963   5.857  10.046 -0.3412  1.3020  0.0310
  145SAPE   H9Y15975   5.122   5.800   9.977  2.0145 -0.2944  1.1395
  145SAPE  C31015976   5.049   5.993   9.896 -0.2828 -0.1343  0.3430
  145SAPE  H10X15977   5.146   6.040   9.871 -0.3905  1.5582  2.7731
  145SAPE  H10Y15978   4.991   6.082   9.926  1.4577  1.8329 -1.7291
  145SAPE  C31115979   4.978   5.940   9.771  0.2439 -0.4932 -0.0474
  145SAPE  H11X15980   4.868   5.939   9.788 -0.4520  0.0253 -3.6490
  145SAPE  H11Y15981   5.008   5.834   9.763 -0.8478 -0.7528 -0.8772
  145SAPE  C31215982   4.987   6.018   9.643 -0.0482 -0.1009 -0.5476
  145SAPE  H12X15983   5.095   6.027   9.618  0.3317  0.7645  1.2509
  145SAPE  H12Y15984   4.947   6.119   9.667 -1.4321 -1.0260  1.3191
  145SAPE  C31315985   4.907   5.947   9.530  0.5381  1.3987  0.1206
  145SAPE  H13X15986   4.797   5.952   9.540  0.5818  0.3572  1.2719
  145SAPE  H13Y15987   4.949   5.844   9.531  0.9755  1.4565 -2.7958
  145SAPE  C31415988   4.963   6.011   9.399 -0.0228 -0.4360 -0.3521
  145SAPE  H14X15989   5.073   6.020   9.405  0.2486 -3.5530  1.0083
  145SAPE  H14Y15990   4.905   6.104   9.380 -0.7404 -1.3283 -2.8871
  145SAPE  C31515991   4.935   5.925   9.276 -0.6553 -0.1872  0.1241
  145SAPE  H15X15992   4.825   5.916   9.267 -1.0138  2.7551  0.4315
  145SAPE  H15Y15993   4.983   5.828   9.299  0.7988  0.4902  0.0799
  145SAPE  C31615994   4.989   5.992   9.141 -0.4813  0.2531 -0.6191
  145SAPE  H16X15995   5.100   5.997   9.136 -0.4104 -1.0342 -0.6482
  145SAPE  H16Y15996   4.952   6.096   9.155  0.3719  0.6358 -1.0696
  145SAPE  C31715997   4.929   5.925   9.017 -0.1326 -0.3041 -0.1435
  145SAPE  H17X15998   4.820   5.941   9.037 -0.1063 -0.3234  0.0160
  145SAPE  H17Y15999   4.938   5.815   9.030 -0.8074 -0.2878  0.5660
  145SAPE  C31816000   4.972   5.975   8.884 -0.7342  0.1973 -0.1290
  145SAPE  H18X16001   5.003   6.081   8.876  1.8374 -0.4485  0.3806
  145SAPE  H18Y16002   4.893   5.962   8.808  0.9290 -3.1821 -1.5070
  145SAPE  H18Z16003   5.053   5.907   8.848  0.6308  1.2792  0.7863
  146SAPE     N16004   4.478   6.145  11.079 -0.0710  0.0669  0.5593
  146SAPE   HN116005   4.441   6.154  11.175 -0.9751 -1.0010  0.3405
  146SAPE   HN216006   4.488   6.049  11.040  0.5916 -0.3614  1.7350
  146SAPE   HN316007   4.565   6.202  11.080 -1.7231  2.8531 -1.3570
  146SAPE   C1216008   4.390   6.225  10.981  0.3192  0.2029  0.4699
  146SAPE  H12A16009   4.343   6.315  11.026 -0.1071  0.2834 -0.1251
  146SAPE  H12B16010   4.311   6.156  10.944 -1.6560  3.3394 -1.6440
  146SAPE   C1116011   4.460   6.284  10.854  0.3173 -0.0505  0.6042
  146SAPE  H11A16012   4.373   6.317  10.793  0.9399 -1.4699 -1.1143
  146SAPE  H11B16013   4.506   6.204  10.793 -0.0278 -0.3149  0.6904
  146SAPE     P16014   4.682   6.406  10.932  0.2546 -0.4415 -0.1452
  146SAPE   O1316015   4.738   6.538  10.922  0.7677 -0.0126 -0.1529
  146SAPE   O1416016   4.683   6.355  11.075  0.0429  0.0662 -0.1213
  146SAPE   O1216017   4.535   6.406  10.869  0.2481  0.2034 -0.4774
  146SAPE   O1116018   4.764   6.289  10.859 -0.2491 -0.4594 -0.2157
  146SAPE    C116019   4.870   6.323  10.774  0.1166  0.4803 -0.5562
  146SAPE    HA16020   4.951   6.383  10.820 -0.5665  0.7143  0.3701
  146SAPE    HB16021   4.913   6.229  10.732 -1.4693  0.2476 -1.7841
  146SAPE    C216022   4.833   6.397  10.645 -0.3415 -1.0098  0.8459
  146SAPE    HS16023   4.809   6.500  10.678 -0.1736 -1.0318  1.0389
  146SAPE   O2116024   4.713   6.333  10.584 -0.5930  0.0383  0.3196
  146SAPE   C2116025   4.621   6.422  10.536  0.2539  0.4664  0.1211
  146SAPE   O2216026   4.640   6.542  10.531  0.0608 -0.4307 -0.9890
  146SAPE   C2216027   4.510   6.345  10.473  0.5193  0.1703  0.2927
  146SAPE   H2R16028   4.564   6.282  10.399 -1.2539 -1.7260  0.5316
  146SAPE   H2S16029   4.453   6.275  10.537  2.0059 -0.6216  0.8144
  146SAPE    C316030   4.949   6.409  10.544  0.6515  0.2614 -0.5672
  146SAPE    HX16031   4.988   6.311  10.510  0.0681 -0.3828  0.5581
  146SAPE    HY16032   5.033   6.466  10.591  0.3141  0.0729  0.2879
  146SAPE   O3116033   4.903   6.472  10.419  0.0563 -0.1523  0.0072
  146SAPE   C3116034   4.913   6.605  10.424 -0.4508  0.0845 -0.1488
  146SAPE   O3216035   4.966   6.667  10.515 -0.2404  0.0276  0.2224
  146SAPE   C3216036   4.840   6.669  10.311  0.0503  0.0680  0.7937
  146SAPE   H2X16037   4.736   6.670  10.349 -0.9547 -1.7420 -1.6759
  146SAPE   H2Y16038   4.851   6.605  10.221  0.2221  0.9879  0.1477
  146SAPE   C2316039   4.421   6.434  10.386 -0.1118  0.0527  0.1279
  146SAPE   H3R16040   4.482   6.495  10.315  0.4263  0.3809  0.8630
  146SAPE   H3S16041   4.370   6.507  10.453 -0.8018  0.9873 -1.3337
  146SAPE   C2416042   4.331   6.346  10.302 -0.1563 -1.4631  0.5812
  146SAPE   H4R16043   4.390   6.293  10.224 -0.1324 -0.6980  0.0649
  146SAPE   H4S16044   4.276   6.422  10.242  0.7659 -1.5780 -0.4343
  146SAPE   C2516045   4.235   6.251  10.368  0.0102  0.8745 -0.7620
  146SAPE   H5R16046   4.272   6.164  10.423 -3.9562 -1.8024 -1.8893
  146SAPE   C2616047   4.104   6.265  10.376  0.0949  0.2276  0.9675
  146SAPE   H6R16048   4.048   6.196  10.440 -1.3297 -0.2657 -0.7358
  146SAPE   C2716049   4.012   6.373  10.319 -0.2910  0.1238  0.3563
  146SAPE   H7R16050   4.067   6.440  10.249 -1.4462  1.8991  1.0920
  146SAPE   H7S16051   3.971   6.441  10.396 -0.0068  0.4209  0.2483
  146SAPE   C2816052   3.883   6.319  10.254 -0.3977  0.1454  0.0471
  146SAPE   H8R16053   3.838   6.236  10.309 -0.9194  0.0159 -0.5589
  146SAPE   C2916054   3.837   6.341  10.126 -0.1319  0.1907 -0.4767
  146SAPE   H9R16055   3.744   6.291  10.095  0.1003 -0.4279 -0.1939
  146SAPE  C21016056   3.890   6.440  10.022 -0.6568 -0.1986 -0.4778
  146SAPE  H10R16057   3.975   6.498  10.063 -1.2117  1.0503 -1.0352
  146SAPE  H10S16058   3.806   6.510   9.998 -0.0434  1.0538  0.8938
  146SAPE  C21116059   3.944   6.369   9.906 -0.2428  0.7008  0.7129
  146SAPE  H11R16060   3.949   6.260   9.915 -3.6144  0.2096 -1.4841
  146SAPE  C21216061   3.965   6.420   9.786 -0.0431 -0.0059  0.9467
  146SAPE  H12R16062   4.003   6.344   9.716  1.2526  0.2124  1.3988
  146SAPE  C21316063   3.937   6.562   9.731 -0.3209  0.1603 -0.0005
  146SAPE  H13R16064   3.883   6.618   9.810  0.6473  0.7532  0.2580
  146SAPE  H13S16065   3.863   6.569   9.648 -1.9874 -1.3459  1.2761
  146SAPE  C21416066   4.056   6.641   9.701 -0.0916  0.2127  0.9835
  146SAPE  H14R16067   4.108   6.680   9.790 -2.6347  0.8003  2.3394
  146SAPE  C21516068   4.105   6.682   9.583 -0.7874  0.6006  0.3366
  146SAPE  H15R16069   4.206   6.726   9.588  0.2465 -1.5973 -0.1601
  146SAPE  C21616070   4.047   6.653   9.443  0.6493 -0.0171  0.0080
  146SAPE  H16R16071   4.068   6.743   9.382  0.5397  1.2164  1.7010
  146SAPE  H16S16072   3.936   6.647   9.454  0.6854 -1.7711 -0.2837
  146SAPE  C21716073   4.097   6.528   9.367  0.5821  0.1369  0.0787
  146SAPE  H17R16074   4.035   6.437   9.380  1.1257 -0.1803  0.4915
  146SAPE  H17S16075   4.191   6.493   9.414 -1.5346 -2.5563  2.7227
  146SAPE  C21816076   4.124   6.557   9.215 -0.0701 -0.5720  0.2753
  146SAPE  H18R16077   4.180   6.468   9.179 -0.7963 -1.2568  0.8037
  146SAPE  H18S16078   4.186   6.650   9.211 -0.2789 -0.4697 -0.9724
  146SAPE  C21916079   3.997   6.582   9.136 -0.0969 -0.6355 -0.3102
  146SAPE  H19R16080   3.959   6.684   9.161  1.2101  0.3460 -2.1122
  146SAPE  H19S16081   3.910   6.516   9.159 -1.6752  1.4104 -0.1153
  146SAPE  C22016082   4.015   6.592   8.976  0.5931 -0.3327 -0.4614
  146SAPE  H20R16083   4.084   6.670   8.938 -1.0978  1.4978  0.0389
  146SAPE  H20S16084   3.918   6.604   8.923 -0.1681  0.2554  1.0306
  146SAPE  H20T16085   4.064   6.496   8.949 -0.9476 -1.6284  1.1318
  146SAPE   C3316086   4.879   6.817  10.279  0.3740 -0.2950  0.0890
  146SAPE   H3X16087   4.983   6.827  10.243 -0.3851  1.6873 -1.8141
  146SAPE   H3Y16088   4.866   6.880  10.369 -1.2113 -0.2290 -0.1428
  146SAPE   C3416089   4.770   6.883  10.183  0.1512  0.8966 -0.0699
  146SAPE   H4X16090   4.800   6.988  10.166  1.6790  0.8452  1.8826
  146SAPE   H4Y16091   4.673   6.904  10.233  0.8187  2.6577  0.5471
  146SAPE   C3516092   4.753   6.800  10.052  0.0681  0.5630  0.6616
  146SAPE   H5X16093   4.731   6.693  10.072  2.4608 -1.0462 -3.8953
  146SAPE   H5Y16094   4.857   6.804  10.013  0.1168  2.6888  0.8905
  146SAPE   C3616095   4.651   6.860   9.951 -0.6352  0.8802  0.5892
  146SAPE   H6X16096   4.665   6.970   9.946 -1.5395  0.9237 -1.8054
  146SAPE   H6Y16097   4.550   6.826   9.981 -1.1868  0.4665 -1.6262
  146SAPE   C3716098   4.672   6.818   9.803 -0.2070 -0.0600 -0.3610
  146SAPE   H7X16099   4.681   6.707   9.799 -0.9985 -0.1039 -1.4017
  146SAPE   H7Y16100   4.772   6.856   9.774  1.6183 -1.9887  2.8699
  146SAPE   C3816101   4.566   6.882   9.707 -0.5898  0.3918 -0.2887
  146SAPE   H8X16102   4.594   6.989   9.719 -2.0590  0.8386 -0.6462
  146SAPE   H8Y16103   4.459   6.856   9.720 -0.7455  0.0972 -1.9527
  146SAPE   C3916104   4.599   6.843   9.567  0.4222  0.2255  0.1590
  146SAPE   H9X16105   4.612   6.733   9.562  0.6346  0.2855 -0.6263
  146SAPE   H9Y16106   4.695   6.889   9.537 -0.0529  1.7245  0.8526
  146SAPE  C31016107   4.498   6.887   9.457 -0.3635  0.0029  0.5215
  146SAPE  H10X16108   4.496   6.998   9.466 -4.0512  0.0511  0.4577
  146SAPE  H10Y16109   4.397   6.851   9.483 -2.0083  1.1145 -3.5499
  146SAPE  C31116110   4.541   6.855   9.312 -0.1785  0.3395 -0.4210
  146SAPE  H11X16111   4.651   6.868   9.304  0.1082  0.0812  2.1316
  146SAPE  H11Y16112   4.482   6.933   9.260 -0.9347 -1.0551 -1.7444
  146SAPE  C31216113   4.481   6.726   9.251 -0.5784 -0.0490  0.2867
  146SAPE  H12X16114   4.370   6.722   9.252 -0.5583 -0.7211  0.4695
  146SAPE  H12Y16115   4.523   6.644   9.314  2.3334  0.8129 -0.4017
  146SAPE  C31316116   4.525   6.699   9.104 -0.2665  0.2243 -0.0783
  146SAPE  H13X16117   4.635   6.684   9.105  0.0429  2.2648 -0.0382
  146SAPE  H13Y16118   4.515   6.790   9.041 -1.2834  0.0217 -0.2299
  146SAPE  C31416119   4.456   6.588   9.033  0.6990  0.4716  0.2475
  146SAPE  H14X16120   4.349   6.618   9.020  0.7107 -0.4549 -2.3849
  146SAPE  H14Y16121   4.470   6.491   9.085 -0.1292  1.6595  2.8804
  146SAPE  C31516122   4.506   6.566   8.886 -0.4876 -0.9462 -0.0164
  146SAPE  H15X16123   4.613   6.538   8.876  0.6265  3.0816 -1.7281
  146SAPE  H15Y16124   4.497   6.664   8.833  1.4059  0.6402  2.4171
  146SAPE  C31616125   4.413   6.476   8.796  0.0703 -0.5035  0.3233
  146SAPE  H16X16126   4.445   6.474   8.689 -0.5291  1.6068  0.0566
  146SAPE  H16Y16127   4.313   6.524   8.787  0.8577  1.1820  0.1092
  146SAPE  C31716128   4.390   6.334   8.855 -0.0725 -0.4037  1.0734
  146SAPE  H17X16129   4.334   6.334   8.950 -0.5423 -0.3825  0.7970
  146SAPE  H17Y16130   4.480   6.270   8.866 -1.1271 -1.8749  1.3823
  146SAPE  C31816131   4.297   6.263   8.755 -0.4623  0.2684  0.9687
  146SAPE  H18X16132   4.196   6.309   8.754 -1.0449 -0.9483  1.4408
  146SAPE  H18Y16133   4.286   6.157   8.785  0.6838  0.6387  2.8631
  146SAPE  H18Z16134   4.326   6.266   8.648 -0.6419 -0.1857  0.9024
  147SAPE     N16135   0.201   3.777   5.996  0.1242 -0.1276 -0.2518
  147SAPE   HN116136   0.212   3.694   6.058  1.6170 -0.5135 -0.9711
  147SAPE   HN216137   0.135   3.842   6.042  0.2964  0.2695 -0.5603
  147SAPE   HN316138   0.156   3.733   5.913 -0.2964  1.8420 -1.1047
  147SAPE   C1216139   0.324   3.854   5.968  0.3057  0.5574  0.7854
  147SAPE  H12A16140   0.293   3.950   5.921  1.3982  0.0338 -1.1567
  147SAPE  H12B16141   0.394   3.799   5.901 -1.5909 -0.2922 -0.5972
  147SAPE   C1116142   0.397   3.879   6.101 -0.0765  0.0779 -0.2583
  147SAPE  H11A16143   0.338   3.942   6.170  0.2363 -2.0039  2.0555
  147SAPE  H11B16144   0.482   3.951   6.097 -1.8222  2.1950 -0.4695
  147SAPE     P16145   0.362   3.695   6.282  0.0786 -0.0049  0.2502
  147SAPE   O1316146   0.236   3.651   6.224 -0.7428  0.1992 -0.1433
  147SAPE   O1416147   0.453   3.596   6.343  0.4655  0.4204  0.2565
  147SAPE   O1216148   0.445   3.757   6.161  0.3334  0.3250  0.2377
  147SAPE   O1116149   0.338   3.820   6.378 -0.5279 -0.3283  0.2949
  147SAPE    C116150   0.439   3.893   6.442 -0.2572 -0.1403 -0.3931
  147SAPE    HA16151   0.540   3.863   6.406 -0.1037 -0.2107  0.0868
  147SAPE    HB16152   0.428   4.000   6.417  2.4609  0.9113  2.2943
  147SAPE    C216153   0.436   3.870   6.594 -0.1669 -0.3769 -0.1750
  147SAPE    HS16154   0.500   3.950   6.637 -1.4896  1.8631 -2.0872
  147SAPE   O2116155   0.473   3.737   6.624  0.0347  0.4395 -0.5031
  147SAPE   C2116156   0.612   3.717   6.624  0.1371  0.4720  0.5562
  147SAPE   O2216157   0.689   3.809   6.605  0.2338 -0.1674 -0.0968
  147SAPE   C2216158   0.647   3.564   6.643  0.4550  0.4793  0.3509
  147SAPE   H2R16159   0.664   3.521   6.543 -0.7178  1.5459 -0.3318
  147SAPE   H2S16160   0.739   3.545   6.702 -1.1000 -1.6671  2.2858
  147SAPE    C316161   0.294   3.897   6.658  0.1548  0.6189  0.3142
  147SAPE    HX16162   0.237   3.813   6.614 -0.8627  0.5933  1.6412
  147SAPE    HY16163   0.265   3.996   6.618  0.7853  1.1085  1.0490
  147SAPE   O3116164   0.307   3.898   6.801 -0.0290 -0.4031 -0.0580
  147SAPE   C3116165   0.190   3.870   6.856 -0.7289  0.8322  0.1511
  147SAPE   O3216166   0.094   3.834   6.792  0.2326  0.3927 -0.0239
  147SAPE   C3216167   0.199   3.886   7.006 -0.6687 -0.4409  0.2443
  147SAPE   H2X16168   0.116   3.955   7.033 -2.7500 -1.7155 -2.3997
  147SAPE   H2Y16169   0.300   3.920   7.036 -1.0842  0.7324  0.3724
  147SAPE   C2316170   0.530   3.506   6.730 -0.4020 -0.3278 -0.3113
  147SAPE   H3R16171   0.551   3.399   6.753  0.1186 -0.4195 -1.1929
  147SAPE   H3S16172   0.436   3.510   6.671 -0.6152  0.4178  0.0582
  147SAPE   C2416173   0.501   3.557   6.872 -0.8615  0.7770 -0.9909
  147SAPE   H4R16174   0.444   3.474   6.918  1.3771  0.0209  0.6054
  147SAPE   H4S16175   0.434   3.644   6.862 -0.7193  0.8178 -1.6635
  147SAPE   C2516176   0.617   3.586   6.966 -0.1718 -0.1421 -0.3663
  147SAPE   H5R16177   0.705   3.632   6.919  2.1585 -3.0705  0.8251
  147SAPE   C2616178   0.624   3.548   7.094  0.2362  0.2522  0.0676
  147SAPE   H6R16179   0.719   3.570   7.146  0.6456 -0.5962 -0.3010
  147SAPE   C2716180   0.512   3.479   7.175  0.6663 -0.2959 -0.4382
  147SAPE   H7R16181   0.461   3.398   7.118 -1.1092  1.2224 -1.1276
  147SAPE   H7S16182   0.437   3.559   7.194  0.1056 -0.8943 -0.0819
  147SAPE   C2816183   0.570   3.419   7.301  0.3161 -0.2683  0.6309
  147SAPE   H8R16184   0.601   3.314   7.293  2.1698  0.3039 -0.0414
  147SAPE   C2916185   0.584   3.483   7.418  0.1376  0.2848  0.1535
  147SAPE   H9R16186   0.608   3.418   7.504 -2.2061 -2.2336 -0.9896
  147SAPE  C21016187   0.542   3.621   7.454 -0.2907 -0.5226 -0.3998
  147SAPE  H10R16188   0.486   3.680   7.378 -3.1786  1.3198  2.8125
  147SAPE  H10S16189   0.631   3.683   7.477  0.5710 -1.8421 -0.0862
  147SAPE  C21116190   0.462   3.635   7.582  0.1860  0.0717 -0.0419
  147SAPE  H11R16191   0.355   3.614   7.565 -0.1059  0.5386  1.1573
  147SAPE  C21216192   0.497   3.672   7.708  0.8139  0.0189 -0.6032
  147SAPE  H12R16193   0.417   3.690   7.781  1.8624  0.6511  0.4384
  147SAPE  C21316194   0.630   3.718   7.752 -0.2467  0.4515  0.3323
  147SAPE  H13R16195   0.642   3.815   7.804 -0.2835  0.6533 -0.0343
  147SAPE  H13S16196   0.700   3.743   7.670  1.9049  2.4332  2.6036
  147SAPE  C21416197   0.686   3.604   7.832 -0.2770  0.2255  0.1889
  147SAPE  H14R16198   0.741   3.529   7.774  0.3968 -0.0339  1.1547
  147SAPE  C21516199   0.678   3.589   7.968 -0.2655  0.0332 -0.3228
  147SAPE  H15R16200   0.718   3.504   8.024  1.9177  2.3942  1.9517
  147SAPE  C21616201   0.634   3.689   8.071 -0.0978  0.5776 -0.3125
  147SAPE  H16R16202   0.570   3.768   8.029 -1.1081 -0.1396 -0.1574
  147SAPE  H16S16203   0.714   3.739   8.131 -2.7117  1.2252  2.9059
  147SAPE  C21716204   0.556   3.622   8.187 -0.5604 -0.4455  0.2587
  147SAPE  H17R16205   0.462   3.575   8.151  0.1528 -3.1773  1.7099
  147SAPE  H17S16206   0.519   3.705   8.251  1.9030  2.5999 -1.9273
  147SAPE  C21816207   0.626   3.515   8.272  0.6067  0.3997  0.8575
  147SAPE  H18R16208   0.716   3.563   8.315  0.1460  2.3701 -0.2461
  147SAPE  H18S16209   0.646   3.422   8.214 -1.7614 -1.9337  3.4318
  147SAPE  C21916210   0.526   3.484   8.394 -1.0964  0.5691  0.7475
  147SAPE  H19R16211   0.576   3.404   8.453 -1.8093  0.1312  0.7622
  147SAPE  H19S16212   0.438   3.432   8.350  1.0211 -3.4234  0.7261
  147SAPE  C22016213   0.502   3.603   8.487  0.1420  0.5273 -0.1192
  147SAPE  H20R16214   0.442   3.686   8.443  1.0132 -0.8221 -4.3366
  147SAPE  H20S16215   0.597   3.636   8.535  0.9969 -1.3766 -0.4308
  147SAPE  H20T16216   0.439   3.568   8.572 -0.7548  1.3884 -0.4009
  147SAPE   C3316217   0.181   3.757   7.085  0.5655 -0.0938 -0.2613
  147SAPE   H3X16218   0.254   3.675   7.070  1.6201  0.8240 -0.2452
  147SAPE   H3Y16219   0.085   3.709   7.057  0.5892  0.4995 -1.3989
  147SAPE   C3416220   0.166   3.773   7.241 -0.7645 -0.7204 -0.1078
  147SAPE   H4X16221   0.099   3.860   7.256 -1.1491 -0.8892 -0.7808
  147SAPE   H4Y16222   0.272   3.790   7.267 -0.1070 -3.5731 -0.5055
  147SAPE   C3516223   0.112   3.644   7.299 -0.4809  0.2158  0.2454
  147SAPE   H5X16224   0.165   3.549   7.279  2.3166  1.8905 -0.7851
  147SAPE   H5Y16225   0.014   3.628   7.249  0.2843  0.8152 -1.5286
  147SAPE   C3616226   0.087   3.644   7.451  0.1370  0.1793  0.8677
  147SAPE   H6X16227   0.050   3.745   7.482 -3.1924 -1.2110  1.9227
  147SAPE   H6Y16228   0.186   3.619   7.494  0.7698  1.4120  0.1589
  147SAPE   C3716229  -0.016   3.545   7.505  0.3415  0.3374  0.1683
  147SAPE   H7X16230   0.020   3.454   7.452  0.2058  0.1003  0.4866
  147SAPE   H7Y16231  -0.120   3.569   7.471 -0.0936 -1.3281  0.2576
  147SAPE   C3816232  -0.014   3.524   7.653 -0.6366  0.5240  0.0726
  147SAPE   H8X16233   0.082   3.485   7.694 -0.5623 -0.3548 -0.8935
  147SAPE   H8Y16234  -0.079   3.437   7.676 -0.5171  0.2049 -0.7597
  147SAPE   C3916235  -0.065   3.650   7.728  0.0748 -0.5222  0.1070
  147SAPE   H9X16236  -0.174   3.659   7.713 -0.1015 -0.7890  1.1678
  147SAPE   H9Y16237  -0.016   3.743   7.691 -0.1092 -0.3381  0.3218
  147SAPE  C31016238  -0.040   3.633   7.878 -0.3932 -0.4796 -0.2950
  147SAPE  H10X16239   0.068   3.625   7.903 -1.0012  1.5610  4.0182
  147SAPE  H10Y16240  -0.068   3.531   7.913  1.2051 -0.9602 -0.3215
  147SAPE  C31116241  -0.136   3.720   7.966  1.2337  0.3018  0.1830
  147SAPE  H11X16242  -0.235   3.673   7.945  0.6629  1.1725  0.8385
  147SAPE  H11Y16243  -0.150   3.826   7.934 -1.5512 -0.0578 -0.0467
  147SAPE  C31216244  -0.104   3.745   8.115  0.0955  0.8720  0.3082
  147SAPE  H12X16245  -0.129   3.849   8.147  2.0964  1.6514 -0.5236
  147SAPE  H12Y16246   0.005   3.738   8.132 -0.1327  0.9368  1.9671
  147SAPE  C31316247  -0.177   3.639   8.202 -0.4161 -0.8105 -0.2375
  147SAPE  H13X16248  -0.179   3.540   8.152 -3.5453 -1.0704  0.2152
  147SAPE  H13Y16249  -0.283   3.670   8.215 -0.2729 -0.6123  0.4999
  147SAPE  C31416250  -0.120   3.621   8.345 -0.3773  0.7049  0.7157
  147SAPE  H14X16251  -0.125   3.720   8.395  1.6616  1.3473 -0.2324
  147SAPE  H14Y16252  -0.011   3.603   8.334 -0.2682  1.3833  0.6302
  147SAPE  C31516253  -0.178   3.503   8.420 -0.0258  0.3560  0.1127
  147SAPE  H15X16254  -0.285   3.514   8.390  0.9658  1.8743 -3.4663
  147SAPE  H15Y16255  -0.190   3.522   8.529  1.5278 -2.4799  0.8672
  147SAPE  C31616256  -0.114   3.374   8.379  0.1934  0.5277  0.7103
  147SAPE  H16X16257  -0.003   3.371   8.375  0.3767  0.5025  3.6375
  147SAPE  H16Y16258  -0.157   3.350   8.279 -0.6700  1.5972  0.8072
  147SAPE  C31716259  -0.156   3.259   8.467  0.6386  0.5890 -0.1806
  147SAPE  H17X16260  -0.123   3.164   8.419 -0.0158 -0.8231  1.9914
  147SAPE  H17Y16261  -0.265   3.255   8.485  0.7278 -0.8471  0.1499
  147SAPE  C31816262  -0.079   3.260   8.601 -0.1985 -0.4182  0.5055
  147SAPE  H18X16263  -0.116   3.183   8.673 -0.0572 -1.0518 -0.0869
  147SAPE  H18Y16264  -0.105   3.359   8.643  2.0942  1.0807 -1.3374
  147SAPE  H18Z16265   0.029   3.274   8.578 -0.9227  0.7768 -2.7793
  148SAPE     N16266   6.770   2.108   6.573  0.1891 -0.0354  0.7788
  148SAPE   HN116267   6.733   2.172   6.500 -1.8377  0.0523  1.7998
  148SAPE   HN216268   6.860   2.152   6.600  0.8472 -0.3428 -0.8052
  148SAPE   HN316269   6.787   2.015   6.530 -0.1679  0.6846 -1.0050
  148SAPE   C1216270   6.664   2.102   6.674 -0.0623  0.1340 -0.5803
  148SAPE  H12A16271   6.654   2.205   6.714  0.6629 -0.0689  0.1609
  148SAPE  H12B16272   6.690   2.034   6.758 -2.5218 -1.3203 -0.9202
  148SAPE   C1116273   6.535   2.049   6.616  0.1363 -0.4957  0.5517
  148SAPE  H11A16274   6.459   2.025   6.694 -0.8855  1.3767  0.1930
  148SAPE  H11B16275   6.560   1.950   6.572 -1.5607 -0.0114 -1.6762
  148SAPE     P16276   6.408   2.261   6.548  0.2332 -0.1421  0.3065
  148SAPE   O1316277   6.505   2.359   6.594 -0.3293  0.1370 -0.0355
  148SAPE   O1416278   6.326   2.298   6.432 -0.4239  0.8864  0.1674
  148SAPE   O1216279   6.481   2.125   6.509  0.1028 -0.3115 -0.7963
  148SAPE   O1116280   6.317   2.210   6.676 -0.0238 -0.1568  0.4956
  148SAPE    C116281   6.187   2.155   6.654 -0.2713 -0.0751  0.0241
  148SAPE    HA16282   6.122   2.207   6.580 -2.0410 -2.1480  0.0300
  148SAPE    HB16283   6.191   2.048   6.625 -0.8551 -0.4231  1.1920
  148SAPE    C216284   6.108   2.166   6.794  0.8993 -0.1183 -0.3328
  148SAPE    HS16285   5.998   2.171   6.776  1.0326  0.1897 -1.1243
  148SAPE   O2116286   6.140   2.288   6.874  0.4153 -0.2632  0.0472
  148SAPE   C2116287   6.094   2.393   6.809 -0.0310 -0.9442  0.0135
  148SAPE   O2216288   6.022   2.394   6.714  0.4480  0.1282  0.8670
  148SAPE   C2216289   6.135   2.523   6.883  0.2779 -0.0334 -0.4315
  148SAPE   H2R16290   6.213   2.582   6.831  0.7398 -0.4029 -0.1743
  148SAPE   H2S16291   6.042   2.580   6.867  0.6168  0.7701  0.3793
  148SAPE    C316292   6.137   2.046   6.890 -1.0314  0.4623 -0.5275
  148SAPE    HX16293   6.243   2.016   6.895 -1.9341 -3.0580  3.0785
  148SAPE    HY16294   6.075   1.967   6.844 -3.2596  0.2709  2.4639
  148SAPE   O3116295   6.098   2.062   7.026 -0.1921 -0.0002  0.1333
  148SAPE   C3116296   6.180   2.113   7.116 -0.2417 -0.0079  0.6426
  148SAPE   O3216297   6.294   2.155   7.088  0.4160 -0.5083 -0.2754
  148SAPE   C3216298   6.121   2.094   7.259 -0.0837  0.3872 -0.5076
  148SAPE   H2X16299   6.151   1.990   7.281 -0.7572  0.0535 -1.1320
  148SAPE   H2Y16300   6.010   2.102   7.254  0.0334  1.6749 -1.4891
  148SAPE   C2316301   6.141   2.501   7.036  0.1789  0.7091 -0.3020
  148SAPE   H3R16302   6.237   2.450   7.059 -2.0287 -3.1719  1.2312
  148SAPE   H3S16303   6.055   2.438   7.068  1.3210 -0.4206  0.6197
  148SAPE   C2416304   6.134   2.631   7.121 -0.2490 -0.5334  0.1715
  148SAPE   H4R16305   6.113   2.619   7.230 -1.1859 -1.4028 -0.0893
  148SAPE   H4S16306   6.047   2.690   7.084 -1.3240 -2.6285 -0.7999
  148SAPE   C2516307   6.257   2.715   7.094 -0.0031  0.2913 -0.1473
  148SAPE   H5R16308   6.272   2.740   6.988 -0.9284 -0.8074 -0.5576
  148SAPE   C2616309   6.346   2.756   7.193  0.1303  0.6439 -0.1227
  148SAPE   H6R16310   6.433   2.818   7.168  1.2157 -1.1196 -0.9860
  148SAPE   C2716311   6.337   2.720   7.343  0.4405 -0.1375  0.4159
  148SAPE   H7R16312   6.229   2.738   7.363  0.5652  1.5600 -0.2634
  148SAPE   H7S16313   6.392   2.781   7.417  0.3412  0.0237  0.3592
  148SAPE   C2816314   6.377   2.580   7.369 -0.6741 -0.5324  0.5008
  148SAPE   H8R16315   6.336   2.502   7.303 -1.5856  1.8273 -1.9191
  148SAPE   C2916316   6.441   2.538   7.481 -0.3999 -0.3109 -0.4975
  148SAPE   H9R16317   6.468   2.432   7.488 -0.5110 -0.4107 -1.4732
  148SAPE  C21016318   6.493   2.616   7.596  0.3319 -0.1019  0.1843
  148SAPE  H10R16319   6.568   2.688   7.557  0.3068  0.0048  0.3338
  148SAPE  H10S16320   6.547   2.546   7.663  0.6520  0.5348  0.5928
  148SAPE  C21116321   6.409   2.693   7.696  0.3960  0.3128  0.1754
  148SAPE  H11R16322   6.347   2.770   7.649  0.1591  0.4672  0.7323
  148SAPE  C21216323   6.397   2.670   7.826 -0.6378 -0.1674 -0.7814
  148SAPE  H12R16324   6.339   2.740   7.888 -1.3771 -1.0182 -0.4839
  148SAPE  C21316325   6.469   2.566   7.906 -0.3270 -0.1073  0.0255
  148SAPE  H13R16326   6.472   2.470   7.851 -0.0719  0.6289 -1.2684
  148SAPE  H13S16327   6.414   2.528   7.995 -0.1924 -1.4143 -0.4294
  148SAPE  C21416328   6.609   2.614   7.950  0.3195 -0.1800  0.2293
  148SAPE  H14R16329   6.679   2.630   7.866  0.7260 -0.3676  0.5294
  148SAPE  C21516330   6.655   2.620   8.075  0.8747  0.6837  0.2768
  148SAPE  H15R16331   6.757   2.656   8.095  0.4946  1.0806  1.6287
  148SAPE  C21616332   6.573   2.579   8.199 -0.5177  0.1229  0.2478
  148SAPE  H16R16333   6.654   2.581   8.275  1.1300 -1.1494 -1.3728
  148SAPE  H16S16334   6.538   2.475   8.190 -0.6479  0.2549 -0.8619
  148SAPE  C21716335   6.466   2.686   8.238  0.1013  0.6501 -0.5430
  148SAPE  H17R16336   6.388   2.664   8.161  1.1307 -1.7678 -0.9744
  148SAPE  H17S16337   6.510   2.787   8.237  1.3331  0.1803  1.3753
  148SAPE  C21816338   6.410   2.643   8.373  0.4850  0.1807 -0.2261
  148SAPE  H18R16339   6.495   2.614   8.438  0.4542 -2.4504 -1.2402
  148SAPE  H18S16340   6.352   2.549   8.361 -0.3823  0.7810 -0.9015
  148SAPE  C21916341   6.311   2.746   8.437 -0.2813 -1.2268  0.9935
  148SAPE  H19R16342   6.364   2.843   8.432 -1.7557 -0.4485 -0.7459
  148SAPE  H19S16343   6.294   2.720   8.543  0.0068 -1.2976  1.0219
  148SAPE  C22016344   6.183   2.755   8.362 -0.1427 -1.0364  0.0989
  148SAPE  H20R16345   6.108   2.828   8.401  2.7710  2.3451 -0.1343
  148SAPE  H20S16346   6.119   2.664   8.366 -1.3589 -0.2789 -0.9038
  148SAPE  H20T16347   6.197   2.788   8.257 -1.2332  0.7018  0.4521
  148SAPE   C3316348   6.174   2.191   7.371  0.3982  1.2231  0.2420
  148SAPE   H3X16349   6.134   2.293   7.351  1.8491  1.5431 -1.2188
  148SAPE   H3Y16350   6.284   2.191   7.360  0.2972 -1.4657 -1.7408
  148SAPE   C3416351   6.141   2.141   7.513  0.4922  0.2070  0.2102
  148SAPE   H4X16352   6.205   2.051   7.521 -1.6451 -1.2782  1.3022
  148SAPE   H4Y16353   6.037   2.103   7.520  0.3344  0.6198  0.1593
  148SAPE   C3516354   6.169   2.237   7.620 -0.0996 -0.0233  0.1359
  148SAPE   H5X16355   6.105   2.324   7.594  0.9903 -0.3303 -4.4308
  148SAPE   H5Y16356   6.275   2.267   7.608  0.3066 -0.3920  2.4346
  148SAPE   C3616357   6.144   2.176   7.757  0.6536  0.6008  0.1995
  148SAPE   H6X16358   6.213   2.091   7.774 -0.4395 -0.4741 -0.5542
  148SAPE   H6Y16359   6.039   2.140   7.768  0.3884  1.9654  2.6432
  148SAPE   C3716360   6.170   2.279   7.865  0.8179  0.0426 -0.1192
  148SAPE   H7X16361   6.094   2.358   7.847  0.4510 -0.6377 -1.7408
  148SAPE   H7Y16362   6.271   2.322   7.848  0.7630  0.9306  1.5541
  148SAPE   C3816363   6.168   2.239   8.011  0.3814  0.1704 -0.0318
  148SAPE   H8X16364   6.227   2.147   8.033 -2.7151 -1.6241  1.3365
  148SAPE   H8Y16365   6.061   2.216   8.027  0.5818 -0.1746  0.8779
  148SAPE   C3916366   6.218   2.347   8.116  0.1764 -0.0326 -0.5837
  148SAPE   H9X16367   6.165   2.440   8.085 -0.5263  0.6175  2.2950
  148SAPE   H9Y16368   6.328   2.361   8.114 -0.0281  1.7328 -1.0070
  148SAPE  C31016369   6.161   2.307   8.256  0.2989  0.0158 -0.4345
  148SAPE  H10X16370   6.093   2.221   8.236  0.8986  0.0330 -2.8093
  148SAPE  H10Y16371   6.112   2.394   8.305 -1.3951 -1.2845  0.2767
  148SAPE  C31116372   6.264   2.249   8.359 -0.3579 -0.2019 -0.4004
  148SAPE  H11X16373   6.327   2.339   8.377 -2.0141  1.6708 -3.2241
  148SAPE  H11Y16374   6.339   2.180   8.315 -1.3707 -0.8034 -1.2029
  148SAPE  C31216375   6.208   2.209   8.497 -0.3247 -0.5319  0.1325
  148SAPE  H12X16376   6.175   2.103   8.483 -1.9194 -0.0062 -0.2993
  148SAPE  H12Y16377   6.121   2.266   8.536 -0.4781 -1.4035  1.1161
  148SAPE  C31316378   6.318   2.205   8.608 -0.1309  0.1818 -0.4896
  148SAPE  H13X16379   6.364   2.306   8.613 -0.7372  0.3953  2.3640
  148SAPE  H13Y16380   6.393   2.136   8.564 -1.9327 -2.2503  0.0730
  148SAPE  C31416381   6.278   2.148   8.738 -0.8477 -0.8099 -0.2537
  148SAPE  H14X16382   6.179   2.193   8.760 -0.8094  0.4662 -2.4311
  148SAPE  H14Y16383   6.349   2.171   8.821 -1.6314 -0.7676  0.4157
  148SAPE  C31516384   6.270   1.995   8.757 -0.1691 -0.4164  0.2598
  148SAPE  H15X16385   6.373   1.957   8.768 -0.8216 -2.0153  1.1819
  148SAPE  H15Y16386   6.227   1.945   8.667 -0.6504  0.3149  0.0693
  148SAPE  C31616387   6.185   1.960   8.886 -0.6813 -0.1234 -0.2818
  148SAPE  H16X16388   6.088   2.013   8.883  0.2542  1.8511  1.7661
  148SAPE  H16Y16389   6.239   2.010   8.969 -0.2389  1.7494 -1.6252
  148SAPE  C31716390   6.171   1.811   8.924 -0.0442 -0.0202 -0.0232
  148SAPE  H17X16391   6.277   1.777   8.922 -0.8196 -2.7848  1.4690
  148SAPE  H17Y16392   6.129   1.743   8.847  1.4003 -1.3435  0.3136
  148SAPE  C31816393   6.095   1.791   9.054 -0.4387 -0.9458 -0.0035
  148SAPE  H18X16394   6.104   1.687   9.094  1.1514 -0.3727  1.2424
  148SAPE  H18Y16395   5.992   1.833   9.051 -0.0290  0.0036 -2.1363
  148SAPE  H18Z16396   6.153   1.840   9.135 -0.1300 -1.2234 -0.0530
  149SAPE     N16397   0.442   2.850   6.153  0.3683 -0.6022 -0.0394
  149SAPE   HN116398   0.490   2.856   6.245  0.3765  0.6714 -0.1180
  149SAPE   HN216399   0.499   2.892   6.076  1.1692 -1.8588 -0.1577
  149SAPE   HN316400   0.345   2.887   6.152  0.7336  0.3760  0.1295
  149SAPE   C1216401   0.441   2.708   6.115 -0.3996  0.0845 -0.4802
  149SAPE  H12A16402   0.542   2.664   6.107 -0.5220 -1.4411  3.6906
  149SAPE  H12B16403   0.394   2.688   6.016  2.4172  1.4906 -2.2099
  149SAPE   C1116404   0.356   2.623   6.208 -0.1695 -0.4372 -0.0746
  149SAPE  H11A16405   0.397   2.624   6.311  0.4655 -1.0350 -0.3154
  149SAPE  H11B16406   0.364   2.521   6.166 -0.0837  0.3867 -2.1855
  149SAPE     P16407   0.112   2.590   6.314  0.0833  0.2258 -0.2535
  149SAPE   O1316408  -0.022   2.651   6.311  0.2398 -0.1756  0.1232
  149SAPE   O1416409   0.111   2.443   6.299 -0.8612 -0.0370  0.1243
  149SAPE   O1216410   0.214   2.661   6.216 -0.7718  0.7959 -0.2598
  149SAPE   O1116411   0.176   2.635   6.455  0.5616 -0.0355 -0.2819
  149SAPE    C116412   0.146   2.562   6.572  0.3077 -0.4763 -0.4873
  149SAPE    HA16413   0.147   2.452   6.562  1.4311 -0.7711  2.1335
  149SAPE    HB16414   0.216   2.590   6.653  0.3759  0.4714 -0.8542
  149SAPE    C216415   0.005   2.596   6.641 -0.5447  0.4085  0.7644
  149SAPE    HS16416  -0.073   2.585   6.562 -0.2268  1.1344  0.3363
  149SAPE   O2116417   0.008   2.730   6.702 -0.4809  0.0376 -0.0393
  149SAPE   C2116418  -0.109   2.785   6.725  0.1953  0.5990  0.0352
  149SAPE   O2216419  -0.215   2.746   6.677  0.0224 -0.1532 -0.6254
  149SAPE   C2216420  -0.096   2.910   6.813 -0.4713  0.2294  0.2759
  149SAPE   H2R16421   0.010   2.943   6.816 -0.7467  1.0819  0.9105
  149SAPE   H2S16422  -0.159   2.979   6.753 -1.5105 -2.1218 -1.5179
  149SAPE    C316423  -0.028   2.485   6.744 -0.2758 -0.3670  0.1253
  149SAPE    HX16424  -0.050   2.397   6.679 -0.0783 -0.1904 -0.1794
  149SAPE    HY16425  -0.114   2.514   6.808  0.0549  1.7289 -0.3177
  149SAPE   O3116426   0.084   2.462   6.832 -0.2234 -0.1702  0.1362
  149SAPE   C3116427   0.079   2.345   6.896  0.9296 -0.1692 -0.4374
  149SAPE   O3216428  -0.004   2.258   6.895  0.3860 -0.3121  0.1526
  149SAPE   C3216429   0.195   2.361   7.004  0.1944 -0.8958  0.2678
  149SAPE   H2X16430   0.199   2.469   7.029 -1.7664 -0.5881 -0.5382
  149SAPE   H2Y16431   0.293   2.344   6.954  0.9872  3.0532  0.1636
  149SAPE   C2316432  -0.158   2.882   6.950 -0.6062 -0.8266  0.7268
  149SAPE   H3R16433  -0.267   2.877   6.934 -0.9631  0.6065  2.3615
  149SAPE   H3S16434  -0.159   2.976   7.010  0.0350 -0.5146  0.2746
  149SAPE   C2416435  -0.112   2.756   7.028 -0.6744 -0.3143  0.2556
  149SAPE   H4R16436  -0.125   2.658   6.978  1.6959 -0.0627 -1.0198
  149SAPE   H4S16437  -0.178   2.759   7.117 -0.5570  1.8831  0.3193
  149SAPE   C2516438   0.033   2.760   7.072  0.1013 -0.6310  0.0749
  149SAPE   H5R16439   0.100   2.779   6.987 -2.0494  0.4940 -1.4786
  149SAPE   C2616440   0.079   2.757   7.195 -0.1217  0.2616 -0.0797
  149SAPE   H6R16441   0.188   2.770   7.208 -0.2659  0.5110  1.0120
  149SAPE   C2716442   0.011   2.739   7.328  0.0466 -0.0504 -0.0032
  149SAPE   H7R16443  -0.098   2.762   7.319  0.0304 -0.6177 -1.6226
  149SAPE   H7S16444   0.047   2.813   7.402  1.5553 -2.9802  2.4381
  149SAPE   C2816445   0.015   2.605   7.401 -0.1683 -0.2603 -0.5348
  149SAPE   H8R16446  -0.051   2.531   7.353 -1.7121  0.4247  0.4484
  149SAPE   C2916447   0.085   2.559   7.505  0.4861 -0.4398 -0.3151
  149SAPE   H9R16448   0.082   2.453   7.536 -1.5386 -0.3445 -0.0730
  149SAPE  C21016449   0.193   2.648   7.579  0.0142  0.3482  1.1136
  149SAPE  H10R16450   0.223   2.730   7.511  0.3329  0.2982  1.1889
  149SAPE  H10S16451   0.285   2.592   7.607  0.0657  0.4769  1.2023
  149SAPE  C21116452   0.141   2.714   7.703  0.1050 -0.0722 -0.3415
  149SAPE  H11R16453   0.034   2.737   7.691  0.3149  0.7066 -0.8094
  149SAPE  C21216454   0.211   2.746   7.818  0.8509  0.3703  0.0494
  149SAPE  H12R16455   0.156   2.791   7.902 -1.3382 -1.2947 -0.4038
  149SAPE  C21316456   0.356   2.721   7.845 -0.2023 -0.1037  0.4131
  149SAPE  H13R16457   0.419   2.805   7.809  0.4006 -0.8818 -0.4129
  149SAPE  H13S16458   0.397   2.642   7.779 -2.7542 -1.4215  0.2907
  149SAPE  C21416459   0.381   2.703   7.995  0.1080  0.0654 -0.8585
  149SAPE  H14R16460   0.333   2.617   8.044  1.1875  0.9500  1.9549
  149SAPE  C21516461   0.465   2.777   8.073  0.2662 -0.6438  0.1152
  149SAPE  H15R16462   0.465   2.755   8.181 -1.3789 -0.3382  0.1973
  149SAPE  C21616463   0.546   2.900   8.038  0.1866  0.3358 -0.1150
  149SAPE  H16R16464   0.477   2.984   8.060 -0.5247 -0.8908  2.8946
  149SAPE  H16S16465   0.562   2.905   7.928  1.0200 -0.2029 -0.0214
  149SAPE  C21716466   0.670   2.925   8.112  0.5298 -0.2672 -0.0579
  149SAPE  H17R16467   0.656   2.915   8.222 -1.3542 -1.5792 -0.3696
  149SAPE  H17S16468   0.715   3.026   8.098 -1.2648  0.7391  0.9859
  149SAPE  C21816469   0.785   2.832   8.057  0.3861  0.8584  0.5372
  149SAPE  H18R16470   0.797   2.860   7.950  1.0412  0.3823  0.4809
  149SAPE  H18S16471   0.756   2.726   8.071  1.6870  0.2517 -1.0864
  149SAPE  C21916472   0.916   2.856   8.137  0.2983  0.3392 -0.6131
  149SAPE  H19R16473   0.953   2.951   8.095  0.6933  1.1617  1.4672
  149SAPE  H19S16474   0.986   2.773   8.114 -0.7092 -1.0224  0.9271
  149SAPE  C22016475   0.906   2.873   8.291  0.0682 -0.5985 -0.9318
  149SAPE  H20R16476   0.862   2.785   8.342 -1.2324  0.3855 -0.2922
  149SAPE  H20S16477   0.864   2.970   8.326  0.8979 -0.8097  0.7326
  149SAPE  H20T16478   1.011   2.874   8.327 -0.2801  0.4369  0.1153
  149SAPE   C3316479   0.178   2.286   7.132  0.8917 -0.4288  0.0546
  149SAPE   H3X16480   0.179   2.178   7.105 -2.4011 -1.0863  1.9912
  149SAPE   H3Y16481   0.076   2.311   7.169  0.6639  3.0542 -2.3894
  149SAPE   C3416482   0.275   2.318   7.238 -0.3103 -0.6379 -0.7334
  149SAPE   H4X16483   0.264   2.426   7.263  1.1177  0.0360 -2.7997
  149SAPE   H4Y16484   0.372   2.283   7.199  1.1949 -0.7281  2.7797
  149SAPE   C3516485   0.252   2.242   7.371 -0.7961 -0.4212 -0.8967
  149SAPE   H5X16486   0.282   2.136   7.355 -1.7008 -0.5960 -1.5027
  149SAPE   H5Y16487   0.144   2.256   7.395 -0.5756  1.3660 -0.7980
  149SAPE   C3616488   0.335   2.296   7.492  0.5013 -0.2550  0.3002
  149SAPE   H6X16489   0.318   2.405   7.490  2.8451  0.1735  0.6248
  149SAPE   H6Y16490   0.443   2.285   7.469  0.3048  1.5820 -1.8342
  149SAPE   C3716491   0.294   2.235   7.627  0.3434 -0.1982 -0.3465
  149SAPE   H7X16492   0.334   2.132   7.622 -1.1136 -0.7281 -2.6452
  149SAPE   H7Y16493   0.183   2.227   7.622  0.3780  0.0671 -2.4867
  149SAPE   C3816494   0.352   2.315   7.743  0.2811  0.3542 -0.3367
  149SAPE   H8X16495   0.288   2.404   7.763  1.9910  1.5319  0.0719
  149SAPE   H8Y16496   0.453   2.356   7.725 -0.3675  2.0282 -0.4277
  149SAPE   C3916497   0.357   2.237   7.867  0.1563 -0.0751 -0.5832
  149SAPE   H9X16498   0.416   2.146   7.843 -1.7872 -1.0594 -1.9165
  149SAPE   H9Y16499   0.254   2.205   7.892  0.1711 -0.3933 -0.9242
  149SAPE  C31016500   0.404   2.324   7.983 -0.2426 -0.0059  0.6468
  149SAPE  H10X16501   0.317   2.383   8.020  0.0635 -0.3427  1.9592
  149SAPE  H10Y16502   0.482   2.396   7.950 -0.3539 -0.1517  0.0520
  149SAPE  C31116503   0.442   2.229   8.095 -0.3165 -0.2926  0.1773
  149SAPE  H11X16504   0.553   2.238   8.100 -0.4357  1.3998  0.1682
  149SAPE  H11Y16505   0.420   2.121   8.082 -0.9501 -0.2251  0.6561
  149SAPE  C31216506   0.372   2.269   8.229  0.3585 -0.6789  0.0241
  149SAPE  H12X16507   0.392   2.191   8.305  0.6943 -0.1688  0.4631
  149SAPE  H12Y16508   0.264   2.284   8.206  0.1677  1.2080  1.8603
  149SAPE  C31316509   0.424   2.405   8.269 -0.0808  0.5196 -0.3564
  149SAPE  H13X16510   0.408   2.472   8.182 -0.2982  0.0276 -0.7003
  149SAPE  H13Y16511   0.534   2.389   8.277 -0.4246 -1.3973  1.9768
  149SAPE  C31416512   0.362   2.461   8.394 -0.4150  0.8379  0.4418
  149SAPE  H14X16513   0.406   2.561   8.412 -1.3009  1.8142 -2.3844
  149SAPE  H14Y16514   0.382   2.389   8.476 -1.7113  0.2631  0.2691
  149SAPE  C31516515   0.208   2.476   8.372 -0.2297 -0.0994  0.2243
  149SAPE  H15X16516   0.164   2.505   8.275  0.0435 -0.2032  0.0680
  149SAPE  H15Y16517   0.182   2.573   8.419 -1.1470  0.2573 -0.9969
  149SAPE  C31616518   0.118   2.365   8.436 -0.0598 -0.0708  0.9715
  149SAPE  H16X16519   0.175   2.286   8.488  0.5483 -0.5928 -0.4377
  149SAPE  H16Y16520   0.076   2.305   8.353 -1.0175  0.9787  0.6569
  149SAPE  C31716521   0.001   2.413   8.523  0.1680  0.6090  0.2071
  149SAPE  H17X16522  -0.063   2.330   8.559 -3.4011  3.1965  0.3755
  149SAPE  H17Y16523  -0.069   2.479   8.468  0.3856  0.0564 -0.7546
  149SAPE  C31816524   0.049   2.494   8.642 -0.0496 -0.6205  0.2852
  149SAPE  H18X16525   0.101   2.420   8.706  0.7883 -0.7745 -0.5572
  149SAPE  H18Y16526  -0.031   2.549   8.696  1.2093  2.6979 -0.9668
  149SAPE  H18Z16527   0.124   2.568   8.608 -0.5197 -0.4091 -0.3128
  150SAPE     N16528   5.949   3.926   6.385 -0.5116 -0.0875 -0.1504
  150SAPE   HN116529   6.031   3.986   6.407  1.0943 -1.7665 -1.2673
  150SAPE   HN216530   5.976   3.878   6.297  0.8674 -0.7239  0.5903
  150SAPE   HN316531   5.874   3.998   6.373 -0.2499  0.1557 -0.3503
  150SAPE   C1216532   5.913   3.833   6.495  0.8078  0.5589 -0.6725
  150SAPE  H12A16533   6.006   3.800   6.547  0.1206  1.4067  1.1669
  150SAPE  H12B16534   5.879   3.736   6.453 -0.4161  0.4071  0.6169
  150SAPE   C1116535   5.809   3.890   6.591 -0.7017 -0.1858  0.5528
  150SAPE  H11A16536   5.846   3.987   6.631 -1.4716  1.4569 -2.4428
  150SAPE  H11B16537   5.802   3.815   6.673  0.6899 -0.3658  0.5201
  150SAPE     P16538   5.565   3.838   6.517  0.4091 -0.3284  0.2382
  150SAPE   O1316539   5.454   3.912   6.447 -0.9303  0.3916 -0.1789
  150SAPE   O1416540   5.604   3.713   6.450 -0.0770  0.3909  0.5997
  150SAPE   O1216541   5.688   3.927   6.528 -0.6561  0.3243 -0.2252
  150SAPE   O1116542   5.527   3.810   6.670 -0.3243 -0.2193  0.0412
  150SAPE    C116543   5.495   3.907   6.766  0.0460  0.4098  0.2316
  150SAPE    HA16544   5.586   3.956   6.806  0.3170  0.3113 -0.2591
  150SAPE    HB16545   5.436   3.987   6.717 -1.3779 -1.7292 -1.7885
  150SAPE    C216546   5.416   3.847   6.881 -0.0895  0.3518  0.1522
  150SAPE    HS16547   5.458   3.899   6.970 -0.4897 -0.7531  1.0184
  150SAPE   O2116548   5.436   3.705   6.887 -0.2533 -0.1061 -0.1588
  150SAPE   C2116549   5.559   3.664   6.912 -0.4243  0.0122 -0.0335
  150SAPE   O2216550   5.654   3.734   6.946  0.1186 -0.1707  0.5268
  150SAPE   C2216551   5.563   3.508   6.901  0.0420  0.2414  0.3854
  150SAPE   H2R16552   5.503   3.476   6.989  0.1874 -1.7743 -0.2065
  150SAPE   H2S16553   5.509   3.483   6.807 -0.7955  0.8526  0.6839
  150SAPE    C316554   5.257   3.878   6.878  0.0355  0.2165 -0.4101
  150SAPE    HX16555   5.216   3.847   6.779 -0.6303 -0.1854 -0.0224
  150SAPE    HY16556   5.248   3.988   6.880 -1.7434  0.1632 -2.4226
  150SAPE   O3116557   5.179   3.807   6.977  0.0093  1.3712  0.5844
  150SAPE   C3116558   5.185   3.864   7.099 -0.1271 -0.1888 -0.1535
  150SAPE   O3216559   5.247   3.965   7.125 -0.3848 -0.2746  0.0857
  150SAPE   C3216560   5.109   3.791   7.210  0.9314 -0.4480  0.2882
  150SAPE   H2X16561   5.160   3.698   7.243  1.0086 -0.3100  0.5654
  150SAPE   H2Y16562   5.012   3.770   7.160 -0.4920  1.2798  2.1402
  150SAPE   C2316563   5.708   3.454   6.905 -0.2708  0.6334  0.4785
  150SAPE   H3R16564   5.772   3.512   6.835 -1.3496  2.2161  0.7375
  150SAPE   H3S16565   5.725   3.350   6.871 -0.4022  0.9983 -0.7518
  150SAPE   C2416566   5.779   3.459   7.046  0.3940 -0.1263 -0.2587
  150SAPE   H4R16567   5.784   3.563   7.083 -0.6111 -0.6286  1.3810
  150SAPE   H4S16568   5.883   3.420   7.047  0.4315 -0.2070 -2.3395
  150SAPE   C2516569   5.694   3.370   7.135  0.3493  0.1791 -0.1129
  150SAPE   H5R16570   5.665   3.276   7.087 -1.9364 -0.6413  2.6481
  150SAPE   C2616571   5.634   3.392   7.252 -0.2164  0.7349 -0.5834
  150SAPE   H6R16572   5.581   3.312   7.306 -0.3169  1.9322  1.1812
  150SAPE   C2716573   5.637   3.521   7.332  0.2855  1.3113  0.1791
  150SAPE   H7R16574   5.705   3.596   7.287  3.9184 -2.9571 -2.1540
  150SAPE   H7S16575   5.675   3.497   7.433  0.0056  0.0576 -0.0005
  150SAPE   C2816576   5.500   3.595   7.350 -0.2957 -0.0541  0.3029
  150SAPE   H8R16577   5.477   3.657   7.262 -0.5351 -0.2864  0.1975
  150SAPE   C2916578   5.422   3.584   7.454  0.3789  0.4839 -0.0445
  150SAPE   H9R16579   5.327   3.639   7.462 -1.5948 -2.7466  0.7430
  150SAPE  C21016580   5.448   3.506   7.580  0.3175 -0.6675  0.0534
  150SAPE  H10R16581   5.552   3.504   7.619  0.5744 -0.1123 -0.5938
  150SAPE  H10S16582   5.426   3.401   7.554  1.9218 -1.2901  1.1139
  150SAPE  C21116583   5.358   3.540   7.693  0.5666 -0.5193  0.9045
  150SAPE  H11R16584   5.284   3.620   7.681 -1.8890 -2.7553  0.4144
  150SAPE  C21216585   5.346   3.467   7.805  0.3623 -0.4486 -0.1994
  150SAPE  H12R16586   5.278   3.501   7.884  0.2715 -0.5488 -0.2346
  150SAPE  C21316587   5.422   3.344   7.836 -0.1659  0.6828  0.0849
  150SAPE  H13R16588   5.500   3.374   7.909 -1.6126  3.2373  0.7021
  150SAPE  H13S16589   5.477   3.307   7.747  0.3590 -0.4904  0.8817
  150SAPE  C21416590   5.336   3.241   7.888 -0.0223 -0.7633  0.0804
  150SAPE  H14R16591   5.239   3.231   7.837 -1.3067  1.5510  1.8988
  150SAPE  C21516592   5.358   3.158   7.991  0.4354  0.6552  0.3008
  150SAPE  H15R16593   5.282   3.083   8.017  1.7328 -1.3154 -1.2445
  150SAPE  C21616594   5.484   3.151   8.080 -0.3054 -0.0561 -0.0511
  150SAPE  H16R16595   5.513   3.255   8.108 -2.4922  0.1630  1.6990
  150SAPE  H16S16596   5.570   3.108   8.026 -0.4692  0.9434 -1.1403
  150SAPE  C21716597   5.441   3.077   8.210  0.2783  0.0786 -0.2466
  150SAPE  H17R16598   5.533   3.030   8.251  0.2218 -0.9023 -1.1999
  150SAPE  H17S16599   5.376   2.991   8.182 -0.5502 -0.2694  2.4551
  150SAPE  C21816600   5.377   3.161   8.316  0.0574 -0.2937 -0.3695
  150SAPE  H18R16601   5.269   3.180   8.301 -0.0962 -0.5944  0.3316
  150SAPE  H18S16602   5.419   3.264   8.315  0.1962 -0.3524 -1.1902
  150SAPE  C21916603   5.385   3.094   8.451 -1.0372  0.3282  0.6717
  150SAPE  H19R16604   5.483   3.106   8.503  1.5674 -0.3715 -3.5727
  150SAPE  H19S16605   5.382   2.986   8.425  3.6751  0.9941 -4.7587
  150SAPE  C22016606   5.274   3.124   8.543 -0.1545 -0.1334  0.4867
  150SAPE  H20R16607   5.187   3.070   8.501 -0.4268  0.7373 -0.0853
  150SAPE  H20S16608   5.251   3.231   8.561  0.3008  0.2572 -1.0282
  150SAPE  H20T16609   5.291   3.082   8.644  0.7411 -1.0487 -0.0121
  150SAPE   C3316610   5.071   3.885   7.324 -0.2975  0.3932 -0.0519
  150SAPE   H3X16611   4.989   3.952   7.289  1.4758  2.8143  0.1691
  150SAPE   H3Y16612   5.155   3.950   7.358  0.3212 -0.9988  1.1595
  150SAPE   C3416613   5.032   3.805   7.448  0.2798  0.4384  1.0018
  150SAPE   H4X16614   5.114   3.738   7.484  0.3500 -0.0303 -0.0028
  150SAPE   H4Y16615   4.948   3.743   7.410 -1.7877  2.5620  1.8937
  150SAPE   C3516616   4.997   3.901   7.571 -0.0296 -0.3549  0.0403
  150SAPE   H5X16617   4.944   3.988   7.527 -0.0907  0.1418  1.0602
  150SAPE   H5Y16618   5.086   3.949   7.618 -0.5709  0.5098  0.2158
  150SAPE   C3616619   4.917   3.825   7.674  0.4655  0.4669 -0.4478
  150SAPE   H6X16620   4.840   3.763   7.622 -1.7793  2.1161  0.7293
  150SAPE   H6Y16621   4.869   3.896   7.744 -0.8864 -0.4715 -0.3692
  150SAPE   C3716622   5.018   3.731   7.753 -0.5021 -0.5836  0.0556
  150SAPE   H7X16623   5.090   3.804   7.795 -0.2164 -1.0685  0.4204
  150SAPE   H7Y16624   5.072   3.673   7.674 -1.7877  1.0602 -2.1588
  150SAPE   C3816625   4.957   3.637   7.861 -0.3035 -0.9733 -0.8983
  150SAPE   H8X16626   5.041   3.581   7.907 -1.2191 -0.8388  1.0469
  150SAPE   H8Y16627   4.878   3.574   7.815 -1.7949  0.0773  0.0961
  150SAPE   C3916628   4.887   3.718   7.971  0.7686 -0.8586 -0.5277
  150SAPE   H9X16629   4.806   3.769   7.915  1.2881 -0.6381 -1.0968
  150SAPE   H9Y16630   4.954   3.795   8.015 -2.1524  1.5361  0.0048
  150SAPE  C31016631   4.822   3.638   8.081  0.6775 -0.4463  0.1166
  150SAPE  H10X16632   4.751   3.715   8.117 -0.4617 -1.4653  0.1418
  150SAPE  H10Y16633   4.898   3.612   8.158 -0.9599 -1.3419  1.5047
  150SAPE  C31116634   4.754   3.510   8.039  0.2565  0.0036  0.1933
  150SAPE  H11X16635   4.826   3.427   8.023 -0.3868 -0.5539  0.1732
  150SAPE  H11Y16636   4.676   3.518   7.960  1.1561  0.4744 -0.6691
  150SAPE  C31216637   4.678   3.447   8.165  0.1137  0.1164  0.0744
  150SAPE  H12X16638   4.603   3.523   8.196 -0.0894 -0.0433 -0.0209
  150SAPE  H12Y16639   4.746   3.423   8.249 -0.6504 -2.1430  0.1090
  150SAPE  C31316640   4.607   3.316   8.121  0.1435 -0.2413 -0.0125
  150SAPE  H13X16641   4.677   3.260   8.056  1.1017 -0.9060  1.5288
  150SAPE  H13Y16642   4.525   3.349   8.054  0.4777 -0.2762 -0.4388
  150SAPE  C31416643   4.556   3.221   8.238 -0.1389 -0.0988  0.8720
  150SAPE  H14X16644   4.499   3.287   8.307  1.6470  0.9151  1.4424
  150SAPE  H14Y16645   4.647   3.180   8.288 -1.5347 -1.3181  2.5410
  150SAPE  C31516646   4.461   3.111   8.185 -0.9803 -0.3124  0.0691
  150SAPE  H15X16647   4.512   3.058   8.101 -1.0394 -0.7603  0.3145
  150SAPE  H15Y16648   4.371   3.152   8.136  0.3451  2.5398 -0.2000
  150SAPE  C31616649   4.433   2.998   8.289 -0.6728 -0.1019  0.6870
  150SAPE  H16X16650   4.525   2.956   8.334  0.0566  1.3870  0.6405
  150SAPE  H16Y16651   4.385   2.919   8.227  1.8104 -2.1352  1.1832
  150SAPE  C31716652   4.339   3.043   8.412  0.1164 -0.2870 -0.3955
  150SAPE  H17X16653   4.247   3.093   8.375  1.3143 -0.0438 -3.2947
  150SAPE  H17Y16654   4.407   3.118   8.458  1.7335 -0.6216 -2.1150
  150SAPE  C31816655   4.292   2.916   8.493 -0.8943 -0.6291  0.4559
  150SAPE  H18X16656   4.226   2.938   8.579  0.0698  0.5882  0.9034
  150SAPE  H18Y16657   4.389   2.886   8.537  1.5722  0.3144 -3.7217
  150SAPE  H18Z16658   4.253   2.832   8.432 -0.2936  0.0038 -0.8422
  151SAPE     N16659   1.338   1.319   6.554  0.5440 -0.2699 -0.2868
  151SAPE   HN116660   1.240   1.308   6.520  0.8252 -1.1773 -0.8348
  151SAPE   HN216661   1.348   1.321   6.657  0.3883 -0.5110 -0.2667
  151SAPE   HN316662   1.369   1.413   6.521 -0.9116  0.5195  0.5098
  151SAPE   C1216663   1.430   1.216   6.492  0.0525  0.0229 -0.2151
  151SAPE  H12A16664   1.419   1.114   6.534 -0.4607 -0.1037 -0.6380
  151SAPE  H12B16665   1.532   1.249   6.518  1.0887 -4.6575  2.8461
  151SAPE   C1116666   1.403   1.206   6.337  1.0593  0.1807  0.9569
  151SAPE  H11A16667   1.484   1.150   6.284 -0.3697  0.0320 -1.1720
  151SAPE  H11B16668   1.407   1.309   6.298  1.7852  0.4917  1.8074
  151SAPE     P16669   1.221   1.015   6.308 -0.4627  0.0588  0.0641
  151SAPE   O1316670   1.084   1.002   6.369 -0.0299 -0.0911 -0.0266
  151SAPE   O1416671   1.252   0.956   6.174  0.3333  0.5894  0.7109
  151SAPE   O1216672   1.270   1.162   6.308 -0.2227  0.0725 -0.1261
  151SAPE   O1116673   1.312   0.944   6.415  0.0011 -0.5297  0.3610
  151SAPE    C116674   1.279   0.820   6.472  0.2445  0.1049 -0.7441
  151SAPE    HA16675   1.181   0.819   6.525  1.6278 -2.6460  2.1292
  151SAPE    HB16676   1.286   0.748   6.388  1.1499 -0.5922 -0.0908
  151SAPE    C216677   1.379   0.784   6.583 -0.3304  0.0597 -0.3267
  151SAPE    HS16678   1.345   0.682   6.612  1.1077 -1.4366 -3.4071
  151SAPE   O2116679   1.365   0.879   6.687 -0.0093 -0.6779 -0.4056
  151SAPE   C2116680   1.258   0.844   6.768 -0.9559  0.3482 -0.1043
  151SAPE   O2216681   1.205   0.732   6.779 -0.1422  0.1888  0.7659
  151SAPE   C2216682   1.220   0.972   6.851 -0.2104  0.1051 -0.3042
  151SAPE   H2R16683   1.312   1.003   6.904 -1.5302  1.1258  1.5047
  151SAPE   H2S16684   1.184   1.053   6.785 -0.5985 -0.1851 -0.4523
  151SAPE    C316685   1.524   0.782   6.530  0.9860  0.2566 -0.0962
  151SAPE    HX16686   1.547   0.887   6.499 -3.0333  0.7368 -2.1212
  151SAPE    HY16687   1.544   0.724   6.437 -1.0600  1.4340 -1.3514
  151SAPE   O3116688   1.626   0.754   6.632  0.1863  0.0535 -0.1481
  151SAPE   C3116689   1.639   0.630   6.654  0.3857 -0.2488 -0.7405
  151SAPE   O3216690   1.588   0.537   6.587  0.0458  0.1033 -0.5283
  151SAPE   C3216691   1.715   0.597   6.780  0.3453 -0.5403  0.5427
  151SAPE   H2X16692   1.764   0.691   6.815 -0.4128 -0.6809  2.0987
  151SAPE   H2Y16693   1.798   0.532   6.745  0.6341 -0.1354  0.4614
  151SAPE   C2316694   1.106   0.936   6.954 -0.4272 -0.4774 -0.4209
  151SAPE   H3R16695   1.023   0.890   6.896 -2.6262  0.7696  1.5568
  151SAPE   H3S16696   1.074   1.031   7.003  1.1298 -0.4002  0.5031
  151SAPE   C2416697   1.153   0.840   7.072  0.3691 -0.0476 -0.2036
  151SAPE   H4R16698   1.194   0.911   7.146 -1.0058  0.7191 -0.1464
  151SAPE   H4S16699   1.241   0.776   7.050 -0.4261 -1.5165  0.7261
  151SAPE   C2516700   1.035   0.763   7.124  0.2829  0.1135 -0.3388
  151SAPE   H5R16701   1.030   0.655   7.104 -0.4949 -0.0258  0.5196
  151SAPE   C2616702   0.943   0.802   7.215 -1.0133  0.5333 -0.6826
  151SAPE   H6R16703   0.864   0.732   7.244  0.4802 -0.7800  0.4277
  151SAPE   C2716704   0.939   0.931   7.287 -0.9784  0.5515  0.2073
  151SAPE   H7R16705   0.837   0.976   7.293 -0.0016  2.9762 -0.1526
  151SAPE   H7S16706   0.989   1.011   7.228 -1.4111  0.1825 -0.6900
  151SAPE   C2816707   0.995   0.921   7.424 -0.2509  0.0515 -0.1797
  151SAPE   H8R16708   1.105   0.914   7.420 -0.3839 -3.3945 -1.2223
  151SAPE   C2916709   0.932   0.913   7.541  0.4113 -0.0759 -0.1626
  151SAPE   H9R16710   0.983   0.891   7.636 -0.6114  0.7383  0.5864
  151SAPE  C21016711   0.781   0.898   7.563 -0.0201 -0.2477 -0.3300
  151SAPE  H10R16712   0.721   0.935   7.477  0.4926 -0.0253 -0.5982
  151SAPE  H10S16713   0.751   0.964   7.647 -1.0157 -3.4843  2.0907
  151SAPE  C21116714   0.729   0.762   7.597 -0.4910  0.4291 -0.4523
  151SAPE  H11R16715   0.683   0.701   7.519  0.5864 -1.3365  0.2397
  151SAPE  C21216716   0.729   0.704   7.719  0.9222 -0.8290  0.2471
  151SAPE  H12R16717   0.669   0.612   7.723 -0.5113  0.0399 -0.4667
  151SAPE  C21316718   0.760   0.769   7.848 -0.1165  0.5606  0.3603
  151SAPE  H13R16719   0.831   0.850   7.823 -2.0863  1.3949 -3.2644
  151SAPE  H13S16720   0.802   0.686   7.909  0.8303  0.4343 -0.4427
  151SAPE  C21416721   0.633   0.826   7.914  0.9664  0.3965  0.4931
  151SAPE  H14R16722   0.593   0.921   7.876 -0.4954 -0.7493 -1.0243
  151SAPE  C21516723   0.572   0.764   8.019 -0.2597  0.2203 -0.9400
  151SAPE  H15R16724   0.488   0.812   8.072  0.6426  0.1448  0.6209
  151SAPE  C21616725   0.593   0.639   8.097 -0.3193  0.4491  0.9008
  151SAPE  H16R16726   0.620   0.668   8.201 -1.7408  1.7988  0.9385
  151SAPE  H16S16727   0.678   0.584   8.051 -1.8775 -1.1521 -0.2022
  151SAPE  C21716728   0.474   0.542   8.092 -0.5125  0.6253  0.3044
  151SAPE  H17R16729   0.450   0.509   7.989 -1.8139  1.1664  0.4073
  151SAPE  H17S16730   0.384   0.602   8.118 -0.9618  0.5253 -0.9474
  151SAPE  C21816731   0.473   0.417   8.177 -0.2902  0.0136 -0.3130
  151SAPE  H18R16732   0.476   0.446   8.284  2.0415 -1.4310  0.0712
  151SAPE  H18S16733   0.560   0.350   8.159 -1.0524 -1.3203  0.7425
  151SAPE  C21916734   0.347   0.330   8.151  0.5700 -0.3417  0.4948
  151SAPE  H19R16735   0.363   0.274   8.056 -2.5651  1.8780 -1.5181
  151SAPE  H19S16736   0.258   0.391   8.125 -0.1252 -1.0339  1.2121
  151SAPE  C22016737   0.316   0.246   8.275  0.0037  0.6920 -0.3980
  151SAPE  H20R16738   0.413   0.206   8.313  0.0890  0.1824 -1.1368
  151SAPE  H20S16739   0.268   0.295   8.363  0.0945 -1.8276  1.1513
  151SAPE  H20T16740   0.250   0.163   8.245  1.0126 -0.7490  1.1516
  151SAPE   C3316741   1.626   0.525   6.888 -0.2784 -0.2402 -0.6698
  151SAPE   H3X16742   1.570   0.447   6.832 -1.0082  0.0002 -0.2957
  151SAPE   H3Y16743   1.542   0.595   6.909 -0.3801 -0.6555  0.3848
  151SAPE   C3416744   1.701   0.468   7.010  0.4833  0.2411  0.5658
  151SAPE   H4X16745   1.807   0.454   6.980 -0.3235 -1.6496 -1.7497
  151SAPE   H4Y16746   1.651   0.375   7.045  0.1328  0.7648  1.5033
  151SAPE   C3516747   1.702   0.559   7.129  0.1901 -0.1872 -0.2978
  151SAPE   H5X16748   1.601   0.581   7.169  1.0530  0.8225  1.4466
  151SAPE   H5Y16749   1.744   0.660   7.112 -1.4993  0.7276  0.7213
  151SAPE   C3616750   1.766   0.490   7.247  0.9806 -0.6414 -0.0245
  151SAPE   H6X16751   1.818   0.559   7.317 -1.9242  1.3434  0.3364
  151SAPE   H6Y16752   1.841   0.415   7.212 -0.5255 -1.0321 -2.6015
  151SAPE   C3716753   1.661   0.420   7.330 -0.0275  0.1133 -0.5486
  151SAPE   H7X16754   1.608   0.337   7.279 -0.8208 -1.5220  2.6464
  151SAPE   H7Y16755   1.587   0.489   7.377  0.3159 -0.7803  1.4181
  151SAPE   C3816756   1.725   0.365   7.465  0.2416  0.5210 -0.4874
  151SAPE   H8X16757   1.753   0.454   7.525 -0.9554 -0.3546  1.4729
  151SAPE   H8Y16758   1.815   0.303   7.451  1.0785  0.8447  2.6330
  151SAPE   C3916759   1.631   0.276   7.551  0.4266  0.1969 -0.2292
  151SAPE   H9X16760   1.588   0.191   7.494  2.5944 -0.2294 -1.3175
  151SAPE   H9Y16761   1.550   0.344   7.586  0.8160 -0.1241  1.3505
  151SAPE  C31016762   1.705   0.227   7.676  0.4065 -0.4054 -0.3839
  151SAPE  H10X16763   1.759   0.312   7.723 -1.0012 -1.4928  3.6280
  151SAPE  H10Y16764   1.784   0.157   7.643  0.5635  0.6037 -2.3074
  151SAPE  C31116765   1.619   0.140   7.767 -0.0189  0.6521 -0.2983
  151SAPE  H11X16766   1.588   0.044   7.720  0.9868  0.5809 -0.8332
  151SAPE  H11Y16767   1.535   0.205   7.802 -0.5394  0.1006 -0.4984
  151SAPE  C31216768   1.708   0.097   7.892 -0.2326  0.5906  0.3792
  151SAPE  H12X16769   1.754   0.179   7.951  3.2294 -1.3162  0.5639
  151SAPE  H12Y16770   1.793   0.035   7.855 -2.4340 -0.3975 -3.6358
  151SAPE  C31316771   1.640   0.005   7.991 -0.3354  0.1059  0.4270
  151SAPE  H13X16772   1.725  -0.046   8.042  0.8437 -2.1391 -3.3031
  151SAPE  H13Y16773   1.597  -0.065   7.916  3.0563 -0.7474 -0.9235
  151SAPE  C31416774   1.542   0.077   8.074  0.4020 -0.3009 -0.7944
  151SAPE  H14X16775   1.453   0.113   8.017 -1.1050 -0.4426  1.3363
  151SAPE  H14Y16776   1.587   0.167   8.119 -0.4647 -0.6076  0.7597
  151SAPE  C31516777   1.480  -0.013   8.184 -0.1856 -0.8779 -0.5149
  151SAPE  H15X16778   1.452   0.054   8.269  1.8178 -0.1300 -0.4034
  151SAPE  H15Y16779   1.552  -0.090   8.217 -0.8362 -0.7138  1.4200
  151SAPE  C31616780   1.358  -0.092   8.124 -0.0913 -0.7264  0.2162
  151SAPE  H16X16781   1.402  -0.161   8.048  1.1721 -0.9050  1.0606
  151SAPE  H16Y16782   1.282  -0.025   8.079  1.1459 -0.9992 -2.4809
  151SAPE  C31716783   1.278  -0.169   8.230 -0.1602 -0.0440  0.1480
  151SAPE  H17X16784   1.345  -0.239   8.284  0.6066  0.4813 -0.1183
  151SAPE  H17Y16785   1.204  -0.233   8.177 -0.7143 -0.0818  0.9437
  151SAPE  C31816786   1.213  -0.086   8.346 -0.8595  0.7510 -0.1215
  151SAPE  H18X16787   1.282  -0.015   8.395 -0.5990 -0.1478  0.8596
  151SAPE  H18Y16788   1.159  -0.145   8.423  0.1120  1.5094  1.1814
  151SAPE  H18Z16789   1.129  -0.030   8.300 -1.1451 -0.9775 -1.8635
  152SAPE     N16790   5.867   5.823   6.309 -0.1967 -0.8824  0.2498
  152SAPE   HN116791   5.835   5.914   6.346 -1.0480 -1.0767  0.0209
  152SAPE   HN216792   5.836   5.745   6.371 -0.7751 -0.6912  0.2076
  152SAPE   HN316793   5.970   5.821   6.297 -0.3076 -0.6845 -0.8230
  152SAPE   C1216794   5.795   5.819   6.178 -0.3065  0.1818  1.1376
  152SAPE  H12A16795   5.859   5.877   6.109  1.8749 -0.7269  2.2786
  152SAPE  H12B16796   5.691   5.856   6.170  0.2941  1.5589 -1.7701
  152SAPE   C1116797   5.793   5.683   6.121  0.4722  0.3006  0.7162
  152SAPE  H11A16798   5.892   5.638   6.099 -0.9626 -1.8387 -2.1081
  152SAPE  H11B16799   5.747   5.678   6.020  1.2083  0.5473  0.3609
  152SAPE     P16800   5.610   5.509   6.188  0.2979  0.0642 -0.0116
  152SAPE   O1316801   5.495   5.598   6.160 -0.2558  0.0828  0.4849
  152SAPE   O1416802   5.639   5.401   6.094 -0.5477  0.2704  0.7738
  152SAPE   O1216803   5.737   5.600   6.216 -0.1244 -0.1398 -0.4591
  152SAPE   O1116804   5.594   5.438   6.330  0.0919  0.2369  0.5746
  152SAPE    C116805   5.699   5.349   6.376 -0.7152 -0.0734 -0.1054
  152SAPE    HA16806   5.725   5.262   6.312 -0.7962 -0.6452  0.6342
  152SAPE    HB16807   5.791   5.411   6.391 -0.4734 -0.1943 -1.0338
  152SAPE    C216808   5.648   5.308   6.515  0.1168  0.5541  0.3386
  152SAPE    HS16809   5.540   5.292   6.495  0.3691 -0.7697 -0.0435
  152SAPE   O2116810   5.654   5.419   6.614  0.2113 -0.6688 -0.0915
  152SAPE   C2116811   5.553   5.417   6.697  0.9973  0.5670  0.3652
  152SAPE   O2216812   5.440   5.363   6.679 -0.1868  0.1549 -0.8612
  152SAPE   C2216813   5.587   5.503   6.825  0.0217 -0.9690  0.2764
  152SAPE   H2R16814   5.681   5.561   6.819 -0.2373 -0.6803 -1.2683
  152SAPE   H2S16815   5.510   5.582   6.836  1.9426  1.1784 -0.9670
  152SAPE    C316816   5.714   5.184   6.572 -0.5285 -0.0133 -0.0779
  152SAPE    HX16817   5.815   5.212   6.608 -0.3955 -0.4494 -0.1031
  152SAPE    HY16818   5.741   5.111   6.493 -0.6117 -0.4562  0.2980
  152SAPE   O3116819   5.645   5.129   6.684 -0.4588 -0.3143 -0.3240
  152SAPE   C3116820   5.546   5.043   6.648 -0.3244 -0.0134 -0.1953
  152SAPE   O3216821   5.506   5.033   6.533  0.4278 -0.3103  0.2897
  152SAPE   C3216822   5.481   4.974   6.772  0.1238  0.8949 -0.5865
  152SAPE   H2X16823   5.553   4.899   6.810 -1.7793  0.4520  2.5180
  152SAPE   H2Y16824   5.403   4.914   6.721  0.1418  1.0273 -0.7703
  152SAPE   C2316825   5.595   5.415   6.955 -0.4111  0.1106  0.9326
  152SAPE   H3R16826   5.666   5.331   6.937 -0.1281 -0.5499  4.4213
  152SAPE   H3S16827   5.503   5.366   6.994  1.4465 -1.5828  3.5353
  152SAPE   C2416828   5.657   5.495   7.063 -0.6090 -0.4261 -0.1506
  152SAPE   H4R16829   5.753   5.532   7.021 -1.5741  0.9779 -1.2156
  152SAPE   H4S16830   5.693   5.437   7.151  1.8516  1.5493  0.2433
  152SAPE   C2516831   5.575   5.615   7.109 -0.0557  0.6438 -0.1230
  152SAPE   H5R16832   5.551   5.674   7.020 -1.4763 -1.4363 -1.2015
  152SAPE   C2616833   5.520   5.638   7.229 -0.2443 -0.4131 -0.4645
  152SAPE   H6R16834   5.465   5.731   7.249  0.5649 -0.1662  0.7163
  152SAPE   C2716835   5.542   5.553   7.352  0.2227  0.6169  0.4036
  152SAPE   H7R16836   5.651   5.560   7.374  0.6455  2.9412 -1.9537
  152SAPE   H7S16837   5.525   5.446   7.327 -1.6974  0.9355  0.2499
  152SAPE   C2816838   5.466   5.575   7.476 -0.0941 -0.5834 -0.0930
  152SAPE   H8R16839   5.358   5.554   7.474 -0.9276  2.4845  2.9984
  152SAPE   C2916840   5.503   5.635   7.590  0.9565  0.2293  0.0271
  152SAPE   H9R16841   5.422   5.658   7.662  1.0520  1.7412 -0.3119
  152SAPE  C21016842   5.638   5.702   7.623 -0.4636  0.2115 -0.2991
  152SAPE  H10R16843   5.638   5.808   7.656 -0.0872 -0.4459  1.9684
  152SAPE  H10S16844   5.699   5.692   7.531  0.2249 -1.6062  0.3000
  152SAPE  C21116845   5.698   5.615   7.734 -0.3246 -0.1054  0.5751
  152SAPE  H11R16846   5.775   5.543   7.703  0.4823  0.4870  1.1619
  152SAPE  C21216847   5.680   5.637   7.871  0.7267  0.4455  0.5722
  152SAPE  H12R16848   5.720   5.565   7.944  0.9941 -1.0700 -1.0020
  152SAPE  C21316849   5.591   5.751   7.929  0.2898  0.3629  0.6728
  152SAPE  H13R16850   5.485   5.719   7.936  0.1228  0.9706  0.9743
  152SAPE  H13S16851   5.583   5.836   7.858 -4.5368  0.9452  1.6142
  152SAPE  C21416852   5.652   5.807   8.057 -0.3734  0.2918 -0.5363
  152SAPE  H14R16853   5.746   5.756   8.085 -1.6593 -1.2469  1.2338
  152SAPE  C21516854   5.598   5.900   8.143 -0.9122 -1.0303 -0.4029
  152SAPE  H15R16855   5.658   5.937   8.227  2.2357 -1.3474 -2.3692
  152SAPE  C21616856   5.471   5.970   8.119  0.3978 -0.3183  0.0025
  152SAPE  H16R16857   5.398   5.904   8.067  0.6541 -1.6945  1.3076
  152SAPE  H16S16858   5.478   6.061   8.056  0.6586 -0.7232 -0.5575
  152SAPE  C21716859   5.405   6.026   8.251 -0.5915  0.4254  0.1778
  152SAPE  H17R16860   5.311   6.066   8.209 -0.7298 -2.0038 -2.0435
  152SAPE  H17S16861   5.464   6.109   8.297 -0.2104 -0.4561  1.3435
  152SAPE  C21816862   5.379   5.932   8.371 -0.1549  0.1981 -0.5357
  152SAPE  H18R16863   5.472   5.879   8.400  0.2297  1.4774  0.6832
  152SAPE  H18S16864   5.315   5.847   8.337  0.9945 -1.2794  0.8449
  152SAPE  C21916865   5.324   6.008   8.491 -0.2906  1.1823  0.4414
  152SAPE  H19R16866   5.232   6.062   8.461 -0.9151 -0.0616  0.0293
  152SAPE  H19S16867   5.400   6.078   8.530  1.3684 -0.7723  0.8556
  152SAPE  C22016868   5.282   5.926   8.617 -0.6251  0.1201 -0.1218
  152SAPE  H20R16869   5.195   5.859   8.597 -1.0923  0.4318  0.8461
  152SAPE  H20S16870   5.264   5.999   8.699  0.1171 -0.8507  0.9288
  152SAPE  H20T16871   5.368   5.863   8.646 -1.2091 -0.4534  0.4035
  152SAPE   C3316872   5.429   5.067   6.885  0.5627  0.1117 -1.0457
  152SAPE   H3X16873   5.331   5.110   6.854 -0.8808 -1.2662  1.3121
  152SAPE   H3Y16874   5.494   5.156   6.900 -0.1767  0.7845 -1.7486
  152SAPE   C3416875   5.399   4.986   7.014 -0.3412  0.1094  0.1360
  152SAPE   H4X16876   5.339   4.897   6.988 -0.3680  0.3595 -0.6936
  152SAPE   H4Y16877   5.341   5.047   7.086  0.0620  0.3478  0.2634
  152SAPE   C3516878   5.532   4.947   7.083  0.3936  0.6557  0.5883
  152SAPE   H5X16879   5.620   4.985   7.027  2.0444 -3.5022 -0.0242
  152SAPE   H5Y16880   5.551   4.837   7.086  0.7958  0.7432  2.0042
  152SAPE   C3616881   5.555   5.012   7.222 -0.5710 -0.0489  0.9349
  152SAPE   H6X16882   5.516   5.116   7.232  1.2000  0.7258  0.2415
  152SAPE   H6Y16883   5.663   5.005   7.247 -0.3789  4.5256  2.3101
  152SAPE   C3716884   5.497   4.921   7.334 -0.3391  0.1198  0.1959
  152SAPE   H7X16885   5.538   4.821   7.309 -1.9643 -0.8155  1.1248
  152SAPE   H7Y16886   5.388   4.918   7.311 -0.0299 -1.8722 -1.2675
  152SAPE   C3816887   5.539   4.955   7.474  0.7375 -0.8488 -0.1941
  152SAPE   H8X16888   5.643   4.919   7.484  0.7339 -0.5491  1.0149
  152SAPE   H8Y16889   5.476   4.894   7.542 -0.6978 -0.0373 -0.7308
  152SAPE   C3916890   5.503   5.097   7.519 -0.0417  0.0259 -0.8428
  152SAPE   H9X16891   5.397   5.102   7.486  0.5622  0.6894 -2.8571
  152SAPE   H9Y16892   5.556   5.170   7.454 -1.4959  2.3348  0.3966
  152SAPE  C31016893   5.512   5.118   7.668 -0.5302 -0.1221 -0.1154
  152SAPE  H10X16894   5.613   5.099   7.711 -0.0093 -0.8478 -1.6005
  152SAPE  H10Y16895   5.447   5.047   7.723 -0.5372 -2.0487 -2.4452
  152SAPE  C31116896   5.492   5.261   7.709 -0.3966  0.0824  0.0535
  152SAPE  H11X16897   5.385   5.290   7.695  0.1153  2.5045  0.8772
  152SAPE  H11Y16898   5.562   5.335   7.665  0.9146 -1.4326 -0.5328
  152SAPE  C31216899   5.527   5.288   7.860  0.7945 -0.2201 -0.0366
  152SAPE  H12X16900   5.486   5.388   7.884 -0.1792 -0.7946  0.7886
  152SAPE  H12Y16901   5.637   5.282   7.873  0.6383 -3.5494  0.6646
  152SAPE  C31316902   5.469   5.191   7.967 -0.0013  0.2194 -0.5918
  152SAPE  H13X16903   5.520   5.092   7.973 -4.1049 -2.2179 -2.0473
  152SAPE  H13Y16904   5.362   5.178   7.940 -0.6705  0.7948  1.6287
  152SAPE  C31416905   5.480   5.248   8.108  0.2997  0.6797  0.1707
  152SAPE  H14X16906   5.396   5.320   8.109 -2.1203 -1.8950 -1.4168
  152SAPE  H14Y16907   5.584   5.285   8.119  0.5884  0.0908 -0.5057
  152SAPE  C31516908   5.463   5.147   8.218 -0.8063  0.9515  0.0846
  152SAPE  H15X16909   5.380   5.074   8.203 -0.0140 -0.2640  1.3011
  152SAPE  H15Y16910   5.440   5.209   8.307 -1.2690 -0.7124  1.1808
  152SAPE  C31616911   5.591   5.057   8.249  0.5311  0.1481  0.0657
  152SAPE  H16X16912   5.667   5.119   8.300  1.2158 -1.1677  0.6956
  152SAPE  H16Y16913   5.635   5.027   8.151 -1.8639 -1.0694 -0.7144
  152SAPE  C31716914   5.554   4.937   8.338  0.4942 -0.2511 -1.0464
  152SAPE  H17X16915   5.645   4.895   8.387  0.6001 -0.0923 -1.1036
  152SAPE  H17Y16916   5.514   4.856   8.273 -0.2930 -0.1627 -0.6789
  152SAPE  C31816917   5.461   4.953   8.455 -0.1515  0.3456 -0.5320
  152SAPE  H18X16918   5.366   4.997   8.418 -1.0741 -1.4402 -0.3887
  152SAPE  H18Y16919   5.507   5.032   8.518 -0.1126  1.8905 -2.4208
  152SAPE  H18Z16920   5.423   4.860   8.503 -0.4916 -1.2503 -3.6476
  153SAPE     N16921   0.449   5.402   6.305 -0.1713 -0.1316  0.4446
  153SAPE   HN116922   0.362   5.392   6.249 -0.2613  0.9309  0.3837
  153SAPE   HN216923   0.523   5.433   6.239  0.5710  1.4547  1.9586
  153SAPE   HN316924   0.484   5.314   6.348  1.7974 -1.3637 -3.2831
  153SAPE   C1216925   0.442   5.522   6.406  0.3447  0.1548  0.7922
  153SAPE  H12A16926   0.549   5.552   6.412 -0.0996  1.7710  0.9935
  153SAPE  H12B16927   0.408   5.485   6.505  0.1178 -0.9564  0.3175
  153SAPE   C1116928   0.348   5.630   6.349 -0.4424  0.2487 -0.2003
  153SAPE  H11A16929   0.250   5.581   6.362 -1.0762  1.3512 -0.7066
  153SAPE  H11B16930   0.372   5.640   6.241  0.4111  1.3080  0.0628
  153SAPE     P16931   0.418   5.884   6.365 -0.2190 -0.3359 -0.0850
  153SAPE   O1316932   0.517   5.844   6.262 -0.2914 -0.4315  0.3615
  153SAPE   O1416933   0.302   5.965   6.316 -0.1337  0.8034 -0.1848
  153SAPE   O1216934   0.354   5.750   6.428 -0.1403 -0.1188  0.0987
  153SAPE   O1116935   0.496   5.964   6.476 -0.1564 -0.4770 -0.6670
  153SAPE    C116936   0.482   5.935   6.617  0.9201 -0.1292  0.4147
  153SAPE    HA16937   0.470   6.035   6.664  1.0450  0.4537 -0.7563
  153SAPE    HB16938   0.390   5.878   6.642 -1.6488  4.1147  1.6567
  153SAPE    C216939   0.613   5.881   6.686  0.0440 -0.6245  0.2800
  153SAPE    HS16940   0.617   5.777   6.647  0.2260 -0.7076  0.5185
  153SAPE   O2116941   0.590   5.880   6.826 -0.2082 -0.0027  0.2129
  153SAPE   C2116942   0.676   5.812   6.892  0.3815  0.3714 -0.2072
  153SAPE   O2216943   0.752   5.730   6.841  0.3663  0.0224 -0.0576
  153SAPE   C2216944   0.666   5.842   7.045 -0.8637 -0.5195 -0.2243
  153SAPE   H2R16945   0.757   5.807   7.098 -0.2137  1.0211 -0.2625
  153SAPE   H2S16946   0.664   5.953   7.053  0.3740 -0.5641  1.1359
  153SAPE    C316947   0.743   5.947   6.634 -0.7161 -0.8597 -0.0299
  153SAPE    HX16948   0.755   5.930   6.525 -1.2339  2.1053 -0.6511
  153SAPE    HY16949   0.829   5.904   6.691 -0.1389 -1.1264 -1.0725
  153SAPE   O3116950   0.735   6.092   6.641 -0.2065 -0.5531 -0.3300
  153SAPE   C3116951   0.783   6.146   6.747  0.7537  0.5777 -0.3723
  153SAPE   O3216952   0.826   6.094   6.847 -0.1792 -0.0762 -0.2348
  153SAPE   C3216953   0.788   6.298   6.729 -0.5550  0.2694 -0.1377
  153SAPE   H2X16954   0.827   6.305   6.625  1.0553  0.9095  0.4686
  153SAPE   H2Y16955   0.872   6.340   6.789  0.4645 -1.4907 -0.2748
  153SAPE   C2316956   0.542   5.785   7.102  0.7366 -0.4002 -1.0967
  153SAPE   H3R16957   0.513   5.689   7.055  1.1468 -0.9013 -0.3395
  153SAPE   H3S16958   0.457   5.856   7.089 -0.8017 -1.5259  1.9859
  153SAPE   C2416959   0.543   5.765   7.254  0.3053 -0.1488  0.4078
  153SAPE   H4R16960   0.603   5.674   7.274 -0.0791 -0.2927  0.9069
  153SAPE   H4S16961   0.436   5.758   7.280 -0.4439  2.9300 -1.3498
  153SAPE   C2516962   0.588   5.875   7.348 -0.0596  0.1453 -0.4048
  153SAPE   H5R16963   0.598   5.972   7.296 -0.0929 -0.9162 -2.5143
  153SAPE   C2616964   0.626   5.862   7.479 -1.3225  0.4838 -0.2112
  153SAPE   H6R16965   0.658   5.959   7.520 -0.9025 -0.6471  2.3454
  153SAPE   C2716966   0.642   5.738   7.559  0.0757 -0.6137 -1.1370
  153SAPE   H7R16967   0.736   5.737   7.618  1.3522 -3.9164 -2.9550
  153SAPE   H7S16968   0.643   5.653   7.487 -1.2784 -2.3582  0.8029
  153SAPE   C2816969   0.527   5.709   7.661 -0.4279 -0.6822  0.0811
  153SAPE   H8R16970   0.435   5.687   7.605  1.0916 -0.7021 -2.5353
  153SAPE   C2916971   0.523   5.699   7.795  0.0048  0.1956 -0.1341
  153SAPE   H9R16972   0.424   5.685   7.841  0.3521  1.5550  1.1055
  153SAPE  C21016973   0.638   5.716   7.883 -0.5386  0.6558 -0.1566
  153SAPE  H10R16974   0.683   5.817   7.871  1.5230  0.2083  2.6549
  153SAPE  H10S16975   0.720   5.646   7.855 -0.8274 -0.4646  1.6359
  153SAPE  C21116976   0.599   5.709   8.030  0.4309 -0.4625  0.2167
  153SAPE  H11R16977   0.617   5.797   8.093 -0.3935  0.7662 -1.1979
  153SAPE  C21216978   0.550   5.610   8.099 -0.8364  0.7453 -0.3355
  153SAPE  H12R16979   0.526   5.621   8.206  0.2998 -2.2013  0.3448
  153SAPE  C21316980   0.515   5.473   8.059 -0.0411  0.2651  0.3569
  153SAPE  H13R16981   0.577   5.454   7.968 -0.5754  0.0202  0.0380
  153SAPE  H13S16982   0.414   5.473   8.012 -0.2718 -1.4947  0.7873
  153SAPE  C21416983   0.531   5.367   8.165 -0.0395 -0.2304  0.2535
  153SAPE  H14R16984   0.440   5.318   8.204  0.2703 -0.1616  1.0779
  153SAPE  C21516985   0.650   5.305   8.203  0.7798  0.1467  0.3026
  153SAPE  H15R16986   0.649   5.238   8.290 -2.4741  1.0725  1.1096
  153SAPE  C21616987   0.793   5.345   8.156 -0.3161 -0.1660  0.1193
  153SAPE  H16R16988   0.850   5.359   8.250  1.2543 -0.0154 -0.8211
  153SAPE  H16S16989   0.796   5.442   8.103  0.6812  1.1705  2.4725
  153SAPE  C21716990   0.858   5.245   8.071 -0.5863  0.1500  0.9398
  153SAPE  H17R16991   0.828   5.140   8.087 -1.7403 -0.4653 -3.6887
  153SAPE  H17S16992   0.968   5.254   8.083  0.2733 -2.3712 -2.9181
  153SAPE  C21816993   0.828   5.281   7.914 -0.0693 -0.1193 -0.7344
  153SAPE  H18R16994   0.852   5.389   7.908 -2.4929  0.6405  1.3178
  153SAPE  H18S16995   0.720   5.261   7.895  0.3596 -3.0564 -0.5691
  153SAPE  C21916996   0.904   5.190   7.819 -0.4360 -0.1587 -0.0066
  153SAPE  H19R16997   0.880   5.090   7.861 -0.0132  0.4143  1.6615
  153SAPE  H19S16998   1.015   5.201   7.824  0.1659 -4.4583 -0.4088
  153SAPE  C22016999   0.855   5.213   7.671  0.4601 -0.6317 -0.4074
  153SAPE  H20R17000   0.893   5.313   7.641  1.1239 -0.8576 -0.3383
  153SAPE  H20S17001   0.744   5.213   7.666  0.0527  3.9856  2.1815
  153SAPE  H20T17002   0.907   5.135   7.612 -2.0873 -1.5737 -1.5757
  153SAPE   C3317003   0.668   6.388   6.766  0.8767 -0.5507 -0.6051
  153SAPE   H3X17004   0.571   6.337   6.745  0.2918 -0.0518  0.7726
  153SAPE   H3Y17005   0.677   6.476   6.699 -0.5404 -1.8272 -2.6056
  153SAPE   C3417006   0.659   6.445   6.911 -0.9043  0.9376  0.2320
  153SAPE   H4X17007   0.564   6.499   6.927 -1.3351  0.1752  0.3060
  153SAPE   H4Y17008   0.748   6.510   6.923  0.0091 -0.0038 -1.0387
  153SAPE   C3517009   0.656   6.341   7.024 -0.3188  0.4499 -0.9607
  153SAPE   H5X17010   0.736   6.266   7.005  0.0263  0.6885 -0.4778
  153SAPE   H5Y17011   0.562   6.282   7.019  0.0598 -0.2300 -0.2964
  153SAPE   C3617012   0.664   6.391   7.169 -0.8052  0.0039  0.7557
  153SAPE   H6X17013   0.579   6.458   7.194  0.0476  1.7062 -0.6749
  153SAPE   H6Y17014   0.758   6.450   7.168  0.3694 -1.8144  0.4053
  153SAPE   C3717015   0.680   6.274   7.267 -0.3152 -0.0687  0.0735
  153SAPE   H7X17016   0.780   6.229   7.250  0.0074  0.6251  0.0871
  153SAPE   H7Y17017   0.604   6.200   7.235 -1.5614  1.1700  0.0676
  153SAPE   C3817018   0.659   6.313   7.413  0.2289 -0.5888  0.6009
  153SAPE   H8X17019   0.650   6.221   7.475 -1.2727 -0.7867  0.1239
  153SAPE   H8Y17020   0.558   6.359   7.421  0.8175  0.5893  1.7383
  153SAPE   C3917021   0.777   6.401   7.462  0.0069  0.2451  0.0361
  153SAPE   H9X17022   0.764   6.509   7.436  0.9559  0.2088 -0.6479
  153SAPE   H9Y17023   0.864   6.352   7.415 -1.0647 -1.2798 -0.4232
  153SAPE  C31017024   0.797   6.391   7.611 -0.1572  0.2315 -0.0226
  153SAPE  H10X17025   0.886   6.444   7.651 -0.6167 -1.3373  3.4241
  153SAPE  H10Y17026   0.805   6.285   7.642 -1.6806 -0.0782 -0.6273
  153SAPE  C31117027   0.681   6.453   7.688  0.6719 -0.3427 -0.0139
  153SAPE  H11X17028   0.588   6.394   7.673 -0.0052  0.7837 -0.4088
  153SAPE  H11Y17029   0.663   6.560   7.664  1.8575  0.0458  0.7433
  153SAPE  C31217030   0.718   6.469   7.838  0.1161 -0.3917 -0.1908
  153SAPE  H12X17031   0.633   6.515   7.892  0.2822 -0.8034  0.4408
  153SAPE  H12Y17032   0.806   6.536   7.849 -0.1230 -0.2725  1.1454
  153SAPE  C31317033   0.758   6.343   7.913  0.0377 -0.7232 -0.2191
  153SAPE  H13X17034   0.831   6.282   7.856  0.7960  1.2500 -1.4369
  153SAPE  H13Y17035   0.666   6.283   7.932  0.1792 -1.0793 -0.6561
  153SAPE  C31417036   0.805   6.373   8.059  0.1748  0.0554 -0.2516
  153SAPE  H14X17037   0.747   6.448   8.116  1.0179  1.0766 -0.7007
  153SAPE  H14Y17038   0.908   6.412   8.041  0.9152 -2.2020 -1.3607
  153SAPE  C31517039   0.828   6.239   8.133 -0.1688 -0.2536  0.5205
  153SAPE  H15X17040   0.909   6.175   8.093 -1.2439 -2.5930  1.9084
  153SAPE  H15Y17041   0.740   6.172   8.121 -0.0612  0.0073 -2.4937
  153SAPE  C31617042   0.861   6.263   8.277  0.4898 -0.2612  0.1417
  153SAPE  H16X17043   0.776   6.323   8.317  1.4169  1.4386 -0.3355
  153SAPE  H16Y17044   0.943   6.338   8.272  0.4818 -0.3449 -1.7242
  153SAPE  C31717045   0.896   6.141   8.369  0.2200 -0.1588 -0.0758
  153SAPE  H17X17046   0.975   6.076   8.323  0.4670 -0.1604  0.3496
  153SAPE  H17Y17047   0.796   6.093   8.380  0.7572 -0.8985  2.1371
  153SAPE  C31817048   0.941   6.196   8.506  0.1169  0.3395 -0.4035
  153SAPE  H18X17049   0.994   6.118   8.566  0.4010 -0.1359 -1.2523
  153SAPE  H18Y17050   0.857   6.230   8.569  0.5887 -2.5455  2.0316
  153SAPE  H18Z17051   1.008   6.284   8.495 -1.0252  1.0476 -2.3031
  154SAPE     N17052   0.535   3.215   5.820 -0.7187 -0.0253  0.3651
  154SAPE   HN117053   0.450   3.273   5.804 -1.9057 -1.5916  0.7061
  154SAPE   HN217054   0.578   3.182   5.732  0.8782 -0.1180  1.1395
  154SAPE   HN317055   0.508   3.126   5.867 -1.2464  0.1510  0.4091
  154SAPE   C1217056   0.620   3.288   5.905  0.1386 -0.0503 -0.6560
  154SAPE  H12A17057   0.596   3.396   5.887 -1.5476 -0.5625 -1.7332
  154SAPE  H12B17058   0.729   3.280   5.887  0.1601 -2.0013  0.1809
  154SAPE   C1117059   0.601   3.249   6.056 -0.1845  0.1131  0.0283
  154SAPE  H11A17060   0.502   3.280   6.096  0.2317  1.6101 -0.0363
  154SAPE  H11B17061   0.672   3.314   6.113 -0.8214  1.5466 -0.7406
  154SAPE     P17062   0.745   3.032   6.094  0.5737 -0.4045 -0.0534
  154SAPE   O1317063   0.714   2.892   6.068 -0.6225  0.0921  0.7529
  154SAPE   O1417064   0.855   3.094   6.009 -0.7365 -0.2102  0.0974
  154SAPE   O1217065   0.610   3.107   6.073 -0.3034 -0.5387 -0.4932
  154SAPE   O1117066   0.767   3.061   6.242 -0.4603 -0.2823 -0.5733
  154SAPE    C117067   0.885   3.006   6.313  0.2875 -0.0360  0.3611
  154SAPE    HA17068   0.950   2.953   6.240 -1.1772 -1.2751 -0.0960
  154SAPE    HB17069   0.933   3.087   6.371 -1.4706 -0.9462  3.3280
  154SAPE    C217070   0.857   2.896   6.414 -0.3499 -0.6109  0.0044
  154SAPE    HS17071   0.835   2.802   6.358 -0.3815 -0.7628  0.2737
  154SAPE   O2117072   0.757   2.939   6.507 -0.3022 -0.1088 -0.3221
  154SAPE   C2117073   0.637   2.924   6.477  0.0827  0.0068 -0.4690
  154SAPE   O2217074   0.594   2.873   6.377  0.3959  0.1544 -0.0750
  154SAPE   C2217075   0.551   2.962   6.606  0.3645 -0.1499 -0.4617
  154SAPE   H2R17076   0.581   2.896   6.690  0.8890 -0.5526 -0.9566
  154SAPE   H2S17077   0.584   3.065   6.628  2.8061 -0.9077 -0.2839
  154SAPE    C317078   0.989   2.863   6.497  0.1126 -0.0457 -0.4598
  154SAPE    HX17079   1.014   2.952   6.559 -1.5492  0.4418 -0.4381
  154SAPE    HY17080   1.061   2.837   6.416 -0.7952 -0.7914 -1.0372
  154SAPE   O3117081   0.955   2.741   6.571  0.2148  0.3511  0.2291
  154SAPE   C3117082   1.041   2.722   6.673  0.1741 -0.1651 -0.2599
  154SAPE   O3217083   1.144   2.786   6.687 -0.0024  0.2602  0.4953
  154SAPE   C3217084   0.975   2.627   6.774 -0.1438 -0.6497 -0.8311
  154SAPE   H2X17085   0.965   2.527   6.727 -0.7870 -1.6883  1.3997
  154SAPE   H2Y17086   0.869   2.659   6.782 -0.2477 -1.4095  1.3833
  154SAPE   C2317087   0.395   2.941   6.567 -1.1478 -0.2749  0.7965
  154SAPE   H3R17088   0.375   2.836   6.535 -0.4909  0.1590 -1.2051
  154SAPE   H3S17089   0.378   3.008   6.479 -0.1767  0.4225  1.1240
  154SAPE   C2417090   0.294   2.984   6.680  0.0942  0.0958  0.0548
  154SAPE   H4R17091   0.300   2.910   6.763 -0.3810 -1.6710 -1.4036
  154SAPE   H4S17092   0.192   2.979   6.635 -0.2074  1.0621  0.6090
  154SAPE   C2517093   0.316   3.126   6.721 -0.4045 -0.0914  1.2196
  154SAPE   H5R17094   0.355   3.195   6.645 -1.0451  2.2366  2.8649
  154SAPE   C2617095   0.299   3.177   6.846  0.0965  0.1356 -0.3606
  154SAPE   H6R17096   0.305   3.287   6.858  0.6431  0.1294 -0.5685
  154SAPE   C2717097   0.239   3.097   6.966  0.2422 -0.5479  0.1005
  154SAPE   H7R17098   0.173   3.020   6.922 -1.2503  1.7587 -1.9206
  154SAPE   H7S17099   0.163   3.158   7.019  1.7957 -0.2208  2.1007
  154SAPE   C2817100   0.341   3.033   7.058 -0.1034  0.7835  0.6473
  154SAPE   H8R17101   0.423   2.973   7.016 -2.5778 -1.5743 -1.2315
  154SAPE   C2917102   0.345   3.026   7.194 -0.2737 -0.3709  0.2094
  154SAPE   H9R17103   0.436   2.985   7.240  0.6497  0.8090 -0.4974
  154SAPE  C21017104   0.249   3.085   7.293  0.5755 -0.3398 -0.9461
  154SAPE  H10R17105   0.228   3.014   7.377  2.3511 -0.7763 -0.8472
  154SAPE  H10S17106   0.153   3.106   7.241  0.8215 -0.4481 -1.4420
  154SAPE  C21117107   0.308   3.205   7.356 -0.3647  0.3441 -0.6398
  154SAPE  H11R17108   0.347   3.277   7.283  0.7789  1.3128  0.8705
  154SAPE  C21217109   0.298   3.240   7.486 -0.3814 -0.2685 -0.3606
  154SAPE  H12R17110   0.358   3.316   7.538 -0.3720 -1.0231  0.7968
  154SAPE  C21317111   0.227   3.162   7.594 -0.0057 -0.6638  0.7411
  154SAPE  H13R17112   0.159   3.082   7.558 -2.0963  1.0463  0.7441
  154SAPE  H13S17113   0.152   3.225   7.646 -1.6379 -0.9003 -1.2335
  154SAPE  C21417114   0.323   3.119   7.701  0.2650 -0.1701  0.2206
  154SAPE  H14R17115   0.351   3.012   7.694 -1.0734 -0.4629 -1.2328
  154SAPE  C21517116   0.385   3.195   7.795  0.7383 -0.3963 -0.1537
  154SAPE  H15R17117   0.459   3.148   7.862  0.6946 -2.2374 -1.3362
  154SAPE  C21617118   0.359   3.348   7.815 -0.1758 -0.1621  0.3058
  154SAPE  H16R17119   0.292   3.391   7.738  1.6047  1.6571 -0.3132
  154SAPE  H16S17120   0.453   3.406   7.822  0.5179 -1.1886 -0.1695
  154SAPE  C21717121   0.284   3.362   7.948 -0.6387  0.0632  0.7005
  154SAPE  H17R17122   0.181   3.323   7.932 -0.2336 -1.6723  2.0229
  154SAPE  H17S17123   0.267   3.468   7.974 -5.4405 -0.0745 -0.7926
  154SAPE  C21817124   0.340   3.286   8.076  0.3831  0.6085 -0.5797
  154SAPE  H18R17125   0.440   3.323   8.105  1.6508 -1.5619 -1.9282
  154SAPE  H18S17126   0.348   3.179   8.047 -1.7441 -0.5280  2.4751
  154SAPE  C21917127   0.254   3.286   8.200 -0.4612  0.0447 -0.1881
  154SAPE  H19R17128   0.148   3.261   8.179 -0.2218 -0.6772 -0.5590
  154SAPE  H19S17129   0.257   3.384   8.254  0.1272 -0.5672  0.9307
  154SAPE  C22017130   0.306   3.190   8.303  0.1954  0.5787  0.2782
  154SAPE  H20R17131   0.414   3.191   8.327  0.4323 -2.0778 -0.4250
  154SAPE  H20S17132   0.278   3.084   8.286 -0.4244  0.6684  0.7051
  154SAPE  H20T17133   0.251   3.214   8.396 -1.7661  1.9776 -1.1385
  154SAPE   C3317134   1.041   2.624   6.917  1.0908  0.8001 -0.0803
  154SAPE   H3X17135   1.152   2.625   6.915  1.2574 -2.9343 -1.6176
  154SAPE   H3Y17136   1.016   2.528   6.968  2.3544 -0.0715 -1.0540
  154SAPE   C3417137   0.983   2.728   7.014 -0.1552  0.0104 -0.5582
  154SAPE   H4X17138   0.874   2.743   6.997 -0.4533  1.0755  1.8712
  154SAPE   H4Y17139   1.028   2.827   6.992  0.4195 -0.4691 -1.5938
  154SAPE   C3517140   1.030   2.728   7.172  0.1190 -0.1827  0.1039
  154SAPE   H5X17141   0.998   2.636   7.225  1.2108 -1.1907 -0.9296
  154SAPE   H5Y17142   0.964   2.807   7.214 -2.3972 -0.9837 -2.0301
  154SAPE   C3617143   1.179   2.760   7.180 -0.1563 -1.0760  0.1536
  154SAPE   H6X17144   1.205   2.835   7.102  1.4511 -0.8838  0.8420
  154SAPE   H6Y17145   1.226   2.660   7.164  1.3682 -0.2216 -0.8957
  154SAPE   C3717146   1.226   2.798   7.322  0.3928  0.1360  0.7629
  154SAPE   H7X17147   1.161   2.732   7.383  0.3438 -0.9085 -0.3696
  154SAPE   H7Y17148   1.196   2.905   7.319 -0.2209  0.0187 -3.1912
  154SAPE   C3817149   1.374   2.786   7.340  0.4314 -0.6458 -0.5998
  154SAPE   H8X17150   1.415   2.850   7.259 -4.0085 -0.1933 -2.8052
  154SAPE   H8Y17151   1.411   2.682   7.332 -0.7147 -1.0621 -0.7557
  154SAPE   C3917152   1.440   2.835   7.466  0.2898 -0.2739 -0.4160
  154SAPE   H9X17153   1.429   2.769   7.554  1.6106  3.9474  3.2643
  154SAPE   H9Y17154   1.413   2.937   7.500  2.8044  0.3891 -0.1587
  154SAPE  C31017155   1.595   2.862   7.444  0.6984  0.0324  0.0485
  154SAPE  H10X17156   1.615   2.917   7.349 -1.7034  0.4379 -0.2861
  154SAPE  H10Y17157   1.649   2.765   7.437 -0.7662 -0.7466 -0.8652
  154SAPE  C31117158   1.677   2.934   7.550  0.3011 -0.1272 -0.5051
  154SAPE  H11X17159   1.625   3.029   7.572  0.4602 -0.5131  1.7891
  154SAPE  H11Y17160   1.781   2.955   7.519  0.8046  1.9564  2.1967
  154SAPE  C31217161   1.687   2.843   7.676  0.1348 -0.5582 -0.0225
  154SAPE  H12X17162   1.731   2.743   7.653  0.7561 -0.2153 -0.3382
  154SAPE  H12Y17163   1.585   2.814   7.710  0.1022  0.2290  0.5759
  154SAPE  C31317164   1.760   2.928   7.784  0.2980  0.0980 -1.1436
  154SAPE  H13X17165   1.696   3.020   7.782  0.3545  0.1384 -1.1097
  154SAPE  H13Y17166   1.865   2.954   7.761  0.7766 -0.9331 -0.1874
  154SAPE  C31417167   1.756   2.872   7.925  0.0469 -0.5842  0.7802
  154SAPE  H14X17168   1.790   2.766   7.919  0.0365 -0.5714  0.4945
  154SAPE  H14Y17169   1.647   2.869   7.946 -0.6051  0.8852 -1.9147
  154SAPE  C31517170   1.827   2.968   8.029  0.0486  0.2532 -0.0019
  154SAPE  H15X17171   1.795   3.070   7.999  1.6114  0.5349 -0.8081
  154SAPE  H15Y17172   1.937   2.962   8.021  0.0055 -1.3699  0.2974
  154SAPE  C31617173   1.779   2.950   8.169  0.3611  0.4167 -0.6664
  154SAPE  H16X17174   1.670   2.966   8.181 -0.3275 -3.0535 -1.2440
  154SAPE  H16Y17175   1.826   3.030   8.230 -0.5000 -0.2166  0.8780
  154SAPE  C31717176   1.802   2.804   8.220  0.8157 -0.7917  0.0327
  154SAPE  H17X17177   1.911   2.784   8.225  0.8016 -0.5680  3.2108
  154SAPE  H17Y17178   1.753   2.722   8.163  0.4677  0.1424 -1.0700
  154SAPE  C31817179   1.744   2.787   8.359 -0.3744 -0.5818  0.2777
  154SAPE  H18X17180   1.757   2.683   8.396  3.9190 -0.0713  0.6730
  154SAPE  H18Y17181   1.635   2.803   8.342 -0.6999 -2.9033 -0.2022
  154SAPE  H18Z17182   1.779   2.864   8.430  1.2838 -0.1128 -0.9622
  155SAPE     N17183   5.832   5.249   5.999 -0.6328 -0.1331  0.5358
  155SAPE   HN117184   5.817   5.213   5.903  1.0661  0.0805  0.1702
  155SAPE   HN217185   5.815   5.174   6.069  1.4505 -1.2480 -0.0905
  155SAPE   HN317186   5.765   5.327   6.017 -1.0504 -0.7424  1.7539
  155SAPE   C1217187   5.973   5.309   6.014 -0.3690  0.5747  0.5935
  155SAPE  H12A17188   5.970   5.404   5.955  2.9206  0.0870 -0.5825
  155SAPE  H12B17189   6.049   5.234   5.983  0.8626  1.4935  1.2983
  155SAPE   C1117190   6.002   5.343   6.163  0.0005  0.7081  0.4522
  155SAPE  H11A17191   5.929   5.418   6.199 -0.8319 -0.0994  0.4676
  155SAPE  H11B17192   6.104   5.386   6.173  0.7243 -0.6478 -0.6204
  155SAPE     P17193   6.061   5.200   6.373  0.3850 -0.0915  0.0382
  155SAPE   O1317194   6.020   5.074   6.438  0.6797 -0.7854  0.2457
  155SAPE   O1417195   6.205   5.233   6.361  0.2707  0.9051 -0.8092
  155SAPE   O1217196   5.985   5.221   6.239  0.5547  0.2931 -0.0285
  155SAPE   O1117197   6.005   5.320   6.460 -0.0754  0.0044  0.1062
  155SAPE    C117198   6.061   5.455   6.456  0.1079  0.4363 -0.0571
  155SAPE    HA17199   6.136   5.478   6.378  1.4096 -0.4266  0.8947
  155SAPE    HB17200   5.973   5.519   6.433  0.2236  0.6377  0.0541
  155SAPE    C217201   6.111   5.491   6.610 -0.4093  0.2845  0.6099
  155SAPE    HS17202   6.130   5.600   6.604 -1.0172  0.4027  0.7496
  155SAPE   O2117203   6.221   5.409   6.644 -0.2116  0.2317  0.1910
  155SAPE   C2117204   6.336   5.427   6.568  0.3334 -0.1938 -0.2438
  155SAPE   O2217205   6.359   5.516   6.487  0.2442  0.2099  0.3971
  155SAPE   C2217206   6.430   5.316   6.599  0.0121 -0.5182 -0.4366
  155SAPE   H2R17207   6.367   5.225   6.612 -2.5250  0.8390 -2.3144
  155SAPE   H2S17208   6.497   5.277   6.520  3.3900  0.4592  1.7616
  155SAPE    C317209   6.002   5.472   6.711 -0.0103 -0.8372  0.4232
  155SAPE    HX17210   6.002   5.363   6.734 -0.7030 -0.7367  0.9525
  155SAPE    HY17211   5.910   5.501   6.656  1.5146  1.2871 -1.1494
  155SAPE   O3117212   6.025   5.533   6.831 -0.0965 -0.1267 -0.2549
  155SAPE   C3117213   5.979   5.657   6.842  0.3343 -0.6078 -0.4216
  155SAPE   O3217214   5.926   5.724   6.751 -0.2446  0.4555  0.2427
  155SAPE   C3217215   6.003   5.706   6.987  0.4494 -0.2670 -0.7015
  155SAPE   H2X17216   6.099   5.673   7.033 -0.0876 -0.4563  0.3198
  155SAPE   H2Y17217   5.929   5.649   7.047  0.0257  0.4633 -0.5155
  155SAPE   C2317218   6.518   5.355   6.716 -0.0562  0.8860 -0.3178
  155SAPE   H3R17219   6.456   5.371   6.807 -0.4777 -2.8233  0.2324
  155SAPE   H3S17220   6.577   5.446   6.692  0.5838  1.0401  1.6471
  155SAPE   C2417221   6.623   5.256   6.743 -0.7271  0.6728 -0.3108
  155SAPE   H4R17222   6.703   5.291   6.811 -1.4606  1.1831  0.3091
  155SAPE   H4S17223   6.676   5.249   6.646  2.4404 -0.3671  1.3411
  155SAPE   C2517224   6.578   5.119   6.774  0.6102  0.5244 -0.1649
  155SAPE   H5R17225   6.539   5.070   6.684  1.6835  1.4791 -1.1911
  155SAPE   C2617226   6.598   5.049   6.889 -0.5308  0.6068 -0.0426
  155SAPE   H6R17227   6.568   4.947   6.916 -0.8888  0.8433  0.4639
  155SAPE   C2717228   6.670   5.113   6.998  0.2665 -0.3978 -0.9975
  155SAPE   H7R17229   6.748   5.181   6.960  0.9345  0.6404  1.9247
  155SAPE   H7S17230   6.735   5.039   7.049 -1.2764  0.3392  2.3859
  155SAPE   C2817231   6.591   5.180   7.107  0.0806 -0.6358  0.0786
  155SAPE   H8R17232   6.541   5.273   7.076  2.0038  0.0273 -1.1973
  155SAPE   C2917233   6.583   5.149   7.241 -0.0328 -0.3918 -0.3852
  155SAPE   H9R17234   6.512   5.206   7.302 -0.0112  1.1697 -1.7315
  155SAPE  C21017235   6.648   5.035   7.312  0.0270  0.6804  0.3378
  155SAPE  H10R17236   6.715   5.076   7.391  0.0040  1.6877 -0.1510
  155SAPE  H10S17237   6.721   4.980   7.249  1.9977  1.3708  1.9183
  155SAPE  C21117238   6.535   4.952   7.376  0.0217 -0.0757 -0.0425
  155SAPE  H11R17239   6.492   4.898   7.290 -1.0540  1.1512 -0.3255
  155SAPE  C21217240   6.496   4.930   7.501 -0.0185 -0.3698 -0.0629
  155SAPE  H12R17241   6.397   4.887   7.522 -1.0098  1.6450 -0.3140
  155SAPE  C21317242   6.556   4.996   7.625  0.0734  0.6677  0.0332
  155SAPE  H13R17243   6.661   5.027   7.607  0.5925 -0.0522  1.5779
  155SAPE  H13S17244   6.557   4.917   7.703 -0.8370 -1.0695 -1.6363
  155SAPE  C21417245   6.476   5.114   7.673  0.2569  0.1338  0.6640
  155SAPE  H14R17246   6.440   5.184   7.596  0.2984  0.4788  0.9539
  155SAPE  C21517247   6.438   5.124   7.799 -0.3311  0.2699  0.4287
  155SAPE  H15R17248   6.373   5.209   7.825 -0.5287  0.0925  0.5252
  155SAPE  C21617249   6.475   5.033   7.916 -1.1129 -0.4848 -0.5433
  155SAPE  H16R17250   6.584   5.014   7.913 -1.0954 -0.5603 -4.3841
  155SAPE  H16S17251   6.413   4.941   7.917 -1.1169 -0.5494 -2.7802
  155SAPE  C21717252   6.443   5.104   8.051 -0.4053  0.1690 -0.3823
  155SAPE  H17R17253   6.336   5.103   8.079 -0.2695  1.4550  0.2881
  155SAPE  H17S17254   6.469   5.212   8.047 -0.2525  0.2007  1.1620
  155SAPE  C21817255   6.530   5.038   8.168  0.0099  0.4950 -0.0713
  155SAPE  H18R17256   6.626   5.011   8.119  1.3277 -1.1017  3.1008
  155SAPE  H18S17257   6.486   4.939   8.193 -1.5077  1.1458 -0.0929
  155SAPE  C21917258   6.557   5.117   8.299  0.8050  0.2514 -0.8335
  155SAPE  H19R17259   6.581   5.222   8.270 -0.3585  0.5145 -0.8989
  155SAPE  H19S17260   6.643   5.068   8.348 -1.4864 -2.0073  1.2642
  155SAPE  C22017261   6.432   5.119   8.380  0.8147  0.2111  0.2959
  155SAPE  H20R17262   6.352   5.167   8.319  0.8394  1.5518  1.2679
  155SAPE  H20S17263   6.440   5.171   8.478 -1.3122  0.2915  0.4681
  155SAPE  H20T17264   6.387   5.018   8.393 -1.7999  0.8856 -2.4796
  155SAPE   C3317265   5.968   5.855   7.012 -0.4735  0.1356 -0.4401
  155SAPE   H3X17266   5.858   5.867   7.019 -0.6661 -0.6596 -1.7533
  155SAPE   H3Y17267   6.001   5.931   6.938 -1.1880 -0.9150 -1.8908
  155SAPE   C3417268   6.034   5.891   7.149 -0.0700  0.2977  0.6620
  155SAPE   H4X17269   5.984   5.980   7.194 -1.6913 -1.2660  2.0955
  155SAPE   H4Y17270   6.142   5.916   7.136 -0.2619  2.1813  2.1614
  155SAPE   C3517271   6.005   5.796   7.265 -0.1342  0.3925  0.3253
  155SAPE   H5X17272   6.060   5.701   7.253 -0.9712 -0.1489  0.7194
  155SAPE   H5Y17273   5.899   5.763   7.267  0.9873 -3.6049  2.4820
  155SAPE   C3617274   6.052   5.863   7.393  0.5612 -0.1497 -0.3995
  155SAPE   H6X17275   5.982   5.944   7.421 -0.1089 -1.5295  2.1795
  155SAPE   H6Y17276   6.156   5.900   7.380 -0.2321  2.1700 -0.5872
  155SAPE   C3717277   6.049   5.753   7.505  0.3985  0.2800  0.0333
  155SAPE   H7X17278   6.117   5.665   7.493 -0.8012 -0.8015  0.8960
  155SAPE   H7Y17279   5.945   5.715   7.509  0.3794  0.1138 -1.4515
  155SAPE   C3817280   6.061   5.800   7.652 -0.2408  0.1777 -0.6544
  155SAPE   H8X17281   6.157   5.854   7.658  0.0034 -0.4248  2.6709
  155SAPE   H8Y17282   6.064   5.707   7.712  2.2509 -1.2212 -2.7490
  155SAPE   C3917283   5.949   5.895   7.693 -0.1222 -0.4498 -1.0428
  155SAPE   H9X17284   5.854   5.851   7.657 -1.2913 -0.8382  2.1951
  155SAPE   H9Y17285   5.963   5.999   7.656 -0.6704  0.5311  1.3169
  155SAPE  C31017286   5.934   5.905   7.846  0.8014 -0.0621 -0.5545
  155SAPE  H10X17287   5.923   5.802   7.885  2.1354 -0.5258 -1.3263
  155SAPE  H10Y17288   5.838   5.954   7.874  1.9343  0.9539  1.7116
  155SAPE  C31117289   6.055   5.948   7.919  0.0666  0.7138  0.0502
  155SAPE  H11X17290   6.098   6.045   7.885  0.2576 -0.3649 -3.1659
  155SAPE  H11Y17291   6.143   5.880   7.913 -0.1018  0.5530 -0.7405
  155SAPE  C31217292   6.038   5.960   8.072  0.0749  0.7303 -0.2958
  155SAPE  H12X17293   6.025   5.862   8.123 -0.1731 -1.3161 -3.9516
  155SAPE  H12Y17294   5.953   6.022   8.107  0.9523  2.3103 -0.8729
  155SAPE  C31317295   6.158   6.038   8.138  0.0213  0.2797  0.3208
  155SAPE  H13X17296   6.140   6.143   8.106  1.8020  1.0836  1.7891
  155SAPE  H13Y17297   6.251   6.004   8.088  0.7860  1.1714  1.1022
  155SAPE  C31417298   6.183   6.030   8.281  0.5829 -0.1072 -0.3901
  155SAPE  H14X17299   6.268   6.093   8.314  0.7232 -0.3203 -0.3414
  155SAPE  H14Y17300   6.207   5.927   8.315 -3.2274 -0.6717  1.1216
  155SAPE  C31517301   6.064   6.069   8.372  0.9179  0.0749 -0.2856
  155SAPE  H15X17302   5.969   6.040   8.321 -0.4430  1.0354  1.5665
  155SAPE  H15Y17303   6.062   6.179   8.386 -0.3899 -0.2079  2.5792
  155SAPE  C31617304   6.053   5.985   8.502 -0.4481  0.2818 -0.2833
  155SAPE  H16X17305   5.991   6.047   8.570  0.4303  0.3887  0.4423
  155SAPE  H16Y17306   6.155   5.995   8.544 -0.7680  0.6899  0.4300
  155SAPE  C31717307   5.993   5.839   8.497  0.1329 -0.2911  0.2205
  155SAPE  H17X17308   6.003   5.801   8.601  1.5935 -0.3212  0.0845
  155SAPE  H17Y17309   6.048   5.780   8.421  0.1094  0.7448 -0.6280
  155SAPE  C31817310   5.844   5.830   8.461 -0.6494  0.0667 -0.1733
  155SAPE  H18X17311   5.805   5.731   8.492  1.7912 -0.7945  0.4457
  155SAPE  H18Y17312   5.835   5.839   8.351  0.3413 -0.1106 -0.2859
  155SAPE  H18Z17313   5.782   5.903   8.518 -0.6159  2.6418 -3.1595
  156SAPE     N17314   4.649   5.785   6.208 -0.3724 -0.5939 -0.0523
  156SAPE   HN117315   4.568   5.733   6.247 -1.4130  1.1016  0.1563
  156SAPE   HN217316   4.723   5.720   6.175 -1.3989 -1.3040 -1.0359
  156SAPE   HN317317   4.690   5.826   6.294  3.7974 -2.0338 -1.1281
  156SAPE   C1217318   4.603   5.889   6.103  0.0345  0.2519 -0.0343
  156SAPE  H12A17319   4.560   5.830   6.020  1.6712 -0.8679 -0.1137
  156SAPE  H12B17320   4.691   5.938   6.057  0.7194 -0.9307 -0.0244
  156SAPE   C1117321   4.509   6.000   6.176 -0.3140 -0.1566 -0.2578
  156SAPE  H11A17322   4.418   5.939   6.196 -0.7622  0.1440 -1.3174
  156SAPE  H11B17323   4.477   6.077   6.102 -0.4260  1.1525  1.0824
  156SAPE     P17324   4.575   6.016   6.437 -0.1434  0.4826  0.1264
  156SAPE   O1317325   4.685   5.913   6.442  0.1359  0.0937  0.5989
  156SAPE   O1417326   4.591   6.137   6.517  0.0422 -0.4220  0.0798
  156SAPE   O1217327   4.555   6.070   6.291 -0.2678  0.5254 -0.1411
  156SAPE   O1117328   4.435   5.947   6.455  0.3247  0.4073 -0.8624
  156SAPE    C117329   4.428   5.819   6.524 -0.3655  0.3883 -0.2737
  156SAPE    HA17330   4.354   5.755   6.471 -0.2924 -1.0675  1.2844
  156SAPE    HB17331   4.514   5.751   6.505 -1.3771 -0.4099 -2.2325
  156SAPE    C217332   4.397   5.827   6.674  0.1438 -0.0199 -0.2484
  156SAPE    HS17333   4.296   5.872   6.663 -0.2636 -0.9925 -0.5990
  156SAPE   O2117334   4.504   5.907   6.739  0.5219 -0.4495 -0.4049
  156SAPE   C2117335   4.468   6.009   6.823 -0.0217  0.6255  0.9770
  156SAPE   O2217336   4.351   6.029   6.855 -0.1771 -0.2004 -0.1908
  156SAPE   C2217337   4.586   6.097   6.867 -0.0885  0.1938 -0.0368
  156SAPE   H2R17338   4.667   6.083   6.793  0.7391  0.2716  0.8294
  156SAPE   H2S17339   4.544   6.200   6.868 -0.2679  0.1512 -1.3127
  156SAPE    C317340   4.398   5.684   6.734 -0.1340 -0.0691 -0.3808
  156SAPE    HX17341   4.489   5.629   6.702 -0.3266 -0.8033  0.3126
  156SAPE    HY17342   4.327   5.620   6.678  0.7643 -0.4884 -1.0783
  156SAPE   O3117343   4.377   5.676   6.873 -0.0955 -0.0964 -0.3765
  156SAPE   C3117344   4.248   5.694   6.915 -0.4766 -0.0301 -0.3596
  156SAPE   O3217345   4.155   5.708   6.837  0.5601  0.3598  0.1750
  156SAPE   C3217346   4.232   5.672   7.065 -0.0382  0.1102  0.4673
  156SAPE   H2X17347   4.288   5.580   7.091 -0.4823  0.5302  3.1928
  156SAPE   H2Y17348   4.122   5.667   7.078 -0.4140  3.4418 -0.5304
  156SAPE   C2317349   4.641   6.052   7.000  0.2966 -0.4280 -0.0352
  156SAPE   H3R17350   4.694   5.955   6.989  1.9894  0.4356  0.1121
  156SAPE   H3S17351   4.569   6.050   7.084  0.0559 -1.0109 -0.2492
  156SAPE   C2417352   4.753   6.151   7.042 -1.1593  0.2838 -0.2446
  156SAPE   H4R17353   4.836   6.152   6.968 -1.3997  0.7727 -0.5122
  156SAPE   H4S17354   4.809   6.114   7.131 -2.3017  2.1040  1.2957
  156SAPE   C2517355   4.693   6.288   7.086  0.3371 -0.2904 -0.0940
  156SAPE   H5R17356   4.712   6.378   7.025  0.4850 -1.0075 -1.1270
  156SAPE   C2617357   4.617   6.309   7.201 -0.8449 -0.8190  0.8481
  156SAPE   H6R17358   4.596   6.412   7.233 -0.0570 -1.1737  2.6514
  156SAPE   C2717359   4.594   6.202   7.304  0.5623 -0.1482  0.1423
  156SAPE   H7R17360   4.642   6.241   7.395  2.0065  2.4462 -1.6017
  156SAPE   H7S17361   4.645   6.105   7.282  0.6125 -1.2903  4.4396
  156SAPE   C2817362   4.443   6.186   7.317 -0.2373  0.1073  0.2563
  156SAPE   H8R17363   4.395   6.187   7.218  0.2317  2.9097 -0.0131
  156SAPE   C2917364   4.381   6.157   7.432  0.3589 -0.1175  0.4344
  156SAPE   H9R17365   4.271   6.157   7.429  0.3679  0.8576 -1.3954
  156SAPE  C21017366   4.457   6.123   7.556  0.0859  0.8997 -1.1470
  156SAPE  H10R17367   4.546   6.189   7.567  0.6896  0.0004 -0.4757
  156SAPE  H10S17368   4.500   6.022   7.540 -2.4508 -0.8742  1.9275
  156SAPE  C21117369   4.375   6.120   7.683  0.5772 -0.2420 -0.5186
  156SAPE  H11R17370   4.309   6.034   7.702 -0.5418  0.9754  1.4542
  156SAPE  C21217371   4.377   6.211   7.788 -0.0692  0.6091  0.3502
  156SAPE  H12R17372   4.316   6.184   7.876  1.7150 -2.2299  0.8799
  156SAPE  C21317373   4.468   6.330   7.795  0.7451 -0.0853 -0.5429
  156SAPE  H13R17374   4.573   6.304   7.768  0.9831  0.4882 -0.1961
  156SAPE  H13S17375   4.481   6.356   7.902 -3.7387  2.2965 -0.3319
  156SAPE  C21417376   4.406   6.451   7.715 -0.2732  0.0817 -0.0116
  156SAPE  H14R17377   4.399   6.431   7.607  0.1695 -1.9959  0.3075
  156SAPE  C21517378   4.352   6.564   7.770  0.4508 -0.3615  0.5168
  156SAPE  H15R17379   4.321   6.643   7.700  0.0851 -0.3068  0.7393
  156SAPE  C21617380   4.349   6.594   7.915  0.8121  0.1108  0.3058
  156SAPE  H16R17381   4.395   6.692   7.940  1.0320 -0.0350  0.4834
  156SAPE  H16S17382   4.409   6.521   7.974  0.4400 -0.3189  0.1583
  156SAPE  C21717383   4.198   6.587   7.977  0.3255 -0.1613  0.7463
  156SAPE  H17R17384   4.140   6.659   7.915 -0.5616  0.9617  2.7837
  156SAPE  H17S17385   4.193   6.630   8.080 -0.5676  1.4021  0.0934
  156SAPE  C21817386   4.151   6.440   7.982  0.3588 -0.1039 -0.8307
  156SAPE  H18R17387   4.193   6.385   7.896 -1.4452 -1.2592 -1.0094
  156SAPE  H18S17388   4.040   6.436   7.972  0.3209  1.6667 -1.5272
  156SAPE  C21917389   4.190   6.374   8.116 -0.4427 -0.0346  0.1462
  156SAPE  H19R17390   4.297   6.381   8.146 -0.2566 -1.9300  0.0727
  156SAPE  H19S17391   4.180   6.266   8.091  0.5430  0.1428 -1.1046
  156SAPE  C22017392   4.111   6.403   8.243  0.1361  0.2341 -0.1663
  156SAPE  H20R17393   4.002   6.397   8.222 -0.3965  2.8164  1.4672
  156SAPE  H20S17394   4.129   6.505   8.281 -1.4888  0.0307  1.2230
  156SAPE  H20T17395   4.145   6.330   8.319  1.2223 -0.0338 -0.8746
  156SAPE   C3317396   4.293   5.791   7.135  0.1718 -0.3295 -0.9492
  156SAPE   H3X17397   4.243   5.888   7.114 -0.0361 -0.6784 -2.1149
  156SAPE   H3Y17398   4.400   5.812   7.114 -0.0619  3.1318  0.5448
  156SAPE   C3417399   4.293   5.774   7.293  0.0966 -0.2246 -0.3973
  156SAPE   H4X17400   4.330   5.866   7.341 -1.5055  0.4233 -0.3484
  156SAPE   H4Y17401   4.345   5.678   7.316 -2.2485 -1.4642  0.1262
  156SAPE   C3517402   4.152   5.758   7.358 -0.2510  0.2192  0.3409
  156SAPE   H5X17403   4.136   5.648   7.353 -0.2888  0.2756 -1.2481
  156SAPE   H5Y17404   4.061   5.802   7.312 -0.1889 -0.6739 -0.6540
  156SAPE   C3617405   4.152   5.801   7.502  0.1120  0.1839  0.5349
  156SAPE   H6X17406   4.148   5.912   7.502  1.0442  0.2959 -2.1576
  156SAPE   H6Y17407   4.250   5.776   7.548 -0.3841 -0.5155  1.2449
  156SAPE   C3717408   4.048   5.726   7.588 -0.1484 -0.1285 -0.2979
  156SAPE   H7X17409   4.060   5.617   7.570 -1.7921 -0.4060  0.1431
  156SAPE   H7Y17410   3.952   5.738   7.534 -0.6675 -1.2567  0.3379
  156SAPE   C3817411   4.054   5.747   7.738 -0.2408 -0.0561  0.6654
  156SAPE   H8X17412   3.972   5.685   7.780 -0.5448  0.2158  0.4775
  156SAPE   H8Y17413   4.028   5.848   7.776  1.0768  0.8690 -0.7613
  156SAPE   C3917414   4.182   5.697   7.813  0.8071 -0.1886 -0.1120
  156SAPE   H9X17415   4.262   5.770   7.790  2.9785 -2.7168 -0.9777
  156SAPE   H9Y17416   4.217   5.593   7.796 -2.2666 -1.3489  0.0199
  156SAPE  C31017417   4.138   5.695   7.957 -0.0057  0.0507  0.0675
  156SAPE  H10X17418   4.058   5.620   7.974  0.3450  0.1344  2.4859
  156SAPE  H10Y17419   4.120   5.799   7.990 -2.4309  0.5736 -2.5587
  156SAPE  C31117420   4.250   5.641   8.047  0.6684 -0.0564 -0.6430
  156SAPE  H11X17421   4.340   5.706   8.051 -0.0441  0.9155  0.1742
  156SAPE  H11Y17422   4.273   5.536   8.018 -0.1668 -0.7363  0.9906
  156SAPE  C31217423   4.216   5.623   8.200 -0.1220 -0.1724 -0.5125
  156SAPE  H12X17424   4.300   5.567   8.246  0.3054  1.2581  0.5505
  156SAPE  H12Y17425   4.124   5.561   8.195 -0.6761  0.5947 -0.0735
  156SAPE  C31317426   4.192   5.763   8.263  0.5491 -0.2626 -0.6726
  156SAPE  H13X17427   4.109   5.819   8.215  0.3514 -0.8347 -1.0048
  156SAPE  H13Y17428   4.287   5.820   8.248  1.3265 -1.2625  0.2934
  156SAPE  C31417429   4.165   5.760   8.414 -0.0604  0.6132 -0.3646
  156SAPE  H14X17430   4.251   5.705   8.459 -1.4116 -0.8701  0.5110
  156SAPE  H14Y17431   4.079   5.700   8.450  0.4798  1.1586  1.9887
  156SAPE  C31517432   4.147   5.903   8.465 -0.3981 -0.1502 -0.6456
  156SAPE  H15X17433   4.055   5.937   8.411  0.2825  0.3331 -1.5262
  156SAPE  H15Y17434   4.238   5.959   8.436  1.1221 -1.6532  0.9275
  156SAPE  C31617435   4.140   5.905   8.621 -0.6038 -0.2185 -0.0989
  156SAPE  H16X17436   4.159   6.004   8.669  0.2409 -0.0478 -0.7469
  156SAPE  H16Y17437   4.220   5.836   8.654  0.5069  1.2525  0.4166
  156SAPE  C31717438   4.003   5.857   8.671  0.6263 -0.6655 -0.0865
  156SAPE  H17X17439   3.963   5.773   8.611 -0.6854 -0.1101 -0.0062
  156SAPE  H17Y17440   3.938   5.945   8.651  1.9321  0.3200 -0.1739
  156SAPE  C31817441   4.001   5.815   8.817 -0.4945  0.0587  0.1325
  156SAPE  H18X17442   4.016   5.906   8.879 -1.6779  0.8659 -0.7295
  156SAPE  H18Y17443   4.077   5.737   8.835  1.5104  2.2314  1.7375
  156SAPE  H18Z17444   3.904   5.766   8.838  0.8397 -1.8731  2.3033
  157SAPE     N17445   1.158   5.813   6.275 -0.1436  0.2406  0.4544
  157SAPE   HN117446   1.262   5.817   6.273  0.0390 -2.2912  0.6916
  157SAPE   HN217447   1.139   5.742   6.201 -0.6208 -0.4211  1.1818
  157SAPE   HN317448   1.120   5.906   6.252  0.2219 -0.2565 -2.4842
  157SAPE   C1217449   1.096   5.784   6.411 -0.5879 -0.2273  0.9891
  157SAPE  H12A17450   1.148   5.701   6.463 -1.3735 -2.7724 -1.9306
  157SAPE  H12B17451   0.992   5.748   6.396 -0.1814 -0.8918 -0.5010
  157SAPE   C1117452   1.100   5.919   6.489  0.0683 -0.3030 -0.0755
  157SAPE  H11A17453   1.195   5.971   6.514 -2.0287  3.4672  0.6282
  157SAPE  H11B17454   1.066   5.881   6.588  0.7431 -1.2372 -0.1817
  157SAPE     P17455   1.036   6.125   6.346 -0.2066 -0.0704 -0.0199
  157SAPE   O1317456   1.120   6.065   6.235 -0.1853  0.0746 -0.7173
  157SAPE   O1417457   0.906   6.184   6.304  0.4687  0.1621  0.0839
  157SAPE   O1217458   0.995   6.006   6.442 -0.4985  0.0300 -0.0683
  157SAPE   O1117459   1.121   6.223   6.436 -0.2607 -1.0357  0.0066
  157SAPE    C117460   1.238   6.288   6.381 -0.2448  0.3746  0.0862
  157SAPE    HA17461   1.242   6.301   6.270  1.2904  1.1746  0.2074
  157SAPE    HB17462   1.245   6.394   6.415 -2.7292  1.1080 -1.3784
  157SAPE    C217463   1.362   6.205   6.424  0.3954 -0.2050 -0.7593
  157SAPE    HS17464   1.324   6.101   6.418 -0.8224  0.2076 -0.4309
  157SAPE   O2117465   1.394   6.239   6.567 -0.2476 -0.0218 -0.0530
  157SAPE   C2117466   1.440   6.149   6.641 -0.6260  0.3449  0.5084
  157SAPE   O2217467   1.452   6.027   6.622 -0.1903 -0.0600  0.2456
  157SAPE   C2217468   1.497   6.213   6.770  0.7817 -0.5015  0.5191
  157SAPE   H2R17469   1.533   6.318   6.756 -0.8407 -0.0231 -0.2763
  157SAPE   H2S17470   1.407   6.226   6.833  0.0450  2.6446 -0.9593
  157SAPE    C317471   1.493   6.219   6.342  0.3910 -0.9597 -0.4751
  157SAPE    HX17472   1.477   6.186   6.237  1.4417  0.4080 -1.0907
  157SAPE    HY17473   1.563   6.155   6.400  1.6005  2.5440  2.2951
  157SAPE   O3117474   1.543   6.358   6.338 -0.2336 -0.2439  0.6737
  157SAPE   C3117475   1.666   6.377   6.294  0.2031  0.1879 -0.5067
  157SAPE   O3217476   1.731   6.278   6.264  0.2751  0.4970 -0.4783
  157SAPE   C3217477   1.708   6.525   6.273  0.3749 -0.1454 -1.0044
  157SAPE   H2X17478   1.633   6.604   6.296  0.6266  0.2725 -1.6076
  157SAPE   H2Y17479   1.725   6.536   6.164  1.0114  1.5458 -0.7622
  157SAPE   C2317480   1.611   6.141   6.843 -0.0290 -0.7462 -0.9077
  157SAPE   H3R17481   1.684   6.102   6.769  0.1508 -1.8975 -0.1446
  157SAPE   H3S17482   1.576   6.050   6.897  4.0999 -0.7428  2.2507
  157SAPE   C2417483   1.685   6.231   6.942  0.8193  0.0485  0.6608
  157SAPE   H4R17484   1.716   6.322   6.886  3.1270 -1.1159 -0.1320
  157SAPE   H4S17485   1.779   6.172   6.954  0.1391 -1.7501 -1.8954
  157SAPE   C2517486   1.588   6.264   7.053  0.0059 -0.9567 -1.0483
  157SAPE   H5R17487   1.491   6.303   7.017  0.3940 -1.0054 -2.1979
  157SAPE   C2617488   1.611   6.242   7.187  0.2704  0.8088 -0.0715
  157SAPE   H6R17489   1.537   6.266   7.264  0.7861  0.1436  0.6499
  157SAPE   C2717490   1.740   6.172   7.238  0.2633 -0.1195  0.0631
  157SAPE   H7R17491   1.794   6.228   7.318  0.0803 -0.8443  0.7049
  157SAPE   H7S17492   1.813   6.180   7.154  1.2615  0.9574  0.9818
  157SAPE   C2817493   1.709   6.024   7.264 -0.1509 -0.4116  0.6027
  157SAPE   H8R17494   1.682   5.978   7.169 -1.2983  1.0205  0.1916
  157SAPE   C2917495   1.747   5.950   7.372  0.6100  0.0679  0.4349
  157SAPE   H9R17496   1.738   5.841   7.367  0.4884  0.0417  1.1404
  157SAPE  C21017497   1.827   5.996   7.498 -0.4518 -0.0354 -0.1238
  157SAPE  H10R17498   1.765   6.060   7.564 -2.6230 -2.0274 -0.1146
  157SAPE  H10S17499   1.905   6.068   7.463 -2.2667  2.4201  0.5585
  157SAPE  C21117500   1.890   5.886   7.570  0.0043 -0.1232 -0.4761
  157SAPE  H11R17501   1.928   5.802   7.510  0.1089 -0.2530 -0.2270
  157SAPE  C21217502   1.926   5.880   7.700  0.4035  0.1136 -0.6269
  157SAPE  H12R17503   1.986   5.796   7.737  2.5839  1.0977 -1.7851
  157SAPE  C21317504   1.903   5.972   7.820  0.2058 -1.0822  0.6507
  157SAPE  H13R17505   1.860   6.066   7.779 -0.5161 -1.9385 -0.6665
  157SAPE  H13S17506   1.996   5.997   7.875  1.5279 -1.9737 -1.0803
  157SAPE  C21417507   1.795   5.912   7.906  0.3987  0.3878 -0.8853
  157SAPE  H14R17508   1.772   5.806   7.885  1.6546 -0.0997  0.0428
  157SAPE  C21517509   1.734   5.973   8.008  0.3428 -0.0688  0.2568
  157SAPE  H15R17510   1.645   5.924   8.051  0.8052  0.1138  1.4777
  157SAPE  C21617511   1.751   6.117   8.045  0.4033  0.4056 -1.0324
  157SAPE  H16R17512   1.652   6.166   8.034 -0.0735 -0.5737 -1.2100
  157SAPE  H16S17513   1.820   6.169   7.975  0.0467  0.1034 -1.6267
  157SAPE  C21717514   1.810   6.137   8.185  0.1388  0.4081  0.4657
  157SAPE  H17R17515   1.739   6.092   8.257 -1.0221  1.6942  0.1695
  157SAPE  H17S17516   1.807   6.247   8.205 -1.6825  0.3027  0.9483
  157SAPE  C21817517   1.948   6.083   8.212 -0.4969 -0.2675 -0.5163
  157SAPE  H18R17518   2.007   6.123   8.126 -0.0039  1.8806  0.7431
  157SAPE  H18S17519   1.941   5.972   8.216 -0.6898 -0.2303  0.3268
  157SAPE  C21917520   2.008   6.143   8.344 -0.3277 -0.3851  0.1002
  157SAPE  H19R17521   2.014   6.251   8.320 -0.4898 -0.2504  0.6460
  157SAPE  H19S17522   2.114   6.113   8.358  0.1123  0.7679 -0.6649
  157SAPE  C22017523   1.946   6.097   8.475 -0.2938 -0.1233  0.4869
  157SAPE  H20R17524   1.996   6.010   8.522 -1.8970 -1.2860  0.1177
  157SAPE  H20S17525   1.835   6.084   8.472 -0.1651 -1.1595 -1.3093
  157SAPE  H20T17526   1.948   6.187   8.541 -3.0354  1.1900 -1.0517
  157SAPE   C3317527   1.836   6.550   6.352 -0.4171 -0.5415  0.4170
  157SAPE   H3X17528   1.881   6.647   6.321  0.4385 -0.5323  1.6132
  157SAPE   H3Y17529   1.912   6.473   6.329  0.2416 -0.0774  0.9739
  157SAPE   C3417530   1.819   6.554   6.507 -0.7800 -0.1544 -0.0979
  157SAPE   H4X17531   1.765   6.465   6.546 -0.1875 -1.4681 -2.1470
  157SAPE   H4Y17532   1.776   6.653   6.534  0.9800  0.4276  0.7682
  157SAPE   C3517533   1.956   6.559   6.580  0.0546 -0.2786  0.3576
  157SAPE   H5X17534   1.949   6.581   6.688 -1.4291  1.2842 -0.0112
  157SAPE   H5Y17535   2.020   6.641   6.542 -0.2333  0.0578  0.5987
  157SAPE   C3617536   2.032   6.427   6.567  0.1776 -0.4282  0.7536
  157SAPE   H6X17537   2.081   6.425   6.468 -0.2416 -1.0560  0.5516
  157SAPE   H6Y17538   1.953   6.349   6.557 -1.3783  1.1067  0.4818
  157SAPE   C3717539   2.123   6.401   6.686 -1.1708 -0.4770  0.4261
  157SAPE   H7X17540   2.183   6.493   6.700 -0.2852 -0.6623 -1.6915
  157SAPE   H7Y17541   2.202   6.325   6.671 -0.3460  0.1964  1.2338
  157SAPE   C3817542   2.054   6.368   6.812 -0.7776 -0.0216 -0.1338
  157SAPE   H8X17543   2.019   6.264   6.800 -0.6407  0.1555 -2.5219
  157SAPE   H8Y17544   1.960   6.421   6.837 -1.2838 -1.5762  1.4821
  157SAPE   C3917545   2.157   6.367   6.928 -0.0469 -0.3682  0.1779
  157SAPE   H9X17546   2.177   6.474   6.950  0.6639 -0.5558  0.4811
  157SAPE   H9Y17547   2.248   6.316   6.891  0.3128  2.5105 -3.4924
  157SAPE  C31017548   2.102   6.291   7.050 -0.1606 -0.6907  0.0555
  157SAPE  H10X17549   2.081   6.194   7.000  0.0550 -1.3707  1.2489
  157SAPE  H10Y17550   2.005   6.338   7.073  0.5354  1.4911 -1.1675
  157SAPE  C31117551   2.194   6.271   7.175 -0.1823 -0.2525 -0.0667
  157SAPE  H11X17552   2.277   6.201   7.151  0.9528 -0.0669  2.9410
  157SAPE  H11Y17553   2.145   6.223   7.262  2.4110 -2.2102  0.4400
  157SAPE  C31217554   2.266   6.400   7.228 -0.6830  0.7452  0.6106
  157SAPE  H12X17555   2.187   6.477   7.242  0.6769  2.5364 -1.0266
  157SAPE  H12Y17556   2.336   6.427   7.146  1.7684 -3.1463  1.1943
  157SAPE  C31317557   2.344   6.354   7.349 -0.6356  0.0581 -0.0577
  157SAPE  H13X17558   2.393   6.265   7.304  0.2523  1.3690 -1.8131
  157SAPE  H13Y17559   2.276   6.322   7.431 -0.5051  0.2343  0.1193
  157SAPE  C31417560   2.433   6.471   7.407 -0.2406  0.7312 -1.0469
  157SAPE  H14X17561   2.491   6.429   7.492  0.9536  1.0494 -1.6836
  157SAPE  H14Y17562   2.371   6.556   7.443 -1.4295  0.7922 -3.1035
  157SAPE  C31517563   2.536   6.523   7.305 -0.4109 -0.0699 -0.0470
  157SAPE  H15X17564   2.484   6.549   7.210  1.7086 -0.8312 -1.4943
  157SAPE  H15Y17565   2.603   6.439   7.276 -0.8735 -1.0799  1.6828
  157SAPE  C31617566   2.621   6.636   7.359 -0.1311  0.4379 -0.2505
  157SAPE  H16X17567   2.683   6.617   7.449  0.1756  1.7336 -0.1657
  157SAPE  H16Y17568   2.557   6.717   7.399 -0.6069 -0.2244  0.3584
  157SAPE  C31717569   2.711   6.692   7.245  0.0697 -0.4949  0.2969
  157SAPE  H17X17570   2.659   6.756   7.171 -0.4079 -2.1055 -0.8091
  157SAPE  H17Y17571   2.756   6.602   7.199  0.0867 -0.9469  1.1857
  157SAPE  C31817572   2.821   6.779   7.298 -0.2813  0.1275  0.4944
  157SAPE  H18X17573   2.878   6.713   7.366 -1.4845 -0.1350  1.2721
  157SAPE  H18Y17574   2.781   6.859   7.363 -1.4092 -0.0231  0.0011
  157SAPE  H18Z17575   2.886   6.828   7.221 -1.1719  1.4168  0.5204
  158SAPE     N17576   4.610   5.261   5.844 -0.0428  0.1854 -0.2314
  158SAPE   HN117577   4.569   5.262   5.749 -0.0917 -0.3482 -0.2148
  158SAPE   HN217578   4.709   5.232   5.831 -0.3640  0.1801 -3.4316
  158SAPE   HN317579   4.566   5.180   5.891  0.4423  0.4118  0.6594
  158SAPE   C1217580   4.580   5.385   5.936 -0.1767  0.1576 -0.3551
  158SAPE  H12A17581   4.470   5.385   5.955 -0.3732 -3.0344 -0.8581
  158SAPE  H12B17582   4.609   5.479   5.885  1.4791  0.6495  1.3856
  158SAPE   C1117583   4.678   5.385   6.051  0.1133 -0.2413 -0.7400
  158SAPE  H11A17584   4.665   5.474   6.116 -1.3855  0.1028 -1.4731
  158SAPE  H11B17585   4.781   5.382   6.011  1.5324  1.0775  2.4294
  158SAPE     P17586   4.562   5.262   6.254 -0.0350  0.2842  0.0562
  158SAPE   O1317587   4.457   5.365   6.222  0.3637  0.2934 -0.0977
  158SAPE   O1417588   4.515   5.122   6.272 -0.3529  0.3044 -0.0691
  158SAPE   O1217589   4.669   5.262   6.136 -0.0663 -0.2039  0.1659
  158SAPE   O1117590   4.647   5.309   6.376  0.4206  0.1598  0.3106
  158SAPE    C117591   4.742   5.219   6.435  0.5187  0.0235  0.2464
  158SAPE    HA17592   4.744   5.120   6.385 -0.8564 -0.0159  0.2265
  158SAPE    HB17593   4.845   5.256   6.417  0.3166 -0.3540 -1.8320
  158SAPE    C217594   4.706   5.203   6.581 -0.7588  0.1381  0.4792
  158SAPE    HS17595   4.797   5.157   6.625  0.8030  2.5942  0.0092
  158SAPE   O2117596   4.582   5.130   6.617 -0.0783  0.1239  0.0353
  158SAPE   C2117597   4.579   5.005   6.571 -1.5890 -0.2245  0.2922
  158SAPE   O2217598   4.676   4.936   6.561  0.0511 -0.1397 -0.6483
  158SAPE   C2217599   4.443   4.945   6.552 -0.3495  0.0210 -0.0464
  158SAPE   H2R17600   4.410   5.007   6.466  1.1448 -2.3598 -2.5100
  158SAPE   H2S17601   4.444   4.836   6.528 -1.5405 -0.2307  0.9116
  158SAPE    C317602   4.700   5.343   6.649  0.7205 -0.0627  0.5346
  158SAPE    HX17603   4.600   5.390   6.636  1.1046  0.8502  0.7954
  158SAPE    HY17604   4.770   5.411   6.597  0.3273 -0.3316 -0.3582
  158SAPE   O3117605   4.738   5.339   6.779  0.7286  0.7214 -0.2099
  158SAPE   C3117606   4.638   5.342   6.870  0.9195 -0.4942 -0.4325
  158SAPE   O3217607   4.520   5.347   6.843 -0.1773 -0.2003  0.2068
  158SAPE   C3217608   4.689   5.346   7.016  0.7350  0.1061  0.1878
  158SAPE   H2X17609   4.753   5.437   7.016 -1.6035  1.8736 -1.3818
  158SAPE   H2Y17610   4.756   5.260   7.035  0.0119 -0.5614 -0.2397
  158SAPE   C2317611   4.332   4.952   6.666 -0.0724 -0.1101  0.4205
  158SAPE   H3R17612   4.310   5.060   6.676 -0.6040 -0.2246  0.5085
  158SAPE   H3S17613   4.370   4.916   6.764  0.5800  0.0557  0.2333
  158SAPE   C2417614   4.201   4.881   6.624 -0.6613  0.5347  0.7818
  158SAPE   H4R17615   4.231   4.776   6.601  0.7865  1.5569 -2.4075
  158SAPE   H4S17616   4.161   4.920   6.528 -3.5577 -3.4424  0.0778
  158SAPE   C2517617   4.085   4.879   6.722  0.4069  0.6680 -0.4837
  158SAPE   H5R17618   4.026   4.971   6.728 -0.5280  0.0537  0.1237
  158SAPE   C2617619   4.054   4.776   6.806  0.2440  0.4732 -0.2007
  158SAPE   H6R17620   3.970   4.789   6.875 -0.5892  0.1425 -1.1409
  158SAPE   C2717621   4.132   4.646   6.809  0.3401 -0.7042  0.2706
  158SAPE   H7R17622   4.207   4.648   6.891  1.0443 -1.9935 -0.3093
  158SAPE   H7S17623   4.182   4.622   6.713 -0.5180  2.1250 -0.9708
  158SAPE   C2817624   4.022   4.545   6.830 -0.0837 -0.1798  0.4949
  158SAPE   H8R17625   3.952   4.530   6.746 -1.4208  0.9872  1.3513
  158SAPE   C2917626   4.010   4.474   6.945  0.1152 -1.0163  0.3063
  158SAPE   H9R17627   3.923   4.409   6.962  0.9546 -1.3722  4.1342
  158SAPE  C21017628   4.090   4.492   7.071 -0.0423  0.0408 -0.2849
  158SAPE  H10R17629   4.102   4.601   7.088  1.0876 -0.3755  1.8329
  158SAPE  H10S17630   4.198   4.471   7.058  0.4221  1.4547  1.0507
  158SAPE  C21117631   4.037   4.410   7.190 -0.0362  0.1158  0.0516
  158SAPE  H11R17632   3.949   4.344   7.190  1.8972 -2.7571  2.4521
  158SAPE  C21217633   4.087   4.411   7.312 -0.1558  0.3531  0.4932
  158SAPE  H12R17634   4.048   4.338   7.383 -0.9198  0.3556  0.0887
  158SAPE  C21317635   4.210   4.491   7.358  0.5580 -0.0495  0.2444
  158SAPE  H13R17636   4.254   4.528   7.263 -2.7988  0.8886 -1.1027
  158SAPE  H13S17637   4.287   4.429   7.409  0.6010  1.0476  1.5835
  158SAPE  C21417638   4.171   4.612   7.445 -0.4029  0.4650 -0.5002
  158SAPE  H14R17639   4.109   4.683   7.389 -1.1489 -0.1272 -0.4311
  158SAPE  C21517640   4.186   4.633   7.573 -0.3649  0.7790 -0.6514
  158SAPE  H15R17641   4.161   4.734   7.611  2.2333  1.2910 -0.1084
  158SAPE  C21617642   4.242   4.546   7.689  0.1741  0.5104  0.7604
  158SAPE  H16R17643   4.289   4.456   7.644 -2.2579 -0.7345  0.5567
  158SAPE  H16S17644   4.152   4.514   7.746 -0.6664 -0.8489 -1.1949
  158SAPE  C21717645   4.346   4.608   7.782  0.1272  0.0487 -0.5499
  158SAPE  H17R17646   4.302   4.692   7.840 -1.2381  0.1389 -1.6625
  158SAPE  H17S17647   4.426   4.643   7.713 -0.6166 -1.1373 -2.0719
  158SAPE  C21817648   4.407   4.516   7.888 -0.2914  0.3780 -0.1399
  158SAPE  H18R17649   4.509   4.542   7.921  0.3746 -3.1537  0.9857
  158SAPE  H18S17650   4.426   4.421   7.834  0.0154  0.1651  0.3417
  158SAPE  C21917651   4.316   4.481   7.998  0.2201  0.4463 -0.0341
  158SAPE  H19R17652   4.225   4.438   7.951  0.1088  0.3522  0.2684
  158SAPE  H19S17653   4.293   4.574   8.053 -1.0455  1.1915 -1.7262
  158SAPE  C22017654   4.369   4.363   8.085 -0.8084 -0.3020  0.5511
  158SAPE  H20R17655   4.291   4.330   8.157 -1.1214  2.5555  1.6295
  158SAPE  H20S17656   4.467   4.384   8.131 -0.5994  1.7708 -0.7295
  158SAPE  H20T17657   4.379   4.267   8.030  0.1026 -0.1371  0.4186
  158SAPE   C3317658   4.578   5.357   7.125  0.0006  1.0539 -0.2209
  158SAPE   H3X17659   4.498   5.284   7.101 -0.5814  1.0141  1.7423
  158SAPE   H3Y17660   4.526   5.454   7.123  1.3595  1.8111 -1.8022
  158SAPE   C3417661   4.625   5.342   7.268 -0.3834  0.7847  0.2540
  158SAPE   H4X17662   4.724   5.391   7.276 -0.1250  0.9321 -2.7427
  158SAPE   H4Y17663   4.641   5.239   7.306  0.7090  1.0530  0.5381
  158SAPE   C3517664   4.534   5.408   7.377 -0.5247  0.4365 -0.1018
  158SAPE   H5X17665   4.429   5.375   7.359 -0.4813  1.3080 -2.3657
  158SAPE   H5Y17666   4.526   5.518   7.362 -1.0284  0.1268 -2.5962
  158SAPE   C3617667   4.588   5.364   7.507 -0.4622 -0.2081 -1.0691
  158SAPE   H6X17668   4.691   5.401   7.523 -0.1872 -1.5315  0.4543
  158SAPE   H6Y17669   4.577   5.254   7.517  3.4457 -0.6750 -0.3644
  158SAPE   C3717670   4.509   5.418   7.635 -0.1006  0.8317  0.4474
  158SAPE   H7X17671   4.491   5.527   7.618  0.3883  1.4328  3.2208
  158SAPE   H7Y17672   4.412   5.365   7.625  1.1871 -1.2705 -2.1915
  158SAPE   C3817673   4.590   5.382   7.761  0.9363 -0.4618 -0.2644
  158SAPE   H8X17674   4.683   5.442   7.758  1.1931 -0.5368  2.8281
  158SAPE   H8Y17675   4.611   5.273   7.762 -4.5456 -1.8296 -0.4920
  158SAPE   C3917676   4.525   5.423   7.891 -0.3886 -0.1740 -0.1469
  158SAPE   H9X17677   4.448   5.345   7.913 -0.1093 -0.0653  1.3456
  158SAPE   H9Y17678   4.470   5.520   7.888  2.9200  1.8123 -0.9231
  158SAPE  C31017679   4.632   5.424   7.997  0.0109 -0.4108 -0.6452
  158SAPE  H10X17680   4.708   5.501   7.972  0.5368 -0.3781  0.9065
  158SAPE  H10Y17681   4.688   5.328   8.005  0.6541 -0.0159 -0.3925
  158SAPE  C31117682   4.571   5.456   8.136 -0.4219  0.4532  0.0342
  158SAPE  H11X17683   4.474   5.402   8.147 -0.8506  1.4919  1.6772
  158SAPE  H11Y17684   4.552   5.565   8.138 -0.3953  0.4571  2.3813
  158SAPE  C31217685   4.665   5.421   8.252 -0.0471 -0.5577  0.1972
  158SAPE  H12X17686   4.764   5.471   8.247  0.1138 -0.9471 -0.6512
  158SAPE  H12Y17687   4.694   5.314   8.238 -0.3881 -0.5096 -0.9647
  158SAPE  C31317688   4.592   5.442   8.388  0.1210  0.6311 -0.4204
  158SAPE  H13X17689   4.505   5.373   8.379 -0.3469  1.0725  0.5081
  158SAPE  H13Y17690   4.549   5.544   8.401 -2.6818 -0.4996  0.0671
  158SAPE  C31417691   4.663   5.405   8.521  0.0144 -0.5074  0.1503
  158SAPE  H14X17692   4.667   5.294   8.527 -1.2790 -0.5997 -0.2763
  158SAPE  H14Y17693   4.603   5.442   8.607  1.4714  0.4247  0.8057
  158SAPE  C31517694   4.804   5.451   8.546  0.5261  0.5876  1.2692
  158SAPE  H15X17695   4.858   5.436   8.450  0.4881  1.5716  1.0887
  158SAPE  H15Y17696   4.854   5.396   8.629  0.6746  2.2029  2.2907
  158SAPE  C31617697   4.810   5.601   8.571  0.0001 -0.8166  0.3794
  158SAPE  H16X17698   4.776   5.616   8.676  1.9894 -0.9040  1.0820
  158SAPE  H16Y17699   4.748   5.668   8.508  0.2927  0.7706  1.7117
  158SAPE  C31717700   4.953   5.659   8.559 -0.7320  0.6265 -0.5257
  158SAPE  H17X17701   4.963   5.764   8.595  0.2385 -0.3023  2.1802
  158SAPE  H17Y17702   4.986   5.659   8.453  1.2916  0.9828  0.0706
  158SAPE  C31817703   5.056   5.579   8.637  0.2440 -0.2436 -0.2391
  158SAPE  H18X17704   5.024   5.589   8.743  3.2965  0.3793  0.7219
  158SAPE  H18Y17705   5.160   5.619   8.629 -0.4559  1.9161  0.6072
  158SAPE  H18Z17706   5.071   5.471   8.617  5.4045  0.1499 -0.0152
  159SAPE     N17707   2.570   2.255   6.163 -1.4344 -0.1914 -0.6006
  159SAPE   HN117708   2.584   2.257   6.060 -0.0992  1.2508 -0.4390
  159SAPE   HN217709   2.479   2.299   6.188 -1.8128 -1.1746 -0.2288
  159SAPE   HN317710   2.634   2.317   6.216 -0.3204 -2.1092  0.3993
  159SAPE   C1217711   2.577   2.121   6.230 -0.7445 -0.2364 -0.2135
  159SAPE  H12A17712   2.575   2.044   6.150  2.0861 -0.2134 -0.3848
  159SAPE  H12B17713   2.492   2.121   6.302  0.6484 -0.4691  1.5051
  159SAPE   C1117714   2.708   2.112   6.307  0.3582  0.3448  0.1589
  159SAPE  H11A17715   2.711   2.019   6.369  0.6673  0.2530  0.0095
  159SAPE  H11B17716   2.712   2.197   6.377  1.1181  0.2170  0.2798
  159SAPE     P17717   2.942   2.013   6.217  0.0151 -0.2725  0.5776
  159SAPE   O1317718   2.902   1.906   6.120 -0.0981  0.0546  0.8752
  159SAPE   O1417719   3.057   2.095   6.176 -0.1539 -0.3164 -0.6170
  159SAPE   O1217720   2.815   2.114   6.220 -0.1825  0.1043 -0.7166
  159SAPE   O1117721   2.959   1.961   6.364  0.3818 -0.1391  0.0708
  159SAPE    C117722   3.043   2.030   6.455 -0.1607 -0.2992 -1.1000
  159SAPE    HA17723   3.150   2.018   6.429  0.0112  0.2071 -0.6408
  159SAPE    HB17724   3.023   2.139   6.464 -0.9115 -0.5766  1.2820
  159SAPE    C217725   3.004   1.986   6.609 -0.2502  0.2204 -0.1648
  159SAPE    HS17726   3.065   2.046   6.680 -0.4436 -0.7803  0.8839
  159SAPE   O2117727   3.028   1.843   6.632 -0.7011  0.4338  0.5933
  159SAPE   C2117728   3.154   1.804   6.620  0.1142 -0.5740 -0.5302
  159SAPE   O2217729   3.246   1.880   6.603 -0.1434 -0.6437 -0.1739
  159SAPE   C2217730   3.171   1.651   6.637 -0.0673  0.1133 -0.2076
  159SAPE   H2R17731   3.068   1.617   6.660 -0.8887  1.9446 -0.9517
  159SAPE   H2S17732   3.210   1.610   6.541  0.0655 -1.3475  0.4488
  159SAPE    C317733   2.854   2.019   6.630  0.2037 -0.5620  0.4230
  159SAPE    HX17734   2.810   1.948   6.557  3.7342 -2.1220 -0.3698
  159SAPE    HY17735   2.823   2.119   6.590 -1.9811 -1.0735  0.6879
  159SAPE   O3117736   2.806   1.989   6.770 -0.3129 -0.0050 -0.7178
  159SAPE   C3117737   2.839   2.092   6.853 -0.0245  0.3659 -0.2599
  159SAPE   O3217738   2.899   2.191   6.814 -0.3671  0.5168  0.2080
  159SAPE   C3217739   2.780   2.073   7.001  0.2293  0.1317  0.1512
  159SAPE   H2X17740   2.788   1.964   7.019  1.3020 -0.0243 -1.1083
  159SAPE   H2Y17741   2.673   2.103   6.991  0.3608  0.9604  1.1441
  159SAPE   C2317742   3.263   1.621   6.755 -0.1895  0.0793 -0.0117
  159SAPE   H3R17743   3.354   1.683   6.738 -0.0521 -0.4602 -1.4375
  159SAPE   H3S17744   3.299   1.516   6.760 -0.9375 -0.2070 -0.5649
  159SAPE   C2417745   3.201   1.656   6.891  0.4055  0.1111  0.0546
  159SAPE   H4R17746   3.135   1.745   6.877 -1.6636 -1.2821  0.4697
  159SAPE   H4S17747   3.272   1.684   6.971 -1.7243 -0.6666  2.3520
  159SAPE   C2517748   3.102   1.553   6.954 -0.3991  0.0647 -0.2026
  159SAPE   H5R17749   3.015   1.542   6.887  0.4597 -0.1277 -1.3276
  159SAPE   C2617750   3.120   1.477   7.075  0.5663 -0.0706  0.2338
  159SAPE   H6R17751   3.037   1.414   7.110  1.5385 -1.1282  0.6707
  159SAPE   C2717752   3.222   1.488   7.178 -0.1163 -0.4823  0.2993
  159SAPE   H7R17753   3.168   1.511   7.273 -0.1295 -0.7115  0.3478
  159SAPE   H7S17754   3.294   1.569   7.154  0.4596 -1.0926 -0.0582
  159SAPE   C2817755   3.301   1.362   7.191 -0.4746 -0.3457  0.0504
  159SAPE   H8R17756   3.323   1.316   7.093 -2.0084 -1.7552  0.3396
  159SAPE   C2917757   3.354   1.318   7.309 -0.1540 -0.0145  0.6030
  159SAPE   H9R17758   3.428   1.236   7.312  1.8830  1.7760  2.7642
  159SAPE  C21017759   3.323   1.380   7.446 -0.0698  0.7981  0.1161
  159SAPE  H10R17760   3.213   1.393   7.440  0.1397  2.1247 -1.9819
  159SAPE  H10S17761   3.362   1.481   7.472 -0.1797  1.5667 -2.3802
  159SAPE  C21117762   3.347   1.293   7.568 -0.2418  0.2416 -0.4309
  159SAPE  H11R17763   3.429   1.220   7.557  0.0629  0.7989 -2.0412
  159SAPE  C21217764   3.276   1.284   7.685 -0.1229  0.5002  0.3474
  159SAPE  H12R17765   3.299   1.197   7.749 -0.2471 -0.8179 -1.3367
  159SAPE  C21317766   3.154   1.357   7.729  0.8326  0.2549  0.3646
  159SAPE  H13R17767   3.068   1.289   7.712  1.3771 -0.1675 -0.8625
  159SAPE  H13S17768   3.123   1.442   7.664 -2.3185  0.1508  1.5338
  159SAPE  C21417769   3.164   1.416   7.869  0.2740  0.6584 -0.4167
  159SAPE  H14R17770   3.229   1.504   7.883  2.7781 -1.1300 -0.3074
  159SAPE  C21517771   3.105   1.368   7.987 -0.6469  0.3848 -0.0779
  159SAPE  H15R17772   3.130   1.422   8.079 -1.3945  4.2021 -1.8975
  159SAPE  C21617773   3.028   1.247   7.994 -1.0524  0.0305  0.4491
  159SAPE  H16R17774   2.984   1.210   7.899 -0.5185 -2.2161  1.0257
  159SAPE  H16S17775   2.937   1.264   8.054 -1.0565 -0.5881  0.6221
  159SAPE  C21717776   3.099   1.122   8.056  0.0347 -0.5048  0.3656
  159SAPE  H17R17777   3.111   1.131   8.166 -2.3444 -1.2004  0.7395
  159SAPE  H17S17778   3.195   1.102   8.004 -0.5166 -0.7520 -0.5932
  159SAPE  C21817779   3.020   0.984   8.037  0.4826 -0.3130  0.2680
  159SAPE  H18R17780   3.022   0.956   7.929  1.6382 -0.9456  0.4268
  159SAPE  H18S17781   2.916   1.010   8.065 -0.3018 -1.6517 -1.1949
  159SAPE  C21917782   3.086   0.873   8.119 -0.5362  0.2263  0.3906
  159SAPE  H19R17783   3.031   0.777   8.112 -1.1576  0.5809  0.3567
  159SAPE  H19S17784   3.080   0.903   8.226 -1.0325 -1.6631  0.9331
  159SAPE  C22017785   3.231   0.844   8.076  0.0758  0.2655  0.1305
  159SAPE  H20R17786   3.255   0.744   8.119 -1.6387 -0.9095 -1.4924
  159SAPE  H20S17787   3.303   0.926   8.096 -1.2579  2.1979 -2.4476
  159SAPE  H20T17788   3.237   0.821   7.967 -1.4236 -0.0870  0.1021
  159SAPE   C3317789   2.856   2.145   7.108 -0.2712 -0.0067  0.0431
  159SAPE   H3X17790   2.807   2.146   7.208 -1.3678  0.8447 -0.4805
  159SAPE   H3Y17791   2.871   2.253   7.087 -0.1764 -0.3194 -1.5988
  159SAPE   C3417792   2.992   2.077   7.125  0.0691 -0.0272 -0.0862
  159SAPE   H4X17793   3.043   2.127   7.210  1.2898  1.2731 -1.5218
  159SAPE   H4Y17794   3.048   2.100   7.032 -0.1346 -1.2288 -0.5277
  159SAPE   C3517795   2.994   1.921   7.163 -0.0406 -0.2903  0.0011
  159SAPE   H5X17796   3.097   1.892   7.133 -0.0002 -1.0845  0.8667
  159SAPE   H5Y17797   2.933   1.856   7.097 -1.7896  0.3368  0.9478
  159SAPE   C3617798   2.970   1.897   7.310  0.4914  0.5989  0.0036
  159SAPE   H6X17799   2.859   1.898   7.318 -0.0888  0.4215 -4.7012
  159SAPE   H6Y17800   3.020   1.986   7.355  1.9058  0.2982 -0.8941
  159SAPE   C3717801   3.032   1.760   7.345  0.1226 -0.6981  0.5045
  159SAPE   H7X17802   3.142   1.754   7.333  0.3419  0.9260  1.3849
  159SAPE   H7Y17803   2.993   1.682   7.276  0.0601  0.9424 -1.4115
  159SAPE   C3817804   3.010   1.708   7.480  0.2378  0.2234  0.6757
  159SAPE   H8X17805   3.073   1.617   7.490  1.0495  0.7494  0.4230
  159SAPE   H8Y17806   2.904   1.690   7.507 -0.2202  0.4683 -0.8714
  159SAPE   C3917807   3.070   1.811   7.571  0.3202 -0.0349 -0.2410
  159SAPE   H9X17808   3.002   1.898   7.586 -0.2570 -0.5254 -0.0105
  159SAPE   H9Y17809   3.171   1.847   7.540  0.4736 -1.7831 -1.9473
  159SAPE  C31017810   3.091   1.736   7.709  0.1922 -0.1276 -0.3464
  159SAPE  H10X17811   3.174   1.662   7.705 -2.2855 -3.0609 -1.4808
  159SAPE  H10Y17812   2.999   1.683   7.743  0.3639  0.2638  0.7962
  159SAPE  C31117813   3.119   1.831   7.823  0.3130  0.0177  0.0764
  159SAPE  H11X17814   3.052   1.919   7.820 -0.7662 -0.8078 -0.6560
  159SAPE  H11Y17815   3.223   1.867   7.810  0.1084 -0.4345 -3.7948
  159SAPE  C31217816   3.099   1.752   7.953  0.0511  0.5786  0.5597
  159SAPE  H12X17817   3.173   1.670   7.962 -0.5008 -0.2613 -1.7969
  159SAPE  H12Y17818   3.002   1.698   7.961 -0.2891  0.6411 -2.1714
  159SAPE  C31317819   3.101   1.839   8.079  0.0121 -0.4678 -0.4100
  159SAPE  H13X17820   3.008   1.899   8.070  1.1318  1.4711  0.3743
  159SAPE  H13Y17821   3.195   1.898   8.072 -0.2794 -0.1605 -2.5754
  159SAPE  C31417822   3.100   1.762   8.213 -0.3680  0.2384  0.7905
  159SAPE  H14X17823   3.192   1.707   8.242 -0.1213  0.1488 -0.1395
  159SAPE  H14Y17824   3.020   1.685   8.204 -0.2862  0.1731  0.6163
  159SAPE  C31517825   3.050   1.845   8.323  0.0916  0.4347 -0.7554
  159SAPE  H15X17826   2.943   1.868   8.309 -0.4716 -0.4724  1.6045
  159SAPE  H15Y17827   3.112   1.936   8.334  0.0906  0.5587 -1.6918
  159SAPE  C31617828   3.060   1.778   8.464  0.6229  0.6234 -0.1630
  159SAPE  H16X17829   3.167   1.756   8.484  0.8025 -0.1877 -1.8204
  159SAPE  H16Y17830   3.002   1.684   8.451  1.2119  0.3611 -0.9653
  159SAPE  C31717831   3.001   1.856   8.581 -0.7837  0.0999 -0.3187
  159SAPE  H17X17832   2.895   1.883   8.560 -0.2032  1.2028 -2.0949
  159SAPE  H17Y17833   3.060   1.950   8.574 -1.4413  0.5641  0.2791
  159SAPE  C31817834   3.014   1.788   8.720  0.2827  0.1159 -0.1917
  159SAPE  H18X17835   3.120   1.762   8.744 -0.6167 -1.1946  2.7554
  159SAPE  H18Y17836   2.941   1.705   8.729  0.5046 -0.0684 -0.0805
  159SAPE  H18Z17837   2.998   1.864   8.799  0.6191 -1.5061  1.4932
  160SAPE     N17838   3.754   0.352   6.179 -0.1401  0.5303  0.2474
  160SAPE   HN117839   3.800   0.417   6.114 -0.9653  0.4666 -0.4162
  160SAPE   HN217840   3.695   0.396   6.252 -0.8846  1.7472 -1.0491
  160SAPE   HN317841   3.826   0.291   6.223 -0.6156  0.1653  0.5263
  160SAPE   C1217842   3.667   0.248   6.108  0.0345  0.1941  0.8163
  160SAPE  H12A17843   3.724   0.180   6.042 -1.7243  0.2168 -0.7974
  160SAPE  H12B17844   3.586   0.300   6.052 -0.6530 -1.0687  0.5999
  160SAPE   C1117845   3.603   0.155   6.213  0.5322 -0.7128 -0.2216
  160SAPE  H11A17846   3.674   0.086   6.263 -0.1571 -0.2706  1.4143
  160SAPE  H11B17847   3.536   0.089   6.154  0.2119  0.1878 -0.8925
  160SAPE     P17848   3.376   0.247   6.310 -0.1601 -0.1790 -0.3600
  160SAPE   O1317849   3.339   0.379   6.371 -0.9685  0.7922 -0.5674
  160SAPE   O1417850   3.337   0.225   6.166 -0.3630 -0.9295 -0.0903
  160SAPE   O1217851   3.536   0.230   6.312 -0.3455 -0.0199  0.4901
  160SAPE   O1117852   3.309   0.124   6.388  0.6334  0.0458  0.0111
  160SAPE    C117853   3.352  -0.009   6.384  0.3202  1.0317  0.2132
  160SAPE    HA17854   3.331  -0.053   6.284  1.6085  1.0012 -0.0608
  160SAPE    HB17855   3.462  -0.027   6.386  0.0398 -1.5343 -1.7691
  160SAPE    C217856   3.300  -0.115   6.499  0.9924 -0.0987 -0.6930
  160SAPE    HS17857   3.339  -0.214   6.467  2.1960  0.1803 -0.1370
  160SAPE   O2117858   3.157  -0.116   6.509  0.4552  0.1146  0.2863
  160SAPE   C2117859   3.096  -0.186   6.409  0.0484  0.3410  0.1695
  160SAPE   O2217860   3.153  -0.243   6.323  0.5395  0.7485  0.7682
  160SAPE   C2217861   2.945  -0.178   6.411 -0.4571 -0.2901  0.0727
  160SAPE   H2R17862   2.918  -0.080   6.366 -1.0901  0.2458  1.5605
  160SAPE   H2S17863   2.895  -0.260   6.355 -1.1648 -0.6694  1.2285
  160SAPE    C317864   3.373  -0.068   6.627 -0.3220 -0.2615 -0.0711
  160SAPE    HX17865   3.350   0.040   6.641 -2.2412 -0.5243 -0.8948
  160SAPE    HY17866   3.481  -0.088   6.614 -0.5033 -0.5563 -1.2223
  160SAPE   O3117867   3.327  -0.135   6.751  0.3305 -0.1563  0.1068
  160SAPE   C3117868   3.244  -0.065   6.826 -0.1737 -0.0236  0.1698
  160SAPE   O3217869   3.180   0.033   6.794 -0.0694  0.3006 -0.3421
  160SAPE   C3217870   3.240  -0.136   6.961  0.5465  0.2735  0.3254
  160SAPE   H2X17871   3.340  -0.183   6.970  1.1420  1.5888  0.8470
  160SAPE   H2Y17872   3.166  -0.219   6.963 -1.0201  1.6391  2.1922
  160SAPE   C2317873   2.887  -0.164   6.559 -0.5689 -0.1804 -0.3900
  160SAPE   H3R17874   2.778  -0.150   6.545 -0.9942 -0.7864  1.8821
  160SAPE   H3S17875   2.936  -0.071   6.595 -0.7463 -0.5880  0.9598
  160SAPE   C2417876   2.887  -0.295   6.648  0.2493 -0.1550 -0.3782
  160SAPE   H4R17877   2.992  -0.333   6.653 -0.2158 -1.3666  0.8352
  160SAPE   H4S17878   2.823  -0.371   6.598 -1.4345  0.4113  0.8386
  160SAPE   C2517879   2.836  -0.263   6.786 -0.4190 -0.1495 -0.5108
  160SAPE   H5R17880   2.838  -0.155   6.808  0.1681 -0.2766  0.0930
  160SAPE   C2617881   2.777  -0.346   6.877 -0.2692  0.0888  0.2666
  160SAPE   H6R17882   2.743  -0.292   6.966  1.7061  0.2680  0.9621
  160SAPE   C2717883   2.735  -0.490   6.862  0.3841  0.9305  0.2468
  160SAPE   H7R17884   2.806  -0.562   6.910 -0.1127 -1.8727 -2.8539
  160SAPE   H7S17885   2.738  -0.524   6.756 -0.3061  2.1053 -0.1598
  160SAPE   C2817886   2.594  -0.515   6.915 -0.4214 -0.5198  0.0206
  160SAPE   H8R17887   2.532  -0.426   6.895 -0.1823 -0.1540  0.8556
  160SAPE   C2917888   2.543  -0.628   6.969 -0.1476  0.1830 -0.0340
  160SAPE   H9R17889   2.441  -0.623   7.009  0.3235 -0.2017  1.2799
  160SAPE  C21017890   2.621  -0.758   6.987  0.6119  0.6243  0.0889
  160SAPE  H10R17891   2.725  -0.745   7.025  0.8164 -0.8546  0.1222
  160SAPE  H10S17892   2.634  -0.809   6.889 -1.1121 -0.7088  0.4899
  160SAPE  C21117893   2.545  -0.842   7.083 -0.1379  0.5340  0.5452
  160SAPE  H11R17894   2.452  -0.884   7.041 -1.3057  1.6885  1.8916
  160SAPE  C21217895   2.570  -0.872   7.212  0.0227 -0.0548  0.1828
  160SAPE  H12R17896   2.492  -0.932   7.262 -0.6065 -0.2108 -0.9372
  160SAPE  C21317897   2.682  -0.831   7.299  0.1662 -0.0070 -0.3880
  160SAPE  H13R17898   2.643  -0.805   7.400  2.5770 -1.6306  1.0626
  160SAPE  H13S17899   2.737  -0.740   7.266  1.3753 -0.1166  1.2130
  160SAPE  C21417900   2.792  -0.934   7.304 -0.0362  0.0326  0.2723
  160SAPE  H14R17901   2.801  -1.002   7.218 -0.7195  0.4530 -0.1462
  160SAPE  C21517902   2.882  -0.949   7.407 -0.6051 -0.5884 -0.3278
  160SAPE  H15R17903   2.976  -1.001   7.386 -0.2189 -1.8640  3.8204
  160SAPE  C21617904   2.876  -0.862   7.530 -0.3588  0.1762 -0.2540
  160SAPE  H16R17905   2.803  -0.778   7.524  1.1626  1.5087 -0.9600
  160SAPE  H16S17906   2.976  -0.821   7.557  0.7146 -3.1589  1.4094
  160SAPE  C21717907   2.829  -0.941   7.658  0.2718 -0.2537  0.1545
  160SAPE  H17R17908   2.892  -1.031   7.673  0.6658  0.1741  1.1188
  160SAPE  H17S17909   2.722  -0.968   7.650  0.0190  0.8162 -0.2305
  160SAPE  C21817910   2.838  -0.845   7.771 -0.2319 -0.1990 -0.4259
  160SAPE  H18R17911   2.778  -0.752   7.757  0.6419  0.1783 -1.9447
  160SAPE  H18S17912   2.944  -0.816   7.789 -0.3315  0.4734 -0.8846
  160SAPE  C21917913   2.796  -0.913   7.894 -0.0164  0.4154  0.4921
  160SAPE  H19R17914   2.851  -1.009   7.901 -0.1826  0.2382 -0.4636
  160SAPE  H19S17915   2.690  -0.943   7.907  0.3108 -0.2712  1.7690
  160SAPE  C22017916   2.819  -0.833   8.022  0.1446 -0.3495  0.0095
  160SAPE  H20R17917   2.920  -0.799   8.052 -0.5591 -0.4080  2.7044
  160SAPE  H20S17918   2.772  -0.892   8.104 -2.0368 -0.2414 -1.1042
  160SAPE  H20T17919   2.758  -0.741   8.026 -0.1103 -0.5342  0.5509
  160SAPE   C3317920   3.225  -0.039   7.077 -0.2215  0.0724 -0.0835
  160SAPE   H3X17921   3.140   0.029   7.055 -0.4295  0.1423  0.9100
  160SAPE   H3Y17922   3.311   0.029   7.063  0.2576 -0.9335 -2.7022
  160SAPE   C3417923   3.220  -0.112   7.212 -0.6251  0.0964  0.2660
  160SAPE   H4X17924   3.304  -0.185   7.218  0.9318  1.9071  1.8338
  160SAPE   H4Y17925   3.129  -0.176   7.210 -1.0044  0.5953  0.8857
  160SAPE   C3517926   3.217  -0.014   7.329  0.3368 -0.2017  0.2870
  160SAPE   H5X17927   3.136   0.061   7.321  0.0652 -0.4759  0.4335
  160SAPE   H5Y17928   3.306   0.052   7.321 -0.3997  0.7826  0.0236
  160SAPE   C3617929   3.213  -0.076   7.463 -0.0909  0.7102  0.2077
  160SAPE   H6X17930   3.288  -0.158   7.471 -1.6617 -0.6336  1.9043
  160SAPE   H6Y17931   3.117  -0.125   7.486 -0.6236  2.0445  0.9450
  160SAPE   C3717932   3.238   0.024   7.573  0.5460 -0.0327 -0.5654
  160SAPE   H7X17933   3.168   0.111   7.566 -0.9492 -1.1850 -0.6087
  160SAPE   H7Y17934   3.342   0.060   7.563  0.5711  0.5755  1.4102
  160SAPE   C3817935   3.231  -0.030   7.715  0.1325  0.0479 -0.3295
  160SAPE   H8X17936   3.237   0.044   7.797  0.3040  0.2396 -0.5116
  160SAPE   H8Y17937   3.306  -0.112   7.717  0.4617  0.3443 -0.3551
  160SAPE   C3917938   3.098  -0.097   7.744  0.4136  0.2867 -0.1665
  160SAPE   H9X17939   3.085  -0.127   7.850  2.0083  0.9059  0.2220
  160SAPE   H9Y17940   3.098  -0.191   7.685 -0.9978  0.2156 -0.0969
  160SAPE  C31017941   2.975  -0.016   7.699 -0.3347 -0.3505  0.1332
  160SAPE  H10X17942   2.979  -0.020   7.588  1.4287  0.8455  0.1163
  160SAPE  H10Y17943   2.977   0.091   7.729 -1.1331  0.5469 -2.6448
  160SAPE  C31117944   2.845  -0.081   7.738 -0.2769 -0.2932  1.4193
  160SAPE  H11X17945   2.841  -0.186   7.702  1.0089  0.6288 -1.7686
  160SAPE  H11Y17946   2.774  -0.029   7.670  1.9498  0.9003 -0.1138
  160SAPE  C31217947   2.795  -0.060   7.883 -0.7653  0.3875  0.0125
  160SAPE  H12X17948   2.878  -0.080   7.954 -0.2395 -0.5104 -0.8166
  160SAPE  H12Y17949   2.711  -0.132   7.897 -0.6378  0.3182  0.4340
  160SAPE  C31317950   2.725   0.075   7.904 -0.3858 -0.3087 -0.7908
  160SAPE  H13X17951   2.657   0.101   7.820 -0.1377 -1.1067 -1.2506
  160SAPE  H13Y17952   2.797   0.158   7.908 -2.9751  2.0776 -0.5026
  160SAPE  C31417953   2.667   0.073   8.043  0.2741  0.3254  0.5316
  160SAPE  H14X17954   2.743   0.075   8.124 -0.2971  1.0079  1.0631
  160SAPE  H14Y17955   2.606  -0.020   8.049  3.6711 -1.9896  2.3262
  160SAPE  C31517956   2.575   0.199   8.071 -0.4165  0.0437  0.7595
  160SAPE  H15X17957   2.491   0.204   7.999 -0.7964 -1.2885  1.0802
  160SAPE  H15Y17958   2.614   0.303   8.079 -0.3750  0.0387  0.6303
  160SAPE  C31617959   2.501   0.174   8.201  0.3272  0.3259 -0.4339
  160SAPE  H16X17960   2.481   0.067   8.219  1.0482  0.5657  2.1114
  160SAPE  H16Y17961   2.402   0.226   8.198 -0.5374 -1.2970 -1.1211
  160SAPE  C31717962   2.585   0.226   8.323  0.2757 -0.3761  0.6780
  160SAPE  H17X17963   2.612   0.334   8.322  1.5541 -0.6167 -2.4277
  160SAPE  H17Y17964   2.685   0.176   8.331  1.3145  1.3018 -0.8987
  160SAPE  C31817965   2.511   0.201   8.460 -0.0248  0.4434  0.0309
  160SAPE  H18X17966   2.418   0.260   8.471 -1.7246 -2.0815  0.0534
  160SAPE  H18Y17967   2.580   0.233   8.541 -1.3510  1.8759  0.6347
  160SAPE  H18Z17968   2.491   0.092   8.458 -0.4150  0.5213 -1.1361
  161SOPE     N17969   3.030   1.729  10.642 -0.4124  0.1466 -0.7737
  161SOPE   HN117970   2.965   1.788  10.586 -1.6651 -0.9513 -0.5314
  161SOPE   HN217971   3.072   1.795  10.711  0.8651 -1.1174 -0.2850
  161SOPE   HN317972   3.112   1.692  10.590  0.3954 -1.5106  1.4944
  161SOPE   C1217973   2.952   1.629  10.719 -0.5055 -0.2574  0.0676
  161SOPE  H12A17974   2.913   1.673  10.813 -0.7917 -1.3987  0.4960
  161SOPE  H12B17975   3.025   1.552  10.751 -0.3882 -0.4886 -0.7361
  161SOPE   C1117976   2.834   1.567  10.647  0.4020 -0.3894 -0.0526
  161SOPE  H11A17977   2.804   1.472  10.695  0.7093  0.1782  1.3436
  161SOPE  H11B17978   2.850   1.563  10.537  0.6756  2.9220 -0.2425
  161SOPE     P17979   2.593   1.643  10.753 -0.2922  0.3504  0.2112
  161SOPE   O1317980   2.569   1.777  10.808  0.3919  0.4491  0.0636
  161SOPE   O1417981   2.600   1.534  10.855 -0.8917  0.4536 -0.5623
  161SOPE   O1217982   2.724   1.654  10.662  0.2526  0.3684  0.1035
  161SOPE   O1117983   2.485   1.610  10.651 -0.1180  0.3735 -0.2167
  161SOPE    C117984   2.486   1.508  10.552 -0.4042 -0.0836 -0.6230
  161SOPE    HA17985   2.381   1.472  10.547 -0.0651 -1.6840  2.0286
  161SOPE    HB17986   2.553   1.425  10.582  1.3176  1.6352  0.5000
  161SOPE    C217987   2.536   1.567  10.418  0.6243  0.8079  0.2967
  161SOPE    HS17988   2.645   1.588  10.421  0.3948  2.2437 -0.1378
  161SOPE   O2117989   2.454   1.682  10.398  0.0254  0.1038  0.2243
  161SOPE   C2117990   2.526   1.796  10.375 -0.0515 -0.5630 -0.3390
  161SOPE   O2217991   2.647   1.802  10.344  0.2518 -0.6108 -0.4085
  161SOPE   C2217992   2.439   1.920  10.391 -0.4468  0.0339 -0.3481
  161SOPE   H2R17993   2.449   1.967  10.491  0.3053  1.9676 -1.2700
  161SOPE   H2S17994   2.336   1.881  10.377 -0.6825 -0.6415  2.5955
  161SOPE    C317995   2.523   1.470  10.296 -0.5225 -0.0480 -0.7058
  161SOPE    HX17996   2.427   1.414  10.297 -1.0528  0.8085 -1.7947
  161SOPE    HY17997   2.604   1.397  10.318 -0.4602 -0.0719 -1.0205
  161SOPE   O3117998   2.529   1.530  10.167 -0.0625  0.8041  0.3375
  161SOPE   C3117999   2.648   1.562  10.125  0.1546 -0.5858 -0.5699
  161SOPE   O3218000   2.754   1.536  10.177 -0.1270 -0.0463 -0.3865
  161SOPE   C3218001   2.632   1.656  10.004  0.1459  0.3212 -0.0297
  161SOPE   H2X18002   2.738   1.666   9.972 -0.6662 -0.8908 -3.5101
  161SOPE   H2Y18003   2.585   1.753  10.030  1.3082  1.1758 -1.0048
  161SOPE   C2318004   2.460   2.038  10.289 -0.5569  0.3792  1.1953
  161SOPE   H3R18005   2.557   2.086  10.316  0.4515 -1.4678  1.0379
  161SOPE   H3S18006   2.377   2.111  10.300 -1.6957 -0.6855  0.0156
  161SOPE   C2418007   2.468   1.989  10.146 -0.1011  0.3088  0.9993
  161SOPE   H4R18008   2.469   2.080  10.081 -1.2526 -0.5463 -0.2869
  161SOPE   H4S18009   2.553   1.927  10.113 -0.4426  0.8119 -0.9636
  161SOPE   C2518010   2.338   1.919  10.102 -0.0380  0.2129 -0.1837
  161SOPE   H5R18011   2.333   1.828  10.166 -0.7546  1.2716  1.3277
  161SOPE   H5S18012   2.247   1.973  10.138 -2.5425 -2.2176 -2.3918
  161SOPE   C2618013   2.326   1.881   9.949  0.7168 -0.1718  0.0674
  161SOPE   H6R18014   2.411   1.813   9.928  0.1776 -0.2375 -2.1318
  161SOPE   H6S18015   2.227   1.833   9.931 -0.8777  2.6648  0.5851
  161SOPE   C2718016   2.329   1.997   9.859  0.6591  0.0128 -0.3049
  161SOPE   H7R18017   2.237   2.049   9.895 -1.3181 -1.8489 -2.3535
  161SOPE   H7S18018   2.423   2.055   9.873  1.0544 -0.3177 -1.5085
  161SOPE   C2818019   2.311   1.957   9.712  0.3811  0.5447 -0.1884
  161SOPE   H8R18020   2.400   1.933   9.650 -0.6030 -2.6025 -0.5329
  161SOPE   H8S18021   2.262   1.858   9.717  0.4872  0.5424  1.8016
  161SOPE   C2918022   2.232   2.059   9.635  0.1712  0.3946 -0.5515
  161SOPE   H9118023   2.249   2.165   9.661  2.5247  0.1112 -0.7158
  161SOPE  C21018024   2.154   2.038   9.525 -0.1729 -0.2386 -0.4918
  161SOPE  H10118025   2.103   2.121   9.475 -3.7281 -1.2854  1.0389
  161SOPE  C21118026   2.141   1.908   9.463 -0.2803  1.1938  0.0777
  161SOPE  H11R18027   2.052   1.863   9.512  0.2326  0.6958  0.5582
  161SOPE  H11S18028   2.227   1.839   9.473  0.4089  2.1031  0.5697
  161SOPE  C21218029   2.099   1.922   9.318  0.1612 -0.5084  0.5902
  161SOPE  H12R18030   2.000   1.970   9.303  1.8973  3.1873 -0.1039
  161SOPE  H12S18031   2.077   1.820   9.278 -2.7472 -0.3362  1.5161
  161SOPE  C21318032   2.192   2.007   9.226  0.1415 -0.1114  0.5238
  161SOPE  H13R18033   2.292   1.959   9.226  0.3059  0.1722 -1.1707
  161SOPE  H13S18034   2.195   2.110   9.267  0.3659  0.0298  0.1607
  161SOPE  C21418035   2.155   2.016   9.072  0.7847  0.9110  0.5997
  161SOPE  H14R18036   2.109   1.919   9.044  0.4648  1.0869  0.5187
  161SOPE  H14S18037   2.248   2.024   9.011  0.2463  1.1918 -0.1832
  161SOPE  C21518038   2.068   2.135   9.036  0.3395  0.1999  0.1769
  161SOPE  H15R18039   2.110   2.237   9.046 -0.9011  0.9906 -2.0322
  161SOPE  H15S18040   1.975   2.129   9.096  0.6333  0.0564  0.6254
  161SOPE  C21618041   2.024   2.125   8.891  0.7594  0.0538 -0.0854
  161SOPE  H16R18042   1.963   2.032   8.891 -1.8405  1.6478 -0.4506
  161SOPE  H16S18043   2.105   2.110   8.817  0.6761 -0.9277  0.0058
  161SOPE  C21718044   1.930   2.229   8.842 -0.0748 -0.4476 -0.2949
  161SOPE  H17R18045   1.850   2.245   8.917 -1.8017 -1.3367 -1.8468
  161SOPE  H17S18046   1.893   2.191   8.744 -2.2477 -2.7096  1.2904
  161SOPE  C21818047   1.996   2.361   8.829  0.8566  0.1341 -1.1780
  161SOPE  H18R18048   1.943   2.453   8.795  0.7763  1.9138  3.1816
  161SOPE  H18S18049   2.083   2.361   8.759 -0.1059 -0.2034 -2.4079
  161SOPE  H18T18050   2.043   2.383   8.927  0.9356  1.3572 -1.4731
  161SOPE   C3318051   2.560   1.593   9.881 -0.6355  0.6456  0.1155
  161SOPE   H3X18052   2.451   1.595   9.899 -0.5934  1.3888  0.3291
  161SOPE   H3Y18053   2.598   1.491   9.857  0.1429  0.3908  2.2181
  161SOPE   C3418054   2.571   1.672   9.751 -0.2305  0.3099 -0.1742
  161SOPE   H4X18055   2.680   1.674   9.733  0.1932 -2.5097  1.4141
  161SOPE   H4Y18056   2.539   1.778   9.758  0.7327  0.5493  1.1429
  161SOPE   C3518057   2.504   1.604   9.630  0.0167 -0.2517  0.1868
  161SOPE   H5X18058   2.394   1.619   9.639 -0.3634 -0.8356 -2.7049
  161SOPE   H5Y18059   2.533   1.497   9.623 -1.5616 -0.6928  0.0776
  161SOPE   C3618060   2.525   1.661   9.495 -0.3089 -1.2047  0.9699
  161SOPE   H6X18061   2.630   1.651   9.461  0.2947  4.2049  0.4030
  161SOPE   H6Y18062   2.500   1.768   9.483 -0.2992 -1.4711 -2.4689
  161SOPE   C3718063   2.451   1.593   9.373 -0.1042 -0.2936  0.0347
  161SOPE   H7X18064   2.347   1.571   9.405  0.7934 -3.2023  1.2899
  161SOPE   H7Y18065   2.495   1.493   9.350 -0.1267 -0.5094  0.9116
  161SOPE   C3818066   2.469   1.679   9.237  0.0063 -0.7931  0.1758
  161SOPE   H8X18067   2.571   1.671   9.194  0.6486  3.4803  0.4280
  161SOPE   H8Y18068   2.463   1.786   9.268 -0.1236 -0.4957 -0.8315
  161SOPE   C3918069   2.364   1.644   9.122  0.0012 -0.7635 -0.2248
  161SOPE   H9X18070   2.318   1.742   9.098 -0.1975 -0.8919 -0.3755
  161SOPE   H9Y18071   2.282   1.583   9.167  0.0184 -0.7016 -0.1101
  161SOPE  C31018072   2.422   1.575   8.997 -0.4059  0.4212  0.2280
  161SOPE  H10X18073   2.334   1.555   8.931  0.9919 -0.6777 -1.3834
  161SOPE  H10Y18074   2.458   1.475   9.029 -1.3927 -0.2083 -0.5521
  161SOPE  C31118075   2.541   1.642   8.913 -0.2594  0.3694 -0.7290
  161SOPE  H11X18076   2.571   1.569   8.835  2.5014  0.4928  0.1071
  161SOPE  H11Y18077   2.632   1.653   8.975 -0.0910  2.0963 -1.2217
  161SOPE  C31218078   2.525   1.773   8.839  0.2395 -0.1730  0.5618
  161SOPE  H12X18079   2.602   1.782   8.760  1.3666 -2.3002  1.3431
  161SOPE  H12Y18080   2.549   1.851   8.915  0.5350  2.6579 -2.2314
  161SOPE  C31318081   2.385   1.813   8.774  0.3999  0.2840 -0.1717
  161SOPE  H13X18082   2.308   1.796   8.852 -0.0708 -1.7727 -1.0281
  161SOPE  H13Y18083   2.354   1.745   8.693 -2.3337  2.0184 -0.7209
  161SOPE  C31418084   2.385   1.952   8.720 -0.3180 -0.3555 -0.2135
  161SOPE  H14X18085   2.476   1.969   8.659 -1.7984 -0.2178 -2.4627
  161SOPE  H14Y18086   2.382   2.028   8.801  0.4388 -1.6473  1.0730
  161SOPE  C31518087   2.255   1.973   8.633  0.1684 -0.0567 -0.3880
  161SOPE  H15X18088   2.160   1.978   8.691  1.6297 -0.9876  2.2784
  161SOPE  H15Y18089   2.240   1.891   8.561 -2.7378  0.5754 -0.6173
  161SOPE  C31618090   2.268   2.100   8.550 -0.6963 -0.0062 -0.3534
  161SOPE  H16X18091   2.355   2.094   8.481 -0.6943  1.8521 -0.5573
  161SOPE  H16Y18092   2.291   2.181   8.622  0.0211 -0.3076 -0.2385
  161SOPE  C31718093   2.154   2.150   8.466 -0.0240 -0.1345 -0.9892
  161SOPE  H17X18094   2.171   2.260   8.458  1.3844 -0.0796  1.5103
  161SOPE  H17Y18095   2.060   2.128   8.522 -0.1883 -1.2439 -1.6846
  161SOPE  C31818096   2.150   2.088   8.322 -0.2047  0.2859 -0.0654
  161SOPE  H18X18097   2.143   1.979   8.344 -0.0911  0.8864  3.4974
  161SOPE  H18Y18098   2.234   2.104   8.251 -1.0582 -1.5360 -1.5956
  161SOPE  H18Z18099   2.058   2.123   8.271 -0.6343 -1.3789 -0.4985
  162SOPE     N18100   6.624   0.728  10.699 -0.2961  0.6112 -0.4841
  162SOPE   HN118101   6.604   0.709  10.598 -1.1679  0.9792 -0.3789
  162SOPE   HN218102   6.619   0.642  10.757 -2.1297  0.7482 -0.3796
  162SOPE   HN318103   6.554   0.799  10.727  0.3020  1.4324 -1.0192
  162SOPE   C1218104   6.767   0.783  10.699  0.5552  0.5089 -0.3727
  162SOPE  H12A18105   6.761   0.866  10.625  0.3386 -0.8126 -1.9013
  162SOPE  H12B18106   6.834   0.709  10.651 -0.5923 -0.2833 -0.8087
  162SOPE   C1118107   6.809   0.822  10.842  0.2326  0.2963  0.3596
  162SOPE  H11A18108   6.914   0.857  10.827  1.2630 -2.5825  0.2245
  162SOPE  H11B18109   6.814   0.729  10.903 -2.0889 -0.1495 -0.0570
  162SOPE     P18110   6.739   1.065  10.908  0.4164  0.3667  0.4309
  162SOPE   O1318111   6.839   1.089  11.017 -0.5757  0.3096 -0.1166
  162SOPE   O1418112   6.611   1.130  10.927 -0.2706 -0.0448 -0.5073
  162SOPE   O1218113   6.713   0.905  10.900 -0.5194 -0.7920 -0.1152
  162SOPE   O1118114   6.810   1.098  10.766  0.3622 -0.0151 -0.3355
  162SOPE    C118115   6.719   1.176  10.681 -0.0336  0.0373 -0.8785
  162SOPE    HA18116   6.707   1.276  10.728  3.2204  0.6018 -0.9611
  162SOPE    HB18117   6.619   1.128  10.673 -0.8119  1.3771  0.5234
  162SOPE    C218118   6.768   1.185  10.541 -0.5045  0.1989 -0.3466
  162SOPE    HS18119   6.738   1.090  10.491 -0.8293 -0.1341  0.4617
  162SOPE   O2118120   6.907   1.209  10.543 -0.2693  0.8382  0.4391
  162SOPE   C2118121   6.989   1.103  10.545 -0.0062  0.0548  0.3177
  162SOPE   O2218122   6.957   0.988  10.515  0.0076 -0.7621 -0.2296
  162SOPE   C2218123   7.137   1.148  10.548 -0.5731  0.0659  0.0072
  162SOPE   H2R18124   7.188   1.092  10.630 -0.9645  0.4639  0.5259
  162SOPE   H2S18125   7.138   1.255  10.575  0.7697 -0.0999  0.7090
  162SOPE    C318126   6.700   1.290  10.456  0.7971  0.0758  0.1776
  162SOPE    HX18127   6.732   1.389  10.494  0.4621 -0.0256  0.7434
  162SOPE    HY18128   6.590   1.285  10.464  0.4441  3.2350 -1.4495
  162SOPE   O3118129   6.734   1.277  10.316 -1.1293  0.6964  0.3138
  162SOPE   C3118130   6.670   1.186  10.246  0.1598 -0.4740  0.2803
  162SOPE   O3218131   6.596   1.097  10.288 -0.3208  0.0460  0.7105
  162SOPE   C3218132   6.685   1.206  10.094 -0.4780 -0.7474  0.6090
  162SOPE   H2X18133   6.758   1.131  10.056  1.3434  1.7074 -1.0439
  162SOPE   H2Y18134   6.729   1.306  10.072 -0.0403 -0.9215  0.6753
  162SOPE   C2318135   7.208   1.110  10.410 -0.4223 -0.5425 -0.2755
  162SOPE   H3R18136   7.184   1.001  10.402 -0.3720 -1.1143  4.4876
  162SOPE   H3S18137   7.318   1.112  10.421 -0.5738 -2.2227  3.1839
  162SOPE   C2418138   7.148   1.206  10.306  0.3602 -0.3090  1.2127
  162SOPE   H4R18139   7.038   1.216  10.313  0.3648  0.6414  0.2567
  162SOPE   H4S18140   7.197   1.305  10.321  1.8846 -0.5934 -1.2488
  162SOPE   C2518141   7.190   1.176  10.156  0.1312 -0.0205  0.5871
  162SOPE   H5R18142   7.294   1.136  10.154  0.5639  1.0263  1.1997
  162SOPE   H5S18143   7.140   1.081  10.130  2.6587 -1.5654  1.0894
  162SOPE   C2618144   7.173   1.290  10.051 -0.3262  0.3031 -0.4923
  162SOPE   H6R18145   7.078   1.337  10.083  0.0263  1.7215 -1.4510
  162SOPE   H6S18146   7.251   1.369  10.057  0.7341 -0.8425  1.7318
  162SOPE   C2718147   7.154   1.234   9.910 -0.4387  0.8407  0.1272
  162SOPE   H7R18148   7.225   1.150   9.894 -1.6686 -0.9706  3.2083
  162SOPE   H7S18149   7.065   1.167   9.903 -0.5191  1.1546 -3.3025
  162SOPE   C2818150   7.149   1.338   9.803  0.8848  0.0539  0.0994
  162SOPE   H8R18151   7.226   1.417   9.810  1.0165  0.0736 -1.2923
  162SOPE   H8S18152   7.166   1.303   9.699  0.0871 -1.3733  0.4277
  162SOPE   C2918153   7.011   1.403   9.820  0.1084 -0.0037  0.1363
  162SOPE   H9118154   6.991   1.434   9.923 -0.2623 -2.4553  0.8595
  162SOPE  C21018155   6.914   1.416   9.726 -0.2689  0.3411 -0.0552
  162SOPE  H10118156   6.822   1.468   9.755  0.0137  1.3750 -0.9296
  162SOPE  C21118157   6.939   1.369   9.580  0.7038 -0.1031  0.2795
  162SOPE  H11R18158   6.841   1.331   9.547  0.9626  0.9336 -1.8712
  162SOPE  H11S18159   7.005   1.282   9.560  0.7218  0.2027 -1.1220
  162SOPE  C21218160   6.964   1.490   9.484  0.3632  0.1214 -0.4468
  162SOPE  H12R18161   7.068   1.529   9.490 -0.0129  1.2998 -1.2972
  162SOPE  H12S18162   6.892   1.569   9.514 -1.8908 -2.7226  2.3621
  162SOPE  C21318163   6.921   1.450   9.340  0.1536  0.2628  0.1671
  162SOPE  H13R18164   6.820   1.487   9.314  0.1792  0.5777  0.5113
  162SOPE  H13S18165   6.930   1.340   9.333  1.0601  0.2973  0.5670
  162SOPE  C21418166   7.022   1.525   9.246 -0.0180 -0.1255 -0.4270
  162SOPE  H14R18167   7.117   1.469   9.233  0.4064  0.7950 -1.5174
  162SOPE  H14S18168   7.045   1.627   9.285 -1.5226  0.1974 -0.3176
  162SOPE  C21518169   6.972   1.520   9.102  0.2477 -0.3121 -0.6268
  162SOPE  H15R18170   6.943   1.423   9.058  3.2750 -0.7102 -2.0303
  162SOPE  H15S18171   7.059   1.560   9.046 -0.7830  1.5312 -1.0054
  162SOPE  C21618172   6.867   1.621   9.066  0.2279 -0.7992  0.0892
  162SOPE  H16R18173   6.905   1.722   9.092 -0.0665 -0.1632 -1.8092
  162SOPE  H16S18174   6.775   1.598   9.125  0.3673 -0.0075  0.6228
  162SOPE  C21718175   6.833   1.627   8.914 -0.1033  0.5680  0.2255
  162SOPE  H17R18176   6.776   1.721   8.898 -0.7842  0.4800  1.9980
  162SOPE  H17S18177   6.781   1.534   8.880  1.7274 -1.2377  2.0949
  162SOPE  C21818178   6.957   1.644   8.824  0.4165  0.3950 -0.3126
  162SOPE  H18R18179   7.022   1.554   8.837 -0.8750 -0.4507  0.5408
  162SOPE  H18S18180   7.017   1.732   8.856 -0.5484  0.9966 -0.1231
  162SOPE  H18T18181   6.918   1.653   8.720 -1.3622 -0.4555  0.2369
  162SOPE   C3318182   6.559   1.195  10.005 -0.3027 -0.6723 -0.4796
  162SOPE   H3X18183   6.484   1.274  10.026 -0.1357 -1.3175  3.2914
  162SOPE   H3Y18184   6.512   1.096  10.022 -2.2900  0.5714  1.7550
  162SOPE   C3418185   6.594   1.207   9.858  0.3147 -0.0083  0.2809
  162SOPE   H4X18186   6.689   1.154   9.835  0.0648 -0.4045  0.1651
  162SOPE   H4Y18187   6.630   1.306   9.825  0.7645  0.7626  2.8407
  162SOPE   C3518188   6.495   1.149   9.756 -0.9246 -0.3478  0.2601
  162SOPE   H5X18189   6.402   1.209   9.749 -0.4700  0.3788  0.3477
  162SOPE   H5Y18190   6.471   1.043   9.783  1.1972 -0.8598  0.3158
  162SOPE   C3618191   6.555   1.141   9.611 -0.4887  0.3504 -0.2274
  162SOPE   H6X18192   6.646   1.078   9.618 -0.9142 -0.6838 -2.8266
  162SOPE   H6Y18193   6.584   1.244   9.583  1.9628 -0.3897 -0.6742
  162SOPE   C3718194   6.466   1.071   9.504 -0.9996  0.1933  0.2967
  162SOPE   H7X18195   6.359   1.101   9.513 -1.2023  0.3363 -1.9948
  162SOPE   H7Y18196   6.470   0.964   9.532  1.5998 -0.4370 -2.0509
  162SOPE   C3818197   6.533   1.106   9.368  0.0724  0.3335  0.2927
  162SOPE   H8X18198   6.627   1.048   9.358  1.4156  2.5588 -0.8381
  162SOPE   H8Y18199   6.552   1.216   9.371  1.5545  0.1901 -1.6613
  162SOPE   C3918200   6.456   1.072   9.241  0.3107  0.3751  0.2303
  162SOPE   H9X18201   6.354   1.116   9.236 -0.0923 -0.3143  1.7022
  162SOPE   H9Y18202   6.421   0.968   9.261 -2.2238  1.1635  0.2271
  162SOPE  C31018203   6.549   1.068   9.116  0.3493  0.1500  0.4433
  162SOPE  H10X18204   6.476   1.065   9.033  0.5337  2.1913  0.1665
  162SOPE  H10Y18205   6.618   0.981   9.105  1.4939  1.2163 -1.2913
  162SOPE  C31118206   6.635   1.195   9.091  0.5963 -0.9228 -0.2510
  162SOPE  H11X18207   6.684   1.233   9.183  0.8961 -2.1911  0.1276
  162SOPE  H11Y18208   6.568   1.280   9.066  2.2995  0.5590  0.0415
  162SOPE  C31218209   6.715   1.193   8.962 -0.5405 -0.7171 -0.4354
  162SOPE  H12X18210   6.769   1.289   8.975  0.4912 -1.5799  2.4558
  162SOPE  H12Y18211   6.655   1.173   8.871  1.3745 -1.3133 -1.6382
  162SOPE  C31318212   6.836   1.090   8.967 -0.2368 -0.4102 -0.1405
  162SOPE  H13X18213   6.811   0.982   8.967  1.7593 -0.9299  0.9746
  162SOPE  H13Y18214   6.897   1.108   9.058 -0.3397 -0.9680  0.0380
  162SOPE  C31418215   6.924   1.103   8.851  0.2112 -0.8315  0.9221
  162SOPE  H14X18216   6.962   1.207   8.860  0.7765 -0.9968  0.5513
  162SOPE  H14Y18217   6.861   1.100   8.760 -2.7106  0.6194  2.7587
  162SOPE  C31518218   7.043   1.001   8.838 -0.0151 -0.0161  0.0095
  162SOPE  H15X18219   7.122   1.045   8.772  0.5140  0.1838  0.7558
  162SOPE  H15Y18220   7.000   0.909   8.794 -2.0828  0.9999 -0.1901
  162SOPE  C31618221   7.107   0.972   8.978 -0.3983 -0.5134 -0.2748
  162SOPE  H16X18222   7.027   0.926   9.040 -1.3175  1.1135 -0.1966
  162SOPE  H16Y18223   7.140   1.067   9.026 -0.1720  0.5062 -2.3598
  162SOPE  C31718224   7.227   0.877   8.969  0.2611 -1.0621 -0.0247
  162SOPE  H17X18225   7.212   0.808   8.883 -3.6972 -0.2195 -0.1990
  162SOPE  H17Y18226   7.224   0.811   9.058 -1.0842  0.1080  0.8372
  162SOPE  C31818227   7.359   0.970   8.958  0.4283 -0.0922 -0.1404
  162SOPE  H18X18228   7.337   1.038   8.873 -1.1809 -1.9909 -1.3175
  162SOPE  H18Y18229   7.444   0.905   8.928 -0.1891 -1.1191  0.2742
  162SOPE  H18Z18230   7.374   1.021   9.056  1.1316  2.2753 -1.3887
  163SOPE     N18231   1.347   5.656  10.968  0.0496 -0.2088 -0.5444
  163SOPE   HN118232   1.379   5.664  10.870  1.5464  0.5107 -0.0284
  163SOPE   HN218233   1.435   5.619  11.008  0.9587 -1.0507 -3.1440
  163SOPE   HN318234   1.264   5.596  10.988  0.4821 -0.1225  1.8239
  163SOPE   C1218235   1.315   5.789  11.042 -0.5789  0.1970  0.4091
  163SOPE  H12A18236   1.301   5.760  11.148  1.8257  2.3141  1.4108
  163SOPE  H12B18237   1.222   5.834  11.000  0.1614  0.4063 -1.0486
  163SOPE   C1118238   1.424   5.887  11.038 -0.0764  0.3265 -0.5030
  163SOPE  H11A18239   1.512   5.832  11.077 -0.4356 -0.7943 -1.2172
  163SOPE  H11B18240   1.400   5.980  11.094  1.9335 -1.0395  2.8689
  163SOPE     P18241   1.577   6.005  10.873  0.2213 -0.4945 -0.0520
  163SOPE   O1318242   1.696   5.930  10.921  0.4077 -0.2988  0.3719
  163SOPE   O1418243   1.563   6.144  10.918 -0.0734  0.1552 -0.4870
  163SOPE   O1218244   1.444   5.924  10.902  0.1983  0.3851  0.2266
  163SOPE   O1118245   1.587   5.995  10.713  0.4610  0.8638  0.6642
  163SOPE    C118246   1.533   5.884  10.646  0.3757  0.7690  0.6181
  163SOPE    HA18247   1.429   5.861  10.677  0.8866 -0.4093  1.5814
  163SOPE    HB18248   1.578   5.784  10.666 -3.3503 -1.2788 -0.4077
  163SOPE    C218249   1.548   5.901  10.495  0.4819  0.4785  0.1899
  163SOPE    HS18250   1.523   5.803  10.447 -0.8029  0.5101  0.7638
  163SOPE   O2118251   1.676   5.954  10.460 -0.0933  0.0511 -0.2798
  163SOPE   C2118252   1.772   5.870  10.467  0.0651  0.1289 -0.7688
  163SOPE   O2218253   1.762   5.754  10.513  0.6732  0.4268  0.5368
  163SOPE   C2218254   1.902   5.932  10.411  0.6544 -0.1529 -1.0410
  163SOPE   H2R18255   1.970   5.936  10.500 -0.1261 -1.7547 -0.3255
  163SOPE   H2S18256   1.887   6.037  10.377  0.6086 -0.4052 -1.7988
  163SOPE    C318257   1.450   6.013  10.457 -0.1481  0.0533  0.1172
  163SOPE    HX18258   1.459   6.095  10.531  1.8196 -0.0305 -0.0013
  163SOPE    HY18259   1.349   5.966  10.465 -0.9831  1.4634 -1.5313
  163SOPE   O3118260   1.458   6.056  10.320  0.4171  0.0474 -0.0271
  163SOPE   C3118261   1.484   6.189  10.301 -1.0020  0.2853 -0.0823
  163SOPE   O3218262   1.527   6.267  10.386 -0.3002  0.0357  0.7530
  163SOPE   C3218263   1.430   6.229  10.173 -0.7323 -0.8380  0.4715
  163SOPE   H2X18264   1.442   6.338  10.156 -0.3134 -1.1662 -1.6042
  163SOPE   H2Y18265   1.320   6.215  10.172 -0.7379 -0.9928 -2.2398
  163SOPE   C2318266   1.968   5.854  10.298 -0.2370  0.1959  0.5112
  163SOPE   H3R18267   1.956   5.744  10.305 -0.5762  0.2977  1.6301
  163SOPE   H3S18268   2.076   5.877  10.306 -0.1423 -0.1824  0.3797
  163SOPE   C2418269   1.925   5.893  10.155 -0.1861 -0.3681  0.2663
  163SOPE   H4R18270   1.821   5.858  10.137 -0.4528  0.4414  0.1954
  163SOPE   H4S18271   1.920   6.004  10.148  0.6734 -0.1908  2.0887
  163SOPE   C2518272   2.011   5.829  10.046 -0.0262 -0.3820 -0.0432
  163SOPE   H5R18273   2.111   5.876  10.035 -0.2293  1.0030  3.0515
  163SOPE   H5S18274   2.028   5.723  10.071 -0.6878 -1.4069 -3.3711
  163SOPE   C2618275   1.938   5.839   9.913 -0.0967 -0.7059 -0.3594
  163SOPE   H6R18276   1.831   5.809   9.920 -0.5779  0.0061 -3.2958
  163SOPE   H6S18277   1.929   5.942   9.872  1.0008  0.4026  2.0049
  163SOPE   C2718278   1.999   5.749   9.810 -0.0993  0.1064 -0.5044
  163SOPE   H7R18279   2.097   5.717   9.850  0.3572  2.0962  0.0783
  163SOPE   H7S18280   1.939   5.655   9.811  0.3319 -0.1695  0.4873
  163SOPE   C2818281   2.013   5.798   9.659  0.3045 -0.0930 -0.3616
  163SOPE   H8R18282   2.101   5.866   9.664 -0.0242  0.3030  0.1215
  163SOPE   H8S18283   2.029   5.705   9.600 -0.6993 -0.2519 -0.3935
  163SOPE   C2918284   1.894   5.860   9.592  0.2082  0.4356 -0.8118
  163SOPE   H9118285   1.807   5.880   9.656 -0.4580  1.1136 -1.9038
  163SOPE  C21018286   1.887   5.919   9.471  0.0263 -0.2149 -0.1541
  163SOPE  H10118287   1.797   5.968   9.432  0.3538  0.3933 -0.1500
  163SOPE  C21118288   2.009   5.929   9.387  0.7042  0.4617 -0.5670
  163SOPE  H11R18289   2.103   5.873   9.410  0.6029 -0.3030 -1.9271
  163SOPE  H11S18290   2.036   6.036   9.378  0.7642  0.4236 -0.8388
  163SOPE  C21218291   1.972   5.871   9.247 -0.3090 -0.4284  0.2183
  163SOPE  H12R18292   1.892   5.934   9.204  0.6402  0.0135 -0.9735
  163SOPE  H12S18293   1.945   5.764   9.255 -2.6968 -0.1552 -2.6862
  163SOPE  C21318294   2.084   5.885   9.142 -0.8894 -0.2782  0.5482
  163SOPE  H13R18295   2.168   5.833   9.194 -0.5141 -2.7444 -2.2289
  163SOPE  H13S18296   2.102   5.994   9.133 -1.4133 -0.3334 -1.7571
  163SOPE  C21418297   2.055   5.820   9.011  0.1144  0.5606 -0.3306
  163SOPE  H14R18298   1.966   5.872   8.968 -0.0560  2.4263  2.0653
  163SOPE  H14S18299   2.033   5.716   9.042  0.1177 -0.6500 -3.9429
  163SOPE  C21518300   2.172   5.817   8.910  0.8104 -0.7571  0.3801
  163SOPE  H15R18301   2.156   5.749   8.824 -0.0076  0.4623 -0.4730
  163SOPE  H15S18302   2.270   5.795   8.957  0.2521 -0.6059  1.6514
  163SOPE  C21618303   2.176   5.958   8.855  0.3749  0.2001 -0.3692
  163SOPE  H16R18304   2.201   6.030   8.936  2.7019  1.3432 -1.9789
  163SOPE  H16S18305   2.073   5.978   8.817 -0.3176 -0.1951  1.2009
  163SOPE  C21718306   2.269   5.991   8.743  0.4125  0.1639  0.6816
  163SOPE  H17R18307   2.371   5.983   8.786 -0.4314 -0.7136  2.6756
  163SOPE  H17S18308   2.250   6.093   8.703  1.5033  0.3201  0.5292
  163SOPE  C21818309   2.258   5.888   8.631 -0.2650  0.6864  0.2053
  163SOPE  H18R18310   2.314   5.795   8.655  0.3490  1.0932  0.3783
  163SOPE  H18S18311   2.313   5.925   8.541 -0.4159 -2.5201 -1.3529
  163SOPE  H18T18312   2.154   5.868   8.600 -0.1163  1.1210 -0.6013
  163SOPE   C3318313   1.492   6.149  10.052  0.0627  0.0592  0.0370
  163SOPE   H3X18314   1.476   6.040  10.061 -0.2179  0.1263  0.3563
  163SOPE   H3Y18315   1.602   6.158  10.043  0.3845 -2.1039  1.1304
  163SOPE   C3418316   1.430   6.195   9.921 -0.4492 -0.1545 -0.2936
  163SOPE   H4X18317   1.469   6.299   9.910  0.3478 -0.2274  1.5262
  163SOPE   H4Y18318   1.321   6.174   9.924 -0.1679 -1.7144  2.7924
  163SOPE   C3518319   1.500   6.118   9.802 -0.4861 -0.6653  0.5881
  163SOPE   H5X18320   1.486   6.009   9.815 -0.4799 -0.5632  1.5209
  163SOPE   H5Y18321   1.610   6.128   9.796 -0.4339  0.0326  2.2122
  163SOPE   C3618322   1.438   6.151   9.663 -0.2306  0.1145 -0.9722
  163SOPE   H6X18323   1.425   6.261   9.670 -0.1952  0.0706 -0.1380
  163SOPE   H6Y18324   1.346   6.094   9.640  0.2015 -1.1034  0.2112
  163SOPE   C3718325   1.545   6.126   9.556 -0.1978  0.3445 -0.1452
  163SOPE   H7X18326   1.563   6.017   9.566 -1.6844  0.0558 -0.2934
  163SOPE   H7Y18327   1.634   6.192   9.562  0.3242 -0.4600  1.9370
  163SOPE   C3818328   1.482   6.143   9.420  0.8477  0.4775 -0.3649
  163SOPE   H8X18329   1.487   6.253   9.403  2.2262  0.1254 -2.8705
  163SOPE   H8Y18330   1.378   6.107   9.407  0.9420 -0.8725  2.0015
  163SOPE   C3918331   1.559   6.068   9.310 -0.5704  0.0389 -0.3549
  163SOPE   H9X18332   1.545   5.958   9.317  0.2746  0.0277  1.7016
  163SOPE   H9Y18333   1.669   6.084   9.306 -0.4677 -0.8156 -1.0874
  163SOPE  C31018334   1.509   6.103   9.166  0.7546 -0.3209  0.5392
  163SOPE  H10X18335   1.482   6.211   9.173  0.2337 -0.5181  1.8324
  163SOPE  H10Y18336   1.406   6.063   9.158 -1.0316  3.9692 -1.7424
  163SOPE  C31118337   1.593   6.068   9.046  0.7561 -0.5025 -0.0879
  163SOPE  H11X18338   1.685   6.131   9.055  0.4395  0.4837 -2.7520
  163SOPE  H11Y18339   1.526   6.105   8.966 -0.5703 -0.5200  0.9736
  163SOPE  C31218340   1.622   5.925   9.020  0.2626  0.0374  0.0396
  163SOPE  H12X18341   1.529   5.866   9.028  1.0320 -1.6792 -2.4027
  163SOPE  H12Y18342   1.688   5.886   9.101  4.0146  1.8346 -1.8850
  163SOPE  C31318343   1.690   5.883   8.884  0.4020 -0.4687  0.1605
  163SOPE  H13X18344   1.715   5.776   8.901 -0.7147 -0.5723  1.2605
  163SOPE  H13Y18345   1.786   5.938   8.874 -0.0457  0.6785  1.7465
  163SOPE  C31418346   1.601   5.904   8.755 -0.2488 -0.2560  0.5752
  163SOPE  H14X18347   1.591   6.013   8.736  0.3917 -0.3104 -0.0619
  163SOPE  H14Y18348   1.499   5.861   8.767  0.8776 -2.9379  1.2072
  163SOPE  C31518349   1.671   5.865   8.622 -0.1080  0.6012  0.7177
  163SOPE  H15X18350   1.713   5.762   8.626  1.2902  1.0193 -1.4636
  163SOPE  H15Y18351   1.745   5.939   8.587 -0.5135  1.1337  0.9714
  163SOPE  C31618352   1.567   5.862   8.504  0.2405 -0.0524  0.0869
  163SOPE  H16X18353   1.555   5.967   8.470 -0.4305 -0.6239 -1.5377
  163SOPE  H16Y18354   1.469   5.817   8.532  0.6094 -0.5937  0.5357
  163SOPE  C31718355   1.635   5.790   8.377 -0.2213 -0.4303 -0.2611
  163SOPE  H17X18356   1.689   5.699   8.412  2.3769  0.2608 -2.1477
  163SOPE  H17Y18357   1.711   5.857   8.332 -1.3259  1.4911  0.6438
  163SOPE  C31818358   1.525   5.739   8.280  0.5592 -0.2805  0.8914
  163SOPE  H18X18359   1.448   5.684   8.337 -0.1012 -0.3322 -0.0343
  163SOPE  H18Y18360   1.560   5.666   8.204  1.2457  1.5238 -0.6263
  163SOPE  H18Z18361   1.473   5.818   8.221 -0.1564 -0.9494  0.6217
  164SOPE     N18362   4.076   4.582  10.678 -0.6730 -0.1196 -0.0859
  164SOPE   HN118363   4.021   4.578  10.589 -0.4769 -4.0248 -0.1756
  164SOPE   HN218364   4.008   4.619  10.748 -1.1768 -2.6347  0.8570
  164SOPE   HN318365   4.157   4.646  10.667  0.6872 -1.0936  3.1167
  164SOPE   C1218366   4.115   4.442  10.715  0.2624 -0.5707  0.3332
  164SOPE  H12A18367   4.030   4.378  10.681 -0.4916  0.5194  0.1029
  164SOPE  H12B18368   4.125   4.423  10.824  1.3928 -1.0476  0.1629
  164SOPE   C1118369   4.246   4.403  10.644  0.1634  0.2341  0.5395
  164SOPE  H11A18370   4.241   4.442  10.540  0.3339  2.6122  1.3576
  164SOPE  H11B18371   4.248   4.293  10.635 -0.2686  0.1739  1.1530
  164SOPE     P18372   4.421   4.599  10.689  0.0517 -0.1976 -0.3695
  164SOPE   O1318373   4.437   4.666  10.819  0.8083  0.1093 -0.5219
  164SOPE   O1418374   4.327   4.669  10.602 -0.8535  0.1853  0.0703
  164SOPE   O1218375   4.359   4.455  10.707 -0.2020  0.2603 -0.4182
  164SOPE   O1118376   4.565   4.587  10.621 -0.2486  0.3980  0.4029
  164SOPE    C118377   4.604   4.466  10.554  0.2729  0.4835  0.5025
  164SOPE    HA18378   4.558   4.463  10.453  5.2201 -1.0924 -2.0497
  164SOPE    HB18379   4.589   4.372  10.611  1.5555  0.3677  0.6720
  164SOPE    C218380   4.757   4.473  10.532  0.1928 -0.6388  0.0294
  164SOPE    HS18381   4.803   4.487  10.632 -2.2458 -2.8894  1.6030
  164SOPE   O2118382   4.788   4.593  10.456 -1.0438  0.8557 -0.2691
  164SOPE   C2118383   4.905   4.610  10.400  0.3001 -0.5941 -0.3073
  164SOPE   O2218384   4.999   4.531  10.407 -0.4294  0.3254  0.2450
  164SOPE   C2218385   4.917   4.755  10.349 -0.2285  0.2144  0.0369
  164SOPE   H2R18386   4.915   4.818  10.440  0.7736  1.2242 -0.6089
  164SOPE   H2S18387   4.828   4.769  10.284 -0.9854  0.5240  1.1033
  164SOPE    C318388   4.803   4.337  10.467 -0.3451  0.4055 -0.4174
  164SOPE    HX18389   4.748   4.253  10.515 -0.8348  0.0608 -1.5595
  164SOPE    HY18390   4.910   4.316  10.484 -0.5584 -0.5968 -0.2787
  164SOPE   O3118391   4.762   4.326  10.328  0.7885  0.0313 -0.3915
  164SOPE   C3118392   4.837   4.252  10.248 -0.0024 -0.7456 -0.6872
  164SOPE   O3218393   4.932   4.183  10.282 -0.2151  0.3653 -0.1851
  164SOPE   C3218394   4.799   4.254  10.100  0.1020  0.3718  0.7648
  164SOPE   H2X18395   4.727   4.334  10.070 -1.6174 -1.9600 -1.8380
  164SOPE   H2Y18396   4.747   4.161  10.069  0.4951  0.0765  0.9940
  164SOPE   C2318397   5.038   4.781  10.259 -0.4354 -0.4155 -0.1345
  164SOPE   H3R18398   5.125   4.724  10.299  0.7756  1.3496 -0.1767
  164SOPE   H3S18399   5.067   4.888  10.261 -3.1507  0.3982 -0.2240
  164SOPE   C2418400   5.016   4.741  10.112 -0.7300 -0.3145 -0.5404
  164SOPE   H4R18401   5.113   4.737  10.058  0.7037  3.9578  1.2658
  164SOPE   H4S18402   4.979   4.636  10.111 -2.2888  0.1906  0.4228
  164SOPE   C2518403   4.933   4.844  10.022  0.0233 -0.4007  0.5298
  164SOPE   H5R18404   4.830   4.856  10.061 -0.4822 -1.0687 -0.5406
  164SOPE   H5S18405   4.996   4.934  10.031  1.1766 -1.0758 -0.4159
  164SOPE   C2618406   4.912   4.795   9.870 -0.3037 -0.1811 -0.1043
  164SOPE   H6R18407   4.868   4.694   9.886 -1.3597  0.5011  1.6164
  164SOPE   H6S18408   4.841   4.862   9.816  0.3063  1.3210  0.8601
  164SOPE   C2718409   5.047   4.793   9.797  0.2368  0.2630 -0.3862
  164SOPE   H7R18410   5.101   4.886   9.825 -0.2923  0.4423  0.0356
  164SOPE   H7S18411   5.101   4.704   9.834 -0.8644 -0.0797  0.4638
  164SOPE   C2818412   5.023   4.781   9.641  0.5410  0.3568  0.7042
  164SOPE   H8R18413   4.979   4.871   9.595  2.0087  0.1049 -1.3422
  164SOPE   H8S18414   5.122   4.770   9.591 -0.3164 -3.1557 -0.5747
  164SOPE   C2918415   4.930   4.666   9.620 -0.5314 -0.3101  0.1506
  164SOPE   H9118416   4.923   4.596   9.704 -2.3946 -0.2045  0.1251
  164SOPE  C21018417   4.855   4.652   9.507  0.3679 -0.8692 -0.1477
  164SOPE  H10118418   4.798   4.558   9.499 -0.1667 -0.5451 -0.2152
  164SOPE  C21118419   4.849   4.747   9.385  0.2988 -0.1149 -0.2327
  164SOPE  H11R18420   4.909   4.840   9.387 -0.8109  0.7522 -2.8089
  164SOPE  H11S18421   4.742   4.777   9.381  0.1669 -0.3177  1.1201
  164SOPE  C21218422   4.886   4.663   9.262 -1.0697  0.9236 -0.1169
  164SOPE  H12R18423   4.818   4.575   9.256  2.3491 -2.0091  0.7317
  164SOPE  H12S18424   4.990   4.625   9.268 -1.5988 -0.6442 -0.4450
  164SOPE  C21318425   4.871   4.740   9.130 -0.2264  0.2083 -0.3111
  164SOPE  H13R18426   4.913   4.842   9.143  1.0718  0.0300 -2.6514
  164SOPE  H13S18427   4.763   4.753   9.107  0.0139  0.0638 -1.6429
  164SOPE  C21418428   4.929   4.655   9.013 -0.3329 -0.3940  1.0655
  164SOPE  H14R18429   4.875   4.558   9.011 -2.2514  0.5589 -2.6374
  164SOPE  H14S18430   5.036   4.637   9.035  0.1042 -1.0447 -1.2834
  164SOPE  C21518431   4.898   4.737   8.884 -0.2939  0.0670 -0.1213
  164SOPE  H15R18432   4.951   4.835   8.883  1.2531 -0.7348 -1.4081
  164SOPE  H15S18433   4.789   4.759   8.875 -0.2692  0.9124  1.3761
  164SOPE  C21618434   4.938   4.660   8.756 -0.2759  0.0928  0.5356
  164SOPE  H16R18435   4.923   4.727   8.668 -1.0774 -2.2269 -1.1735
  164SOPE  H16S18436   4.871   4.575   8.734  0.1409  0.2630 -1.5436
  164SOPE  C21718437   5.079   4.607   8.734 -0.5988  0.6045 -0.2234
  164SOPE  H17R18438   5.095   4.538   8.820  1.1617  1.9854  0.6192
  164SOPE  H17S18439   5.154   4.689   8.740 -1.0613  0.9397  2.2320
  164SOPE  C21818440   5.093   4.545   8.596 -0.1754 -0.2305  0.5584
  164SOPE  H18R18441   5.054   4.614   8.518  4.8191  1.9406 -0.3629
  164SOPE  H18S18442   5.052   4.445   8.571  1.1763 -0.9129  0.9700
  164SOPE  H18T18443   5.200   4.519   8.589 -0.4092 -1.1150  0.0859
  164SOPE   C3318444   4.919   4.298  10.005 -0.2568 -0.4465 -0.4334
  164SOPE   H3X18445   5.006   4.230   9.995  0.1430  0.2002 -1.5383
  164SOPE   H3Y18446   4.967   4.392  10.040  0.8010 -0.5159 -1.6178
  164SOPE   C3418447   4.875   4.323   9.864 -0.3433 -0.8852  0.7806
  164SOPE   H4X18448   4.953   4.388   9.819 -0.6381  1.4512  3.3630
  164SOPE   H4Y18449   4.779   4.379   9.860  0.4149  0.4233 -1.8542
  164SOPE   C3518450   4.863   4.210   9.767 -0.6640  1.0211  0.1303
  164SOPE   H5X18451   4.775   4.153   9.803 -0.0269 -1.3940 -1.7943
  164SOPE   H5Y18452   4.955   4.149   9.773  1.9250  4.6025 -0.2505
  164SOPE   C3618453   4.839   4.271   9.624 -0.1304  0.0361 -0.0913
  164SOPE   H6X18454   4.927   4.332   9.594  0.0710 -0.7392 -1.1382
  164SOPE   H6Y18455   4.764   4.354   9.625 -0.4092 -0.2166  0.3549
  164SOPE   C3718456   4.799   4.170   9.514 -0.7986 -1.2319  0.0455
  164SOPE   H7X18457   4.708   4.123   9.557 -1.2038  0.3331  0.9617
  164SOPE   H7Y18458   4.883   4.099   9.497  0.0756 -0.1666 -0.2454
  164SOPE   C3818459   4.779   4.250   9.385 -0.1718  0.0014  0.5573
  164SOPE   H8X18460   4.872   4.299   9.350 -0.1853 -0.6531 -0.4444
  164SOPE   H8Y18461   4.707   4.334   9.397  0.4400  0.6473 -0.1461
  164SOPE   C3918462   4.722   4.174   9.268 -0.0327  0.3746 -0.7524
  164SOPE   H9X18463   4.614   4.201   9.264 -0.3584 -0.5062  1.1225
  164SOPE   H9Y18464   4.728   4.066   9.292  1.6239  0.4056 -0.9432
  164SOPE  C31018465   4.781   4.211   9.138  0.6630 -0.5240  1.1832
  164SOPE  H10X18466   4.890   4.189   9.138  0.6170 -0.7942  0.4022
  164SOPE  H10Y18467   4.771   4.321   9.128 -0.3716 -0.5339  1.9268
  164SOPE  C31118468   4.707   4.140   9.015 -0.0682  0.0030  0.3530
  164SOPE  H11X18469   4.727   4.196   8.921 -0.0740 -2.1109 -0.9628
  164SOPE  H11Y18470   4.598   4.162   9.021 -0.0884 -0.1145  0.4257
  164SOPE  C31218471   4.742   3.995   8.991 -0.1711  0.9193  0.0097
  164SOPE  H12X18472   4.660   3.934   9.035 -0.4594  1.6210  0.4714
  164SOPE  H12Y18473   4.838   3.964   9.036 -0.3787 -0.3501 -0.3866
  164SOPE  C31318474   4.739   3.950   8.839  0.6425 -0.3473  0.6372
  164SOPE  H13X18475   4.831   3.984   8.787 -1.6596  1.5775 -2.4901
  164SOPE  H13Y18476   4.651   3.992   8.786 -0.5434 -1.4383  1.6932
  164SOPE  C31418477   4.736   3.803   8.817  0.5903  0.3741  0.1681
  164SOPE  H14X18478   4.646   3.757   8.864 -0.0711  0.9697 -0.4867
  164SOPE  H14Y18479   4.825   3.747   8.851  0.0503  0.0404  1.0842
  164SOPE  C31518480   4.721   3.774   8.668 -0.0757 -0.1316 -0.4979
  164SOPE  H15X18481   4.813   3.819   8.626  0.2568  0.5180  0.8784
  164SOPE  H15Y18482   4.625   3.827   8.653 -1.2503 -2.0599 -0.2011
  164SOPE  C31618483   4.706   3.619   8.641  0.6214 -0.3726 -0.7863
  164SOPE  H16X18484   4.756   3.568   8.727 -2.8204  0.4249  1.9096
  164SOPE  H16Y18485   4.752   3.584   8.546 -1.3215 -0.2584 -1.8144
  164SOPE  C31718486   4.555   3.588   8.619  0.4729  0.0854  0.5015
  164SOPE  H17X18487   4.516   3.634   8.526 -0.1932 -0.7910  0.3243
  164SOPE  H17Y18488   4.495   3.625   8.704 -0.8237  0.5907 -0.5883
  164SOPE  C31818489   4.534   3.438   8.592  0.1662 -0.3833  0.7471
  164SOPE  H18X18490   4.468   3.414   8.506  1.2843 -1.0078  0.0344
  164SOPE  H18Y18491   4.487   3.388   8.679 -2.4191 -0.3384 -0.5183
  164SOPE  H18Z18492   4.632   3.389   8.576  1.3009  1.7598  0.8214
  165SOPE     N18493   2.331   6.247  10.984 -0.7122 -0.4144 -0.2819
  165SOPE   HN118494   2.278   6.198  11.059 -3.4399  0.4124 -1.5284
  165SOPE   HN218495   2.430   6.229  11.008 -0.8060  0.3898  0.7650
  165SOPE   HN318496   2.319   6.350  10.991  1.1418 -0.1936  0.1462
  165SOPE   C1218497   2.304   6.190  10.848 -0.2730 -0.1800 -0.4261
  165SOPE  H12A18498   2.351   6.262  10.777  0.3179  0.2313  0.3487
  165SOPE  H12B18499   2.195   6.183  10.833 -0.0448 -2.7714 -1.2237
  165SOPE   C1118500   2.372   6.052  10.836 -1.0126 -0.4577  0.5132
  165SOPE  H11A18501   2.344   5.998  10.743 -0.3476  0.4817 -0.2552
  165SOPE  H11B18502   2.340   5.991  10.923 -1.7992  0.8010  1.1279
  165SOPE     P18503   2.625   5.953  10.867  0.0047 -0.1473  0.0437
  165SOPE   O1318504   2.574   5.819  10.890 -0.2758  0.0892 -0.1663
  165SOPE   O1418505   2.720   6.004  10.968  0.0794  0.3618  0.3658
  165SOPE   O1218506   2.513   6.064  10.845 -0.2020 -0.4912  0.2916
  165SOPE   O1118507   2.696   5.938  10.721  1.2698  0.2855  0.4432
  165SOPE    C118508   2.608   5.890  10.611 -0.4046 -0.0705 -0.1625
  165SOPE    HA18509   2.596   5.955  10.522 -0.6582 -1.2550 -1.0239
  165SOPE    HB18510   2.502   5.875  10.640 -0.9496  1.4391 -1.2416
  165SOPE    C218511   2.664   5.757  10.551  0.7779 -0.2185  0.2193
  165SOPE    HS18512   2.684   5.695  10.641 -1.3162  0.2314  1.0422
  165SOPE   O2118513   2.783   5.787  10.474  0.6197 -0.0963  0.3745
  165SOPE   C2118514   2.840   5.679  10.420  0.3155 -0.4213  0.1034
  165SOPE   O2218515   2.818   5.562  10.438  0.2353 -0.2793 -0.3713
  165SOPE   C2218516   2.950   5.720  10.320 -0.5129  0.3056  0.2482
  165SOPE   H2R18517   3.046   5.688  10.365 -1.9101 -2.2539  1.6311
  165SOPE   H2S18518   2.962   5.831  10.314  2.6230  0.0224  0.0881
  165SOPE    C318519   2.553   5.686  10.464 -0.0680  0.1911 -0.8093
  165SOPE    HX18520   2.469   5.675  10.535  1.7458 -1.1331  1.2858
  165SOPE    HY18521   2.586   5.582  10.442  0.7330  0.0796  0.7399
  165SOPE   O3118522   2.528   5.768  10.350 -0.2052  0.2285  0.0164
  165SOPE   C3118523   2.421   5.752  10.273  0.3939  0.3180 -0.4793
  165SOPE   O3218524   2.330   5.673  10.303  0.0454  0.0494  0.3405
  165SOPE   C3218525   2.446   5.814  10.138 -0.0100 -1.4912 -0.5538
  165SOPE   H2X18526   2.551   5.848  10.129 -0.1366 -1.4621 -2.2169
  165SOPE   H2Y18527   2.385   5.907  10.137  1.3929 -0.5478 -0.9861
  165SOPE   C2318528   2.928   5.650  10.182  0.6148 -0.5311 -0.2365
  165SOPE   H3R18529   2.903   5.543  10.198  0.6868 -0.6717 -1.0083
  165SOPE   H3S18530   3.032   5.645  10.142  0.6997 -1.0242  0.0507
  165SOPE   C2418531   2.820   5.717  10.094 -0.0048  0.5516  0.1401
  165SOPE   H4R18532   2.821   5.660   9.998  2.2464 -0.9319  0.9642
  165SOPE   H4S18533   2.721   5.704  10.142 -0.2092 -0.2665 -0.4780
  165SOPE   C2518534   2.851   5.869  10.068  0.3302 -0.0950 -0.0124
  165SOPE   H5R18535   2.805   5.938  10.143  3.8634  2.1138  0.3945
  165SOPE   H5S18536   2.961   5.881  10.061  0.5207 -1.1691  0.9184
  165SOPE   C2618537   2.790   5.919   9.933 -0.2405  0.3954  0.1161
  165SOPE   H6R18538   2.694   5.866   9.917 -0.4070  0.6227  0.3592
  165SOPE   H6S18539   2.773   6.028   9.941 -1.2483  0.2472  0.0555
  165SOPE   C2718540   2.874   5.874   9.813 -0.1470 -0.0088 -0.4752
  165SOPE   H7R18541   2.979   5.888   9.846 -0.5086  0.9843  0.3127
  165SOPE   H7S18542   2.852   5.765   9.803  0.6007 -0.5880  2.9302
  165SOPE   C2818543   2.836   5.956   9.684  0.4393  0.0428  0.1351
  165SOPE   H8R18544   2.738   5.917   9.649  0.3029  1.3273 -1.0193
  165SOPE   H8S18545   2.820   6.063   9.711  0.3241 -0.1488  0.8310
  165SOPE   C2918546   2.922   5.947   9.562 -0.6289 -0.6930  0.8736
  165SOPE   H9118547   2.998   6.027   9.553 -2.2373  0.7167 -1.0231
  165SOPE  C21018548   2.892   5.875   9.457  0.3028  0.3173  0.2866
  165SOPE  H10118549   2.959   5.866   9.371  0.3134 -0.1071  0.3366
  165SOPE  C21118550   2.767   5.795   9.437  0.1671  0.2655  0.3962
  165SOPE  H11R18551   2.675   5.846   9.474  0.0787 -1.8696  3.4758
  165SOPE  H11S18552   2.781   5.708   9.505 -0.4317  1.3975  2.0309
  165SOPE  C21218553   2.761   5.757   9.285  0.4907 -1.0692 -0.4549
  165SOPE  H12R18554   2.678   5.685   9.270 -0.7233 -0.2258  1.7740
  165SOPE  H12S18555   2.859   5.725   9.242  0.9127 -0.5858  0.1184
  165SOPE  C21318556   2.682   5.870   9.216  0.2840  0.7434  0.4077
  165SOPE  H13R18557   2.722   5.973   9.219  0.2718  0.8346 -1.3885
  165SOPE  H13S18558   2.574   5.878   9.242  0.4503  0.8396  1.0810
  165SOPE  C21418559   2.677   5.832   9.066 -0.0398  0.2331 -0.4781
  165SOPE  H14R18560   2.617   5.738   9.064  2.0311 -1.1795  0.5513
  165SOPE  H14S18561   2.782   5.821   9.032 -0.0190  1.4611 -0.8342
  165SOPE  C21518562   2.612   5.928   8.972  0.5762  0.3358 -0.4946
  165SOPE  H15R18563   2.642   6.029   9.008 -0.5982  0.4979  0.0928
  165SOPE  H15S18564   2.501   5.929   8.974  0.5230  0.8001 -2.0974
  165SOPE  C21618565   2.650   5.908   8.826  0.2234 -0.0174 -0.2492
  165SOPE  H16R18566   2.761   5.907   8.836  0.1223  2.5690  2.4208
  165SOPE  H16S18567   2.621   5.999   8.769 -0.6954  1.8260  2.8909
  165SOPE  C21718568   2.607   5.780   8.764  0.6030 -0.0889 -0.0594
  165SOPE  H17R18569   2.516   5.736   8.810  0.1961  1.5540  0.7754
  165SOPE  H17S18570   2.688   5.710   8.793  0.0607 -0.7099 -0.0056
  165SOPE  C21818571   2.628   5.772   8.607  0.2735  0.0772  0.3443
  165SOPE  H18R18572   2.621   5.669   8.566  0.2247  0.6200 -1.0878
  165SOPE  H18S18573   2.735   5.795   8.585  0.5308 -0.3859  1.0797
  165SOPE  H18T18574   2.558   5.832   8.545  0.6111  0.4981  0.3595
  165SOPE   C3318575   2.410   5.714  10.024  0.2277 -0.0344  0.0545
  165SOPE   H3X18576   2.312   5.664  10.044 -0.5180  1.8499  1.3727
  165SOPE   H3Y18577   2.489   5.637  10.034  2.0535  1.9663  1.7518
  165SOPE   C3418578   2.410   5.793   9.894  0.4473  0.0844  0.0840
  165SOPE   H4X18579   2.503   5.849   9.871  0.0534  0.6771 -0.0747
  165SOPE   H4Y18580   2.321   5.858   9.886 -0.2669 -0.9485 -0.6291
  165SOPE   C3518581   2.410   5.682   9.784 -0.1772 -0.1910  0.0203
  165SOPE   H5X18582   2.319   5.624   9.811  0.8609 -1.5832  0.6682
  165SOPE   H5Y18583   2.490   5.607   9.803 -0.0030  0.1519  0.6529
  165SOPE   C3618584   2.403   5.725   9.638  1.0160  0.6550  0.4375
  165SOPE   H6X18585   2.506   5.749   9.603  0.0393  3.3078 -0.9022
  165SOPE   H6Y18586   2.341   5.816   9.626 -0.6193 -0.6389 -1.5240
  165SOPE   C3718587   2.347   5.618   9.541  0.8375 -0.1511 -0.1625
  165SOPE   H7X18588   2.241   5.602   9.568  1.3417 -1.7842  1.0229
  165SOPE   H7Y18589   2.395   5.519   9.558  0.6845 -0.1569  0.2490
  165SOPE   C3818590   2.361   5.655   9.390 -0.0198 -0.1778  0.6114
  165SOPE   H8X18591   2.467   5.648   9.357 -0.6618 -1.5880 -1.3514
  165SOPE   H8Y18592   2.315   5.753   9.368  3.3018  0.5924 -4.8535
  165SOPE   C3918593   2.286   5.551   9.303 -0.3411 -0.4397  0.0960
  165SOPE   H9X18594   2.179   5.549   9.336 -0.6428 -1.7040 -0.8916
  165SOPE   H9Y18595   2.330   5.455   9.336  2.1040  0.1566 -1.2090
  165SOPE  C31018596   2.299   5.566   9.156  1.1175 -0.0574  0.5638
  165SOPE  H10X18597   2.404   5.561   9.119 -0.2673 -2.8006 -3.8045
  165SOPE  H10Y18598   2.267   5.669   9.129  2.4559  0.1355 -0.4013
  165SOPE  C31118599   2.207   5.458   9.100 -0.3718  0.0949  1.1738
  165SOPE  H11X18600   2.102   5.488   9.119 -0.8040 -0.0110 -0.9130
  165SOPE  H11Y18601   2.216   5.369   9.166 -1.2689  0.9244  2.4579
  165SOPE  C31218602   2.227   5.427   8.950  0.2855 -0.0602  0.2006
  165SOPE  H12X18603   2.338   5.424   8.937  0.6284 -0.0825  2.6543
  165SOPE  H12Y18604   2.191   5.518   8.898 -0.8295 -0.8966 -0.5184
  165SOPE  C31318605   2.168   5.303   8.898  0.5322  0.2420 -0.1214
  165SOPE  H13X18606   2.057   5.305   8.902  0.4924  3.0592  4.3202
  165SOPE  H13Y18607   2.201   5.215   8.957 -1.1781 -1.5938 -1.7522
  165SOPE  C31418608   2.214   5.269   8.753 -0.8590  0.7026 -0.1803
  165SOPE  H14X18609   2.197   5.159   8.745  2.7477 -0.0275  0.2536
  165SOPE  H14Y18610   2.322   5.286   8.730 -0.4162  0.6848  1.7329
  165SOPE  C31518611   2.138   5.349   8.650 -0.2246  0.2261 -0.0149
  165SOPE  H15X18612   2.173   5.454   8.638 -1.8917  0.7591 -0.3800
  165SOPE  H15Y18613   2.030   5.347   8.672 -0.4523 -2.0619 -1.0901
  165SOPE  C31618614   2.150   5.275   8.512  0.5960 -0.0620 -0.0373
  165SOPE  H16X18615   2.074   5.325   8.447  0.0793 -0.8205 -0.0186
  165SOPE  H16Y18616   2.121   5.169   8.521  0.8854 -0.2417 -1.0424
  165SOPE  C31718617   2.287   5.287   8.445  0.4883  0.2425 -0.3724
  165SOPE  H17X18618   2.353   5.226   8.510 -0.3517  1.5429  1.8616
  165SOPE  H17Y18619   2.325   5.391   8.444  1.4280 -0.0841  0.0635
  165SOPE  C31818620   2.300   5.231   8.303  0.6044  0.3840 -0.0937
  165SOPE  H18X18621   2.409   5.220   8.283  0.6743  0.7250  0.1024
  165SOPE  H18Y18622   2.262   5.298   8.223 -0.0024  1.4316  1.0369
  165SOPE  H18Z18623   2.256   5.129   8.293 -1.1925  1.2778 -2.2690
  166SOPE     N18624   6.350   3.938  10.604 -0.0467  0.3878  0.5141
  166SOPE   HN118625   6.299   3.911  10.691  0.7498  0.6909  1.0942
  166SOPE   HN218626   6.333   4.037  10.576  0.1694  0.0682 -0.8107
  166SOPE   HN318627   6.310   3.877  10.530  0.4237 -1.2431  1.5584
  166SOPE   C1218628   6.502   3.906  10.634 -0.1061 -0.7757  0.1112
  166SOPE  H12A18629   6.545   3.901  10.532  0.8927 -2.6215  0.5843
  166SOPE  H12B18630   6.504   3.803  10.677 -0.0680 -0.1040  1.8218
  166SOPE   C1118631   6.584   4.009  10.720  0.4063  0.1253  0.2295
  166SOPE  H11A18632   6.679   3.952  10.732  0.2615 -0.1483  0.0940
  166SOPE  H11B18633   6.532   4.031  10.816  0.2288  0.3649  0.0780
  166SOPE     P18634   6.524   4.253  10.651  0.1086 -0.0308  0.0450
  166SOPE   O1318635   6.576   4.360  10.733 -0.8050  0.1294  0.4672
  166SOPE   O1418636   6.390   4.196  10.668 -0.5507 -0.6311 -0.1246
  166SOPE   O1218637   6.620   4.124  10.648 -0.0429 -0.1848 -0.1048
  166SOPE   O1118638   6.541   4.295  10.500 -0.8876 -0.0005  0.4246
  166SOPE    C118639   6.534   4.206  10.395 -0.3383 -0.7084  0.5336
  166SOPE    HA18640   6.452   4.132  10.407 -2.3917  1.3142 -0.3180
  166SOPE    HB18641   6.635   4.168  10.368 -0.2606  0.9937 -1.8755
  166SOPE    C218642   6.488   4.272  10.259 -1.1503  0.8830  0.2842
  166SOPE    HS18643   6.463   4.198  10.180 -1.0703  2.4904 -1.3128
  166SOPE   O2118644   6.607   4.350  10.218  0.1819 -0.4351  0.5459
  166SOPE   C2118645   6.683   4.290  10.124 -0.0633  0.0478  0.4430
  166SOPE   O2218646   6.692   4.168  10.109 -0.0589  0.1481 -0.6225
  166SOPE   C2218647   6.745   4.395  10.033 -0.2328 -0.1378 -0.3786
  166SOPE   H2R18648   6.767   4.485  10.095 -1.2942 -1.8610  2.7068
  166SOPE   H2S18649   6.668   4.421   9.957  0.3952 -0.5325 -1.1718
  166SOPE    C318650   6.361   4.367  10.270 -0.4339 -0.0434  0.1187
  166SOPE    HX18651   6.364   4.419  10.369  1.0729 -2.0598  1.2050
  166SOPE    HY18652   6.267   4.309  10.282 -1.3682  1.8012  2.5853
  166SOPE   O3118653   6.357   4.460  10.157  0.0200 -0.3624 -0.4043
  166SOPE   C3118654   6.394   4.588  10.172 -0.5727 -0.5616  0.7703
  166SOPE   O3218655   6.415   4.643  10.276  0.2159  0.0645 -0.2624
  166SOPE   C3218656   6.408   4.663  10.037 -0.3191 -0.5103 -0.1244
  166SOPE   H2X18657   6.306   4.699  10.011 -0.8660 -2.3999 -0.7926
  166SOPE   H2Y18658   6.439   4.590   9.959 -1.4712  0.5431 -1.6056
  166SOPE   C2318659   6.868   4.355   9.963 -0.2511 -0.3516 -0.2145
  166SOPE   H3R18660   6.942   4.297  10.024  2.1368  2.8474  0.1837
  166SOPE   H3S18661   6.926   4.443   9.929  0.2387 -1.1134 -1.4379
  166SOPE   C2418662   6.838   4.270   9.845 -0.0184  0.4202  0.0062
  166SOPE   H4R18663   6.788   4.175   9.875 -0.2849 -0.0784 -1.8881
  166SOPE   H4S18664   6.772   4.330   9.779 -0.6148 -0.6199 -0.3735
  166SOPE   C2518665   6.955   4.229   9.747 -0.7331 -0.3477 -0.4153
  166SOPE   H5R18666   7.017   4.315   9.713  0.2857 -0.0223  2.0526
  166SOPE   H5S18667   7.015   4.165   9.815 -0.8472  0.7357  0.7423
  166SOPE   C2618668   6.906   4.139   9.631 -0.0628 -0.6871 -0.1466
  166SOPE   H6R18669   6.820   4.073   9.657 -1.3357  1.3977  1.3131
  166SOPE   H6S18670   6.865   4.210   9.555 -1.5741  0.4987  1.6657
  166SOPE   C2718671   7.024   4.057   9.569 -0.2270  0.6549  0.5060
  166SOPE   H7R18672   7.083   4.131   9.511  1.8921 -1.2109  0.1804
  166SOPE   H7S18673   7.090   4.020   9.651  0.9584 -0.4130 -0.8869
  166SOPE   C2818674   6.965   3.955   9.470  0.0881 -1.1901 -0.7011
  166SOPE   H8R18675   6.906   3.878   9.524  1.7556 -1.7306  0.4274
  166SOPE   H8S18676   6.896   4.008   9.400 -0.2580 -2.1938 -1.1367
  166SOPE   C2918677   7.078   3.906   9.389  0.3843 -0.1085 -0.2102
  166SOPE   H9118678   7.175   3.890   9.439 -1.2662  1.1161  3.8151
  166SOPE  C21018679   7.080   3.898   9.253 -0.1665  0.0102 -0.0042
  166SOPE  H10118680   7.166   3.854   9.200  0.0285 -1.2818  1.3244
  166SOPE  C21118681   6.970   3.923   9.153  0.0150 -0.0127  0.8534
  166SOPE  H11R18682   6.941   4.028   9.176  3.1992  0.9384  1.0106
  166SOPE  H11S18683   6.879   3.863   9.174 -0.8468  0.4777 -1.1906
  166SOPE  C21218684   6.990   3.924   9.005 -0.2435 -0.2027 -0.5976
  166SOPE  H12R18685   6.887   3.916   8.964  0.1280 -1.4851 -1.3546
  166SOPE  H12S18686   7.062   3.843   8.977  0.4053  0.0370  0.3395
  166SOPE  C21318687   7.049   4.052   8.961 -0.1466 -0.8577  0.2196
  166SOPE  H13R18688   7.144   4.075   9.015 -1.4789 -0.2104  2.4315
  166SOPE  H13S18689   6.968   4.128   8.973  0.7329  0.0752  0.4167
  166SOPE  C21418690   7.076   4.066   8.809 -0.0639 -0.4967 -0.3870
  166SOPE  H14R18691   7.157   3.990   8.795  1.0066  0.0425  2.1927
  166SOPE  H14S18692   7.135   4.157   8.784  1.0495 -0.7884  1.0001
  166SOPE  C21518693   6.949   4.048   8.730 -0.0100 -0.3162  0.8694
  166SOPE  H15R18694   6.871   4.124   8.751 -1.6451 -1.5394 -0.5530
  166SOPE  H15S18695   6.897   3.950   8.741 -0.9150 -0.4553 -3.1335
  166SOPE  C21618696   6.977   4.068   8.579 -0.0582  0.7871 -0.3574
  166SOPE  H16R18697   7.050   3.989   8.548  0.0976  0.5652  0.5457
  166SOPE  H16S18698   7.022   4.165   8.552  0.2268  0.9872  0.7960
  166SOPE  C21718699   6.850   4.044   8.495 -0.3012 -0.2664  0.3928
  166SOPE  H17R18700   6.793   4.139   8.508  1.3157  0.4509  2.8209
  166SOPE  H17S18701   6.790   3.972   8.554 -1.9247  0.7970  0.1138
  166SOPE  C21818702   6.858   4.009   8.343 -0.0158  0.0027 -0.5030
  166SOPE  H18R18703   6.762   4.027   8.291 -0.6346 -1.1378  0.1849
  166SOPE  H18S18704   6.891   3.904   8.325 -0.7655 -0.1968 -0.7717
  166SOPE  H18T18705   6.929   4.070   8.284 -0.3052  1.3261  0.4854
  166SOPE   C3318706   6.512   4.774  10.051  0.4087 -0.5887  0.0374
  166SOPE   H3X18707   6.610   4.728  10.079  1.9993  2.0602 -0.8251
  166SOPE   H3Y18708   6.503   4.841  10.138 -1.3957  0.2662 -0.7588
  166SOPE   C3418709   6.512   4.852   9.917 -1.0133 -0.5326  0.1835
  166SOPE   H4X18710   6.418   4.899   9.881 -0.9078 -0.4201  0.0548
  166SOPE   H4Y18711   6.547   4.787   9.835  2.3380 -0.8692  1.7060
  166SOPE   C3518712   6.617   4.965   9.924 -1.0372  0.1174 -0.0478
  166SOPE   H5X18713   6.723   4.934   9.917  0.1668  3.2157  2.0434
  166SOPE   H5Y18714   6.609   5.023  10.018 -0.7053 -0.6916  0.4876
  166SOPE   C3618715   6.597   5.055   9.798 -0.1006 -0.6404  0.4365
  166SOPE   H6X18716   6.644   5.155   9.804 -1.5145  0.3654 -3.0090
  166SOPE   H6Y18717   6.491   5.083   9.783  0.3617  0.6359 -0.6729
  166SOPE   C3718718   6.657   4.991   9.669 -0.0524 -0.4311 -0.7506
  166SOPE   H7X18719   6.615   4.891   9.643  0.1008 -0.2435 -1.7815
  166SOPE   H7Y18720   6.767   4.978   9.683  0.3902 -2.8228 -4.7694
  166SOPE   C3818721   6.624   5.076   9.542 -0.2235  0.7903 -0.4084
  166SOPE   H8X18722   6.658   5.178   9.570  1.3231  0.8786 -2.3178
  166SOPE   H8Y18723   6.515   5.075   9.525 -0.4129 -0.9550  0.7017
  166SOPE   C3918724   6.687   5.022   9.419  0.3922  0.1735  0.0811
  166SOPE   H9X18725   6.669   4.914   9.403 -1.6568  0.4264  0.3291
  166SOPE   H9Y18726   6.796   5.034   9.432  0.4319  2.1812 -1.5228
  166SOPE  C31018727   6.656   5.102   9.292 -0.0121  0.2641  0.0129
  166SOPE  H10X18728   6.677   5.210   9.306 -2.1921  1.0407 -1.9939
  166SOPE  H10Y18729   6.546   5.092   9.276  0.0146  0.0414 -0.0401
  166SOPE  C31118730   6.727   5.045   9.168  0.1449  0.1810  0.9478
  166SOPE  H11X18731   6.831   5.020   9.197  0.8902  1.0808 -0.8196
  166SOPE  H11Y18732   6.730   5.129   9.096 -1.1023  0.1989  0.8959
  166SOPE  C31218733   6.649   4.917   9.126 -0.2166  0.0600  0.4703
  166SOPE  H12X18734   6.551   4.948   9.083 -0.1036 -0.1520  0.0603
  166SOPE  H12Y18735   6.620   4.856   9.215  0.4441 -1.6847 -0.4523
  166SOPE  C31318736   6.732   4.823   9.027 -0.2305 -0.6350  0.3970
  166SOPE  H13X18737   6.666   4.735   9.011 -1.1176 -0.5052  2.8539
  166SOPE  H13Y18738   6.826   4.803   9.082 -1.2777 -1.7949  1.8760
  166SOPE  C31418739   6.766   4.894   8.898 -0.0529 -0.0245 -0.1763
  166SOPE  H14X18740   6.873   4.921   8.890 -0.8041  3.0082 -1.3825
  166SOPE  H14Y18741   6.726   4.997   8.912 -0.5968 -0.0518 -1.4137
  166SOPE  C31518742   6.697   4.849   8.765 -0.0067  0.3418 -0.4773
  166SOPE  H15X18743   6.733   4.744   8.758  1.0048  0.5966  0.6148
  166SOPE  H15Y18744   6.732   4.913   8.682  0.2911  3.7151  2.0252
  166SOPE  C31618745   6.547   4.862   8.762  0.8426  0.2270  0.0624
  166SOPE  H16X18746   6.511   4.813   8.855  1.6744 -0.5181 -0.0011
  166SOPE  H16Y18747   6.520   4.802   8.673 -2.0944  2.4964 -0.7299
  166SOPE  C31718748   6.491   5.007   8.763 -0.7169  0.4497 -0.1140
  166SOPE  H17X18749   6.541   5.069   8.686 -2.8758 -0.8465 -2.7045
  166SOPE  H17Y18750   6.513   5.055   8.861 -0.8774  1.4369 -0.5516
  166SOPE  C31818751   6.335   5.027   8.759 -0.5951 -0.3674 -0.2079
  166SOPE  H18X18752   6.294   4.968   8.674  0.1933  1.1211 -1.6877
  166SOPE  H18Y18753   6.305   5.131   8.732 -0.0432  0.1275  1.0166
  166SOPE  H18Z18754   6.286   4.988   8.851 -2.4079 -2.3817 -1.8984
  167SOPE     N18755   1.826   3.599   6.200 -0.0643  0.7960  0.5071
  167SOPE   HN118756   1.786   3.617   6.294  2.8499  0.5800  1.9028
  167SOPE   HN218757   1.914   3.544   6.203  0.3869  1.3083 -1.6226
  167SOPE   HN318758   1.865   3.691   6.172 -1.6593  0.8702 -1.7117
  167SOPE   C1218759   1.729   3.535   6.100  0.0034  0.5855  0.1035
  167SOPE  H12A18760   1.672   3.466   6.165  1.3270 -1.9229 -1.2470
  167SOPE  H12B18761   1.788   3.487   6.019 -1.2710  0.8314 -1.0004
  167SOPE   C1118762   1.634   3.644   6.055 -0.3309  0.4308 -0.6806
  167SOPE  H11A18763   1.563   3.602   5.980 -0.4846 -2.2142  0.8263
  167SOPE  H11B18764   1.696   3.714   5.995 -1.3435  0.6350 -1.5303
  167SOPE     P18765   1.418   3.698   6.217 -0.5604 -0.2982  0.3174
  167SOPE   O1318766   1.328   3.702   6.099  0.0234  0.2340 -0.0947
  167SOPE   O1418767   1.395   3.801   6.319  0.1120  0.4693  0.2763
  167SOPE   O1218768   1.569   3.715   6.162  0.3503 -0.2256 -0.2952
  167SOPE   O1118769   1.424   3.550   6.282 -0.4189  0.1315  0.5640
  167SOPE    C118770   1.506   3.532   6.398 -0.3614 -0.4942 -0.0444
  167SOPE    HA18771   1.581   3.611   6.420  0.6054 -1.6849  1.1149
  167SOPE    HB18772   1.568   3.442   6.380  3.2703  1.6278  0.6743
  167SOPE    C218773   1.420   3.506   6.526  0.4056 -0.1134 -0.0413
  167SOPE    HS18774   1.361   3.594   6.559 -1.7648 -2.0391  1.4470
  167SOPE   O2118775   1.514   3.464   6.627  0.0845 -0.5040  0.4841
  167SOPE   C2118776   1.555   3.564   6.700  0.1959 -0.6342  0.0216
  167SOPE   O2218777   1.549   3.683   6.664  0.0826  0.0175 -0.1494
  167SOPE   C2218778   1.577   3.504   6.840 -0.3014 -0.3496 -0.5009
  167SOPE   H2R18779   1.641   3.414   6.841 -3.1069 -2.4718 -0.8536
  167SOPE   H2S18780   1.475   3.480   6.876  1.1403 -4.6623  1.2653
  167SOPE    C318781   1.320   3.393   6.507  0.3503 -0.3616  0.5392
  167SOPE    HX18782   1.388   3.307   6.491  2.3707  1.0296  1.2589
  167SOPE    HY18783   1.254   3.429   6.425 -1.5730  2.2209  3.0120
  167SOPE   O3118784   1.227   3.370   6.618  0.1741 -0.4452  0.5060
  167SOPE   C3118785   1.145   3.274   6.584 -0.4114  0.2482  0.6610
  167SOPE   O3218786   1.134   3.215   6.479  0.1022 -0.4979  0.7187
  167SOPE   C3218787   1.063   3.229   6.711  0.9974 -0.7189 -0.1848
  167SOPE   H2X18788   1.103   3.291   6.795 -0.6104 -1.5109  1.2127
  167SOPE   H2Y18789   1.073   3.122   6.738 -0.3324 -0.8678 -0.2347
  167SOPE   C2318790   1.631   3.618   6.934  0.9974  0.2531 -0.2340
  167SOPE   H3R18791   1.556   3.700   6.927 -1.2235 -1.3008  2.7422
  167SOPE   H3S18792   1.724   3.665   6.896 -1.4787  4.4811 -1.8443
  167SOPE   C2418793   1.648   3.585   7.084  0.1700  0.2218 -0.0777
  167SOPE   H4R18794   1.678   3.673   7.145  1.7517 -1.1157  1.1562
  167SOPE   H4S18795   1.543   3.558   7.109 -0.1486  0.9122 -0.6353
  167SOPE   C2518796   1.764   3.482   7.117  0.4164  0.2491  0.1645
  167SOPE   H5R18797   1.743   3.394   7.051  0.2188 -0.2316  0.8577
  167SOPE   H5S18798   1.859   3.522   7.076  0.6028 -1.2450 -0.9446
  167SOPE   C2618799   1.763   3.443   7.263  0.0218 -0.0490  0.5822
  167SOPE   H6R18800   1.774   3.537   7.322  2.2846  1.7846 -2.4911
  167SOPE   H6S18801   1.662   3.402   7.286  0.3424 -0.8127  0.6587
  167SOPE   C2718802   1.873   3.347   7.290  0.1757  1.0884 -0.0239
  167SOPE   H7R18803   1.876   3.273   7.208 -0.5159  2.2605 -1.1340
  167SOPE   H7S18804   1.975   3.392   7.292  1.3353 -1.3856  2.0918
  167SOPE   C2818805   1.856   3.273   7.427 -0.1884  0.0966  0.3737
  167SOPE   H8R18806   1.757   3.224   7.420 -0.1586  0.1397 -0.3629
  167SOPE   H8S18807   1.912   3.177   7.435 -0.0434  0.0153 -1.2763
  167SOPE   C2918808   1.875   3.366   7.543 -0.2712  0.0725 -0.4161
  167SOPE   H9118809   1.821   3.461   7.527 -1.3402 -0.7145 -1.7561
  167SOPE  C21018810   1.931   3.348   7.662  0.4887 -0.2054 -0.5025
  167SOPE  H10118811   1.941   3.433   7.732  1.2193 -0.6062 -0.1119
  167SOPE  C21118812   2.002   3.214   7.695 -0.1786 -0.3068  0.3987
  167SOPE  H11R18813   2.107   3.225   7.661 -0.3920 -0.4139 -0.3206
  167SOPE  H11S18814   1.940   3.134   7.649 -1.6650  0.7176  0.5393
  167SOPE  C21218815   2.007   3.186   7.848  0.2792 -0.0252 -0.4660
  167SOPE  H12R18816   2.049   3.084   7.864  0.2292  0.0976  0.5288
  167SOPE  H12S18817   1.903   3.182   7.888  0.6032  1.4886  0.6387
  167SOPE  C21318818   2.092   3.282   7.932 -0.1591 -0.2221 -0.2109
  167SOPE  H13R18819   2.046   3.383   7.941  1.5093  0.4302  2.1156
  167SOPE  H13S18820   2.192   3.296   7.885  1.3627 -1.1003  2.4878
  167SOPE  C21418821   2.114   3.228   8.073  0.1292 -0.7885 -0.6138
  167SOPE  H14R18822   2.104   3.117   8.071 -1.0402 -0.6920 -1.9222
  167SOPE  H14S18823   2.029   3.255   8.140  1.2841  0.4655  0.4004
  167SOPE  C21518824   2.238   3.273   8.152 -0.9969 -0.7970 -0.1196
  167SOPE  H15R18825   2.227   3.378   8.187 -0.1652 -0.5251 -0.6340
  167SOPE  H15S18826   2.328   3.280   8.087 -1.4020  0.3099 -0.5934
  167SOPE  C21618827   2.276   3.184   8.278 -0.6335  0.6497 -0.1838
  167SOPE  H16R18828   2.379   3.203   8.314  1.1596 -2.3319 -3.1313
  167SOPE  H16S18829   2.280   3.079   8.241  2.5385  0.4419  0.5249
  167SOPE  C21718830   2.171   3.188   8.393 -0.1813  0.0478 -0.4745
  167SOPE  H17R18831   2.204   3.126   8.479  1.3193  1.5914  0.1240
  167SOPE  H17S18832   2.083   3.133   8.352  0.8802 -2.8506  0.8249
  167SOPE  C21818833   2.138   3.324   8.449 -1.6678  0.2716  0.4336
  167SOPE  H18R18834   2.220   3.381   8.499 -2.8754  3.2939 -0.8120
  167SOPE  H18S18835   2.068   3.314   8.535 -0.5697  0.9215  1.4433
  167SOPE  H18T18836   2.092   3.389   8.371 -0.5504 -0.5309 -0.9345
  167SOPE   C3318837   0.909   3.251   6.690 -0.0085  0.3029  0.5501
  167SOPE   H3X18838   0.875   3.186   6.606 -0.0776 -0.8665  1.4469
  167SOPE   H3Y18839   0.889   3.356   6.662  1.0776  0.0821 -1.2363
  167SOPE   C3418840   0.826   3.223   6.813 -0.3051 -0.4256  0.6474
  167SOPE   H4X18841   0.723   3.254   6.788 -0.6477 -2.1569 -0.2926
  167SOPE   H4Y18842   0.856   3.285   6.899  1.8697 -0.0007 -0.3320
  167SOPE   C3518843   0.817   3.075   6.852 -0.4641  0.0156  0.3419
  167SOPE   H5X18844   0.919   3.034   6.871 -0.2289  0.2714 -0.3339
  167SOPE   H5Y18845   0.784   3.027   6.758  2.1666 -0.5921 -0.3630
  167SOPE   C3618846   0.715   3.048   6.968 -0.0490 -0.2601  0.1392
  167SOPE   H6X18847   0.679   2.944   6.952 -0.9423  0.2581 -1.4543
  167SOPE   H6Y18848   0.629   3.118   6.963 -0.1655 -0.3790  0.4261
  167SOPE   C3718849   0.783   3.069   7.105 -0.3047  0.0593 -0.2092
  167SOPE   H7X18850   0.821   3.173   7.113 -1.4802  0.4798  0.1821
  167SOPE   H7Y18851   0.870   3.001   7.110  1.3762  2.1789  1.6650
  167SOPE   C3818852   0.697   3.042   7.232 -0.8838 -0.1276  1.0264
  167SOPE   H8X18853   0.669   2.935   7.243  0.5158 -0.8227 -1.3675
  167SOPE   H8Y18854   0.610   3.111   7.226  0.2051  1.1398 -1.8086
  167SOPE   C3918855   0.774   3.088   7.363  0.5190  0.1000 -0.1638
  167SOPE   H9X18856   0.793   3.197   7.352  1.6433 -0.2223 -1.7971
  167SOPE   H9Y18857   0.870   3.033   7.369 -0.5269 -1.6157  2.7483
  167SOPE  C31018858   0.698   3.070   7.495 -0.3632 -0.1284 -0.3125
  167SOPE  H10X18859   0.682   2.961   7.510 -0.8338 -0.2492 -1.5273
  167SOPE  H10Y18860   0.598   3.116   7.479 -0.3614  0.6033  1.5820
  167SOPE  C31118861   0.766   3.145   7.613  0.4075 -0.0737  0.0656
  167SOPE  H11X18862   0.676   3.161   7.675 -0.5819 -1.6849 -0.8567
  167SOPE  H11Y18863   0.801   3.241   7.571 -0.3281  0.6894  1.1588
  167SOPE  C31218864   0.872   3.071   7.699 -0.5119  1.1741  0.1947
  167SOPE  H12X18865   0.821   2.980   7.739  2.3084 -0.7930 -0.3736
  167SOPE  H12Y18866   0.902   3.134   7.785 -1.9216 -0.2833  1.8463
  167SOPE  C31318867   0.988   3.020   7.612 -0.0999  0.3116  0.2309
  167SOPE  H13X18868   0.994   3.092   7.528 -3.6273  0.4956 -0.0001
  167SOPE  H13Y18869   0.962   2.925   7.561  0.4225 -1.1326  2.5035
  167SOPE  C31418870   1.130   2.999   7.683  0.2611 -0.2107 -0.3538
  167SOPE  H14X18871   1.164   3.076   7.756  4.0489 -1.3955 -0.6340
  167SOPE  H14Y18872   1.214   2.993   7.610  2.2215 -1.0602  1.8439
  167SOPE  C31518873   1.148   2.868   7.765  0.0233 -0.4207 -0.1957
  167SOPE  H15X18874   1.120   2.788   7.693  1.1212 -2.9444  2.0168
  167SOPE  H15Y18875   1.065   2.863   7.839 -0.5259 -2.4378 -0.8793
  167SOPE  C31618876   1.283   2.825   7.828  0.1853  0.6268  0.4854
  167SOPE  H16X18877   1.336   2.898   7.892  0.2760  0.8093  0.2053
  167SOPE  H16Y18878   1.341   2.813   7.734  0.4224  0.6311  0.6331
  167SOPE  C31718879   1.272   2.685   7.893 -1.1238 -0.0436 -0.5199
  167SOPE  H17X18880   1.225   2.612   7.824  0.1937 -0.3770 -1.0968
  167SOPE  H17Y18881   1.221   2.682   7.992 -0.1561  0.7380  0.0147
  167SOPE  C31818882   1.412   2.634   7.914  0.2982  0.8547 -0.9970
  167SOPE  H18X18883   1.456   2.707   7.985  1.6272 -0.3743 -0.5167
  167SOPE  H18Y18884   1.464   2.647   7.817  0.4921  1.9681 -0.7498
  167SOPE  H18Z18885   1.406   2.528   7.946 -0.2510  0.7241 -1.4964
  168SOPE     N18886   1.893   6.094   6.156  0.7569  0.3485  0.0642
  168SOPE   HN118887   1.986   6.124   6.121  0.3562  2.1475  0.4296
  168SOPE   HN218888   1.822   6.161   6.192  0.2230 -0.8364  1.2898
  168SOPE   HN318889   1.916   6.045   6.245 -0.8411 -0.9746 -0.2001
  168SOPE   C1218890   1.822   6.004   6.061  0.0459 -0.6437  0.2583
  168SOPE  H12A18891   1.874   5.907   6.072  0.1870 -1.0219 -2.7133
  168SOPE  H12B18892   1.848   6.023   5.954  1.3101 -0.8632  0.5044
  168SOPE   C1118893   1.677   5.990   6.079 -0.4421  0.5133  0.2146
  168SOPE  H11A18894   1.636   5.925   5.999 -2.3907  1.1225  0.6643
  168SOPE  H11B18895   1.641   6.095   6.074 -1.6900  0.0937  0.2176
  168SOPE     P18896   1.569   5.805   6.237 -0.2193  0.4000 -0.3300
  168SOPE   O1318897   1.619   5.706   6.143 -0.6645 -0.4117 -0.0914
  168SOPE   O1418898   1.418   5.828   6.223 -0.0898 -0.7678  0.3133
  168SOPE   O1218899   1.644   5.947   6.211  0.2878  0.2356 -0.0538
  168SOPE   O1118900   1.613   5.762   6.388 -0.3372  0.2000 -0.1327
  168SOPE    C118901   1.744   5.707   6.406 -0.3553  0.2150 -0.6606
  168SOPE    HA18902   1.813   5.758   6.336 -0.1346 -0.6951 -1.1306
  168SOPE    HB18903   1.742   5.599   6.380  0.2583  0.3447 -1.2627
  168SOPE    C218904   1.796   5.721   6.552  0.3807  0.2495  0.2537
  168SOPE    HS18905   1.906   5.709   6.548  0.5810  0.8852  2.6406
  168SOPE   O2118906   1.717   5.634   6.647  0.2736 -0.5144 -0.4947
  168SOPE   C2118907   1.785   5.604   6.749 -0.0059 -0.1212 -0.7023
  168SOPE   O2218908   1.904   5.629   6.770 -0.0458  0.2929 -0.1039
  168SOPE   C2218909   1.686   5.518   6.839 -0.1570 -0.2028 -0.5269
  168SOPE   H2R18910   1.663   5.418   6.796 -3.8976  0.7173 -1.0044
  168SOPE   H2S18911   1.584   5.563   6.842 -0.4088 -0.8000 -0.0131
  168SOPE    C318912   1.773   5.870   6.601 -1.0474 -0.3942  0.2477
  168SOPE    HX18913   1.665   5.894   6.606 -0.9631  0.1778 -0.3916
  168SOPE    HY18914   1.808   5.938   6.520  1.1795  0.9287  2.1801
  168SOPE   O3118915   1.835   5.907   6.726  0.4442  0.0978  0.2085
  168SOPE   C3118916   1.966   5.918   6.722  0.1516  0.3330  0.1124
  168SOPE   O3218917   2.034   5.910   6.620  0.4966  0.3658 -0.5459
  168SOPE   C3218918   2.022   5.960   6.858  0.4283  0.8049  0.9875
  168SOPE   H2X18919   1.970   6.056   6.877 -1.6179  0.0156 -0.3131
  168SOPE   H2Y18920   2.127   5.980   6.827 -0.5343  4.2120 -0.5104
  168SOPE   C2318921   1.745   5.501   6.973  0.3857 -0.2807 -0.2646
  168SOPE   H3R18922   1.770   5.595   7.027  0.6444 -1.6184  2.0478
  168SOPE   H3S18923   1.843   5.449   6.964  1.1806  1.4672 -3.8489
  168SOPE   C2418924   1.643   5.417   7.062 -0.3903  0.2191 -0.8566
  168SOPE   H4R18925   1.543   5.466   7.056 -0.4620  0.1784 -0.1387
  168SOPE   H4S18926   1.652   5.316   7.019 -0.4419 -0.6251  1.0202
  168SOPE   C2518927   1.685   5.410   7.214 -0.0045  0.5218  0.1515
  168SOPE   H5R18928   1.658   5.312   7.259  1.1590  0.5377  0.9095
  168SOPE   H5S18929   1.796   5.414   7.215 -0.0318  1.5791  1.8361
  168SOPE   C2618930   1.627   5.517   7.297  0.4532 -1.0255 -0.5778
  168SOPE   H6R18931   1.646   5.616   7.250 -4.5010  0.3265 -0.2765
  168SOPE   H6S18932   1.517   5.503   7.302  0.2758  0.3087 -0.5448
  168SOPE   C2718933   1.668   5.517   7.447 -0.2056 -0.0021  0.5392
  168SOPE   H7R18934   1.674   5.415   7.492  0.3518 -0.4248 -0.4580
  168SOPE   H7S18935   1.771   5.559   7.449 -0.4093  0.9182 -2.6858
  168SOPE   C2818936   1.585   5.604   7.546  0.8324  0.3712  0.6739
  168SOPE   H8R18937   1.590   5.712   7.520 -1.3300  1.6302  4.5477
  168SOPE   H8S18938   1.481   5.566   7.541  0.2886  1.9462 -1.5315
  168SOPE   C2918939   1.621   5.589   7.690 -0.4590  0.1765  0.1144
  168SOPE   H9118940   1.714   5.640   7.717 -0.1619  0.1671 -0.8498
  168SOPE  C21018941   1.554   5.519   7.784  0.3895 -0.4797 -0.1915
  168SOPE  H10118942   1.577   5.546   7.888  1.2210  3.3705 -1.2075
  168SOPE  C21118943   1.428   5.437   7.774  0.3736  0.0671 -0.7531
  168SOPE  H11R18944   1.396   5.435   7.668 -0.8155 -0.3157 -0.4106
  168SOPE  H11S18945   1.349   5.479   7.839  1.0394  1.1485 -0.6341
  168SOPE  C21218946   1.448   5.288   7.811 -0.0478 -0.2483  0.0886
  168SOPE  H12R18947   1.528   5.237   7.753 -0.4163 -0.4459 -0.2546
  168SOPE  H12S18948   1.356   5.227   7.793  0.0142 -0.4605  0.4644
  168SOPE  C21318949   1.494   5.266   7.960  0.3005 -0.6414 -0.5953
  168SOPE  H13R18950   1.588   5.323   7.977 -0.0192  0.1256 -1.3316
  168SOPE  H13S18951   1.522   5.160   7.977 -2.7571 -1.3638  0.4784
  168SOPE  C21418952   1.399   5.315   8.067  0.4117  0.5164  0.2614
  168SOPE  H14R18953   1.301   5.272   8.037  1.3716 -0.5329 -1.5376
  168SOPE  H14S18954   1.403   5.426   8.065  5.0201  0.5415  0.4167
  168SOPE  C21518955   1.437   5.268   8.208  0.3011  0.6272 -0.1621
  168SOPE  H15R18956   1.539   5.304   8.231  0.9970 -1.0322 -0.5504
  168SOPE  H15S18957   1.445   5.158   8.197  0.0233  0.5590  0.3095
  168SOPE  C21618958   1.337   5.306   8.314 -0.4868  0.2393 -0.2632
  168SOPE  H16R18959   1.328   5.416   8.319 -0.5927  0.2171  0.0590
  168SOPE  H16S18960   1.365   5.272   8.417 -1.0065  2.2320  0.5747
  168SOPE  C21718961   1.200   5.242   8.295 -0.7817  0.5513 -0.1232
  168SOPE  H17R18962   1.207   5.133   8.273 -0.9939  0.2555  1.1792
  168SOPE  H17S18963   1.151   5.281   8.203  0.0401 -0.6178 -1.0914
  168SOPE  C21818964   1.108   5.249   8.411  0.3123 -0.1930 -0.0540
  168SOPE  H18R18965   1.146   5.186   8.494 -2.4301  0.7603  2.1028
  168SOPE  H18S18966   1.000   5.225   8.393  0.2637  0.0077 -0.0264
  168SOPE  H18T18967   1.115   5.355   8.441 -0.6702 -0.1595  0.0984
  168SOPE   C3318968   2.027   5.850   6.961 -0.0764  0.1247 -0.4064
  168SOPE   H3X18969   2.054   5.750   6.919 -0.8051 -0.2507 -0.0076
  168SOPE   H3Y18970   1.927   5.856   7.010  0.2880  0.8306  0.2618
  168SOPE   C3418971   2.135   5.882   7.073 -0.6020 -0.4098  0.8252
  168SOPE   H4X18972   2.114   5.985   7.109  0.9106 -0.4372  1.8819
  168SOPE   H4Y18973   2.239   5.883   7.035  0.2805  0.7391  3.0727
  168SOPE   C3518974   2.117   5.791   7.196 -0.0023 -0.2671 -0.6033
  168SOPE   H5X18975   2.105   5.686   7.164 -0.1407 -1.0429  1.7784
  168SOPE   H5Y18976   2.013   5.819   7.223  0.2008  0.3736 -0.4559
  168SOPE   C3618977   2.220   5.804   7.309 -0.1872  0.7276 -0.0829
  168SOPE   H6X18978   2.320   5.772   7.271 -0.8194 -0.4636 -0.8118
  168SOPE   H6Y18979   2.196   5.721   7.379  1.8292  0.0699 -0.0849
  168SOPE   C3718980   2.222   5.938   7.381 -0.0591 -0.1982  0.1098
  168SOPE   H7X18981   2.121   5.973   7.410  0.3845  1.0896  0.1946
  168SOPE   H7Y18982   2.258   6.017   7.311 -2.5892  1.2883  0.3729
  168SOPE   C3818983   2.301   5.941   7.512 -0.2334 -0.5934  0.3941
  168SOPE   H8X18984   2.406   5.909   7.494 -0.4537 -1.1483  0.0451
  168SOPE   H8Y18985   2.272   5.862   7.584 -1.8397  1.5685  2.2495
  168SOPE   C3918986   2.306   6.081   7.579 -0.4952 -0.1040  0.1072
  168SOPE   H9X18987   2.209   6.135   7.581 -0.4894  0.0327 -1.6498
  168SOPE   H9Y18988   2.364   6.143   7.508 -0.4217 -1.3939 -1.0134
  168SOPE  C31018989   2.387   6.087   7.707 -0.5416  0.5934 -0.3105
  168SOPE  H10X18990   2.404   6.191   7.744 -0.3620  0.5288 -0.2100
  168SOPE  H10Y18991   2.487   6.040   7.699 -0.3069  0.9355  0.4960
  168SOPE  C31118992   2.317   6.006   7.823  0.3380 -0.1627  1.0861
  168SOPE  H11X18993   2.312   5.896   7.805 -0.7919 -0.0434  0.5779
  168SOPE  H11Y18994   2.211   6.038   7.827  0.5751  0.9434 -0.4716
  168SOPE  C31218995   2.379   6.029   7.957 -0.2443 -0.0289 -0.5081
  168SOPE  H12X18996   2.392   6.138   7.968  2.6856 -0.4953  2.0366
  168SOPE  H12Y18997   2.486   5.999   7.954 -0.6026 -1.3576 -0.8193
  168SOPE  C31318998   2.320   5.962   8.077 -0.1449 -0.5879  0.1246
  168SOPE  H13X18999   2.318   5.856   8.043 -1.9445 -0.9758  1.3076
  168SOPE  H13Y19000   2.218   6.004   8.094 -0.5110 -1.0080 -0.9392
  168SOPE  C31419001   2.405   5.982   8.202 -0.6740 -0.3822 -0.1087
  168SOPE  H14X19002   2.509   5.954   8.173 -0.7095  0.4964 -1.1377
  168SOPE  H14Y19003   2.359   5.921   8.283 -0.7910  2.3699  2.0301
  168SOPE  C31519004   2.404   6.128   8.249  0.5311  0.0328 -0.7187
  168SOPE  H15X19005   2.300   6.167   8.250  0.1353 -0.9196 -2.5341
  168SOPE  H15Y19006   2.459   6.188   8.173 -0.5571 -0.0106 -1.5533
  168SOPE  C31619007   2.478   6.146   8.381 -0.9877  0.3870  0.0992
  168SOPE  H16X19008   2.562   6.073   8.379 -1.1752  0.1681  0.1406
  168SOPE  H16Y19009   2.428   6.110   8.473 -0.3548 -1.5773 -0.2906
  168SOPE  C31719010   2.544   6.281   8.401  0.2633 -0.7441  0.9764
  168SOPE  H17X19011   2.472   6.355   8.360  0.9381 -1.2226 -1.1750
  168SOPE  H17Y19012   2.637   6.297   8.342 -1.3077  0.8721 -1.2469
  168SOPE  C31819013   2.553   6.319   8.547  0.1126 -0.7711  0.5418
  168SOPE  H18X19014   2.630   6.257   8.598  1.4458 -0.2607 -0.7873
  168SOPE  H18Y19015   2.455   6.289   8.590 -2.0199  2.5086 -1.5802
  168SOPE  H18Z19016   2.560   6.430   8.557 -2.2512  0.0391 -3.9003
  169SOPE     N19017   3.362   2.653   6.442  0.8195  0.1256  0.5264
  169SOPE   HN119018   3.333   2.751   6.458  0.6003  0.4577 -1.6452
  169SOPE   HN219019   3.311   2.601   6.516 -2.1301  0.0983 -1.4035
  169SOPE   HN319020   3.465   2.634   6.443  0.9999  1.0767  0.9899
  169SOPE   C1219021   3.307   2.611   6.305  0.2490 -0.3073  0.6677
  169SOPE  H12A19022   3.296   2.500   6.308  1.3262 -0.4480 -0.1449
  169SOPE  H12B19023   3.380   2.631   6.225 -0.4188 -0.2449  0.0601
  169SOPE   C1119024   3.173   2.685   6.284  0.0947 -0.5376  0.0876
  169SOPE  H11A19025   3.122   2.680   6.382 -0.2726  0.5852 -0.0308
  169SOPE  H11B19026   3.101   2.645   6.210 -1.4859  1.3700  0.5278
  169SOPE     P19027   3.190   2.954   6.330  0.0720  0.8560  0.2437
  169SOPE   O1319028   3.060   2.968   6.396  0.0906 -0.0906  0.2799
  169SOPE   O1419029   3.221   3.065   6.239 -0.3039 -0.1228 -0.3734
  169SOPE   O1219030   3.189   2.825   6.236  0.2730  0.6850  0.5922
  169SOPE   O1119031   3.308   2.922   6.432 -0.4271 -0.1356 -0.4691
  169SOPE    C119032   3.425   3.004   6.449 -0.6615  0.1533  0.4699
  169SOPE    HA19033   3.461   3.050   6.354  0.0196  0.1489  0.7238
  169SOPE    HB19034   3.517   2.952   6.482  0.1423  0.3852 -1.2799
  169SOPE    C219035   3.391   3.114   6.550 -0.8037  0.0108 -0.1020
  169SOPE    HS19036   3.489   3.150   6.586 -0.8460 -1.5167  1.7537
  169SOPE   O2119037   3.306   3.077   6.661 -0.6062 -0.2060  0.6297
  169SOPE   C2119038   3.355   2.984   6.737  0.1602  0.4646 -0.1935
  169SOPE   O2219039   3.479   2.956   6.748  0.2199 -0.7312  0.1226
  169SOPE   C2219040   3.235   2.907   6.790  0.0686 -0.4503  0.7492
  169SOPE   H2R19041   3.167   2.894   6.704  1.0548  0.8512 -0.2756
  169SOPE   H2S19042   3.186   2.969   6.867 -0.8379  1.1824 -1.0705
  169SOPE    C319043   3.323   3.241   6.487 -0.3357  0.3410 -0.2409
  169SOPE    HX19044   3.215   3.215   6.481 -0.7712  1.7375  1.1098
  169SOPE    HY19045   3.341   3.267   6.380 -4.1492  0.3663 -1.0388
  169SOPE   O3119046   3.335   3.356   6.576 -0.0959  0.4688  0.4106
  169SOPE   C3119047   3.451   3.426   6.553  0.4985  0.4863 -0.7003
  169SOPE   O3219048   3.514   3.408   6.454 -0.2607 -0.6500 -0.5186
  169SOPE   C3219049   3.467   3.532   6.657  0.2606 -0.7169 -0.0949
  169SOPE   H2X19050   3.475   3.479   6.754 -2.1785  1.1161  1.2213
  169SOPE   H2Y19051   3.378   3.598   6.647  0.2947 -0.8599 -1.6939
  169SOPE   C2319052   3.282   2.779   6.853 -0.3369  0.2724 -0.3102
  169SOPE   H3R19053   3.378   2.779   6.909 -1.1452 -0.6050  1.1358
  169SOPE   H3S19054   3.304   2.717   6.763  1.4680  1.1953 -0.5564
  169SOPE   C2419055   3.165   2.732   6.944  0.2276 -0.0049  0.1461
  169SOPE   H4R19056   3.142   2.796   7.032  1.9903  0.7349  0.1005
  169SOPE   H4S19057   3.078   2.740   6.876  1.4533  0.7182 -1.3804
  169SOPE   C2519058   3.186   2.596   7.006  0.1634 -0.1647  0.6344
  169SOPE   H5R19059   3.112   2.526   6.961  0.2894  0.4109 -0.5016
  169SOPE   H5S19060   3.286   2.577   6.963  0.0522  0.8629 -0.1099
  169SOPE   C2619061   3.180   2.601   7.158  0.9681 -0.1017  0.3430
  169SOPE   H6R19062   3.272   2.654   7.191  1.5645 -1.8121  1.5957
  169SOPE   H6S19063   3.091   2.660   7.188  0.1877 -0.6095 -0.8707
  169SOPE   C2719064   3.174   2.465   7.226  0.2503 -0.1942 -0.3806
  169SOPE   H7R19065   3.080   2.415   7.193  0.1776 -1.8642  2.0126
  169SOPE   H7S19066   3.263   2.403   7.202  0.3772  0.2691 -1.1206
  169SOPE   C2819067   3.172   2.468   7.377  0.2440 -0.3794 -0.0969
  169SOPE   H8R19068   3.278   2.469   7.411  0.9661  0.7921 -2.2157
  169SOPE   H8S19069   3.123   2.559   7.417 -1.1677 -1.1963  0.1334
  169SOPE   C2919070   3.108   2.338   7.418 -0.1392 -0.1550 -0.0625
  169SOPE   H9119071   3.004   2.321   7.385 -0.4956  2.2100 -0.3607
  169SOPE  C21019072   3.163   2.254   7.509  0.3933  0.2130 -0.0155
  169SOPE  H10119073   3.112   2.158   7.519 -1.6836  1.1000 -1.3847
  169SOPE  C21119074   3.295   2.261   7.584 -0.0811  0.0027 -0.3753
  169SOPE  H11R19075   3.333   2.360   7.617  1.6061 -1.0608  1.0351
  169SOPE  H11S19076   3.376   2.213   7.527  0.5429  0.2738  0.2681
  169SOPE  C21219077   3.306   2.198   7.727  0.3005 -0.1512 -0.1723
  169SOPE  H12R19078   3.415   2.193   7.750  0.2717 -2.0820 -0.3068
  169SOPE  H12S19079   3.276   2.091   7.725  1.0087 -0.3786  0.6941
  169SOPE  C21319080   3.220   2.267   7.824  0.5733 -1.0779 -0.0846
  169SOPE  H13R19081   3.114   2.248   7.796  0.6798 -1.7105 -0.0723
  169SOPE  H13S19082   3.241   2.376   7.819  1.6351 -0.9977  3.4124
  169SOPE  C21419083   3.229   2.218   7.975  0.4828 -0.1919  0.1447
  169SOPE  H14R19084   3.328   2.248   8.016  1.7075 -1.4804 -1.7511
  169SOPE  H14S19085   3.232   2.110   7.953  2.4030 -0.3449  1.0150
  169SOPE  C21519086   3.108   2.272   8.055 -0.2897 -0.2167 -0.8010
  169SOPE  H15R19087   3.019   2.229   8.004 -0.7642 -1.3647  0.9231
  169SOPE  H15S19088   3.101   2.383   8.049  0.2093 -0.0491  1.1921
  169SOPE  C21619089   3.115   2.231   8.204  1.0943  0.7966  0.0427
  169SOPE  H16R19090   3.191   2.285   8.264  0.1657  0.1944  1.8349
  169SOPE  H16S19091   3.137   2.122   8.196 -0.0198  0.5597 -0.0427
  169SOPE  C21719092   2.972   2.250   8.263 -0.2431  0.1357  0.7756
  169SOPE  H17R19093   2.910   2.182   8.201 -0.1035 -0.0311  0.8204
  169SOPE  H17S19094   2.935   2.353   8.246 -0.1091  0.2663  1.2697
  169SOPE  C21819095   2.946   2.209   8.403  0.1404 -0.5731  0.3633
  169SOPE  H18R19096   2.994   2.112   8.427 -0.3438 -0.8477  0.2412
  169SOPE  H18S19097   2.838   2.195   8.427 -0.4178  3.6245  1.0381
  169SOPE  H18T19098   2.989   2.296   8.456 -0.3619  0.8860 -1.5457
  169SOPE   C3319099   3.598   3.616   6.643  0.1097 -0.8007 -0.2888
  169SOPE   H3X19100   3.603   3.649   6.537  1.7957 -0.8820 -0.2593
  169SOPE   H3Y19101   3.681   3.547   6.671  0.3685 -1.0846 -1.6819
  169SOPE   C3419102   3.597   3.754   6.720  0.3620  0.0287  0.1235
  169SOPE   H4X19103   3.591   3.736   6.830 -0.0314  0.4933  0.1779
  169SOPE   H4Y19104   3.512   3.812   6.679  0.4879 -0.2412 -0.5281
  169SOPE   C3519105   3.725   3.838   6.715  0.3461  0.9520  0.1564
  169SOPE   H5X19106   3.742   3.858   6.607  0.7110  1.8508  0.3701
  169SOPE   H5Y19107   3.801   3.770   6.757 -0.4219  0.0947  0.2033
  169SOPE   C3619108   3.714   3.958   6.808  0.4502 -0.4816  0.1678
  169SOPE   H6X19109   3.809   4.015   6.811 -0.0668  0.3387  1.9242
  169SOPE   H6Y19110   3.695   3.920   6.910 -0.8869  1.5144  0.7060
  169SOPE   C3719111   3.591   4.041   6.766 -0.0440 -0.2920 -0.1723
  169SOPE   H7X19112   3.502   3.999   6.819  1.9189 -2.8134  1.4063
  169SOPE   H7Y19113   3.576   4.032   6.656 -0.7868  2.7532 -0.4106
  169SOPE   C3819114   3.620   4.198   6.786 -0.0474 -0.5306 -0.2720
  169SOPE   H8X19115   3.715   4.227   6.737  0.2855 -0.0380  0.6373
  169SOPE   H8Y19116   3.536   4.255   6.739 -0.3814 -1.3282 -0.6567
  169SOPE   C3919117   3.639   4.245   6.932  0.8273  0.3529 -0.2451
  169SOPE   H9X19118   3.669   4.352   6.923  1.0933  0.3004  0.0258
  169SOPE   H9Y19119   3.721   4.196   6.987  0.1875  1.2269  1.5500
  169SOPE  C31019120   3.507   4.239   7.005  0.0165  0.1170 -0.1158
  169SOPE  H10X19121   3.484   4.137   7.043 -0.2516  1.2799  3.2109
  169SOPE  H10Y19122   3.417   4.274   6.950 -0.7811  0.1963  1.1964
  169SOPE  C31119123   3.526   4.320   7.137  0.0923  0.2347  0.1206
  169SOPE  H11X19124   3.498   4.424   7.112 -0.9649  0.5393  2.2961
  169SOPE  H11Y19125   3.633   4.307   7.163  0.4601 -0.8783 -1.7601
  169SOPE  C31219126   3.434   4.270   7.249 -0.2720 -0.1270 -0.2164
  169SOPE  H12X19127   3.450   4.161   7.264  3.9053  0.3424 -0.2612
  169SOPE  H12Y19128   3.326   4.289   7.228 -0.0470 -0.3085 -1.6112
  169SOPE  C31319129   3.473   4.348   7.378  0.1907 -0.8790 -0.0638
  169SOPE  H13X19130   3.445   4.455   7.367 -0.9664 -0.8312  2.4420
  169SOPE  H13Y19131   3.582   4.334   7.396  0.3906 -0.1082 -0.6558
  169SOPE  C31419132   3.401   4.307   7.504 -0.0471  0.1191 -0.0788
  169SOPE  H14X19133   3.425   4.202   7.532 -1.6376  0.0613  1.2783
  169SOPE  H14Y19134   3.290   4.312   7.491  0.2305 -0.5419 -3.5871
  169SOPE  C31519135   3.433   4.397   7.626 -0.2365  0.0839 -0.4690
  169SOPE  H15X19136   3.408   4.498   7.589  0.2582  0.6818  0.7769
  169SOPE  H15Y19137   3.540   4.388   7.653 -0.3923 -0.5630 -0.0322
  169SOPE  C31619138   3.352   4.375   7.758 -0.1968 -0.3068  0.3335
  169SOPE  H16X19139   3.320   4.269   7.752  2.0700 -0.9776 -1.4361
  169SOPE  H16Y19140   3.267   4.446   7.754 -0.1029 -0.1309  1.2706
  169SOPE  C31719141   3.435   4.402   7.884  0.1361  0.4263  0.4164
  169SOPE  H17X19142   3.463   4.509   7.874  1.5432  0.0700  0.3268
  169SOPE  H17Y19143   3.526   4.338   7.874  1.3878  2.4040 -2.1830
  169SOPE  C31819144   3.371   4.368   8.015 -0.2447 -0.4062  0.4655
  169SOPE  H18X19145   3.425   4.400   8.107  0.2116 -1.7646  0.6895
  169SOPE  H18Y19146   3.360   4.258   8.026 -0.9426 -0.2203  1.9461
  169SOPE  H18Z19147   3.271   4.415   8.007 -0.4324 -1.0234 -1.2570
  170SOPE     N19148   4.376   0.280   6.094 -0.0070  0.0190 -0.2423
  170SOPE   HN119149   4.287   0.329   6.115  0.5064  1.3413 -1.0091
  170SOPE   HN219150   4.459   0.334   6.125 -0.3813 -0.6746  2.1968
  170SOPE   HN319151   4.388   0.271   5.991  0.5650  2.1043 -0.3980
  170SOPE   C1219152   4.381   0.151   6.168 -0.2452 -0.2078  0.3710
  170SOPE  H12A19153   4.429   0.162   6.267 -0.3530 -1.4991  0.5776
  170SOPE  H12B19154   4.447   0.087   6.106  3.4750  2.6491  1.0175
  170SOPE   C1119155   4.241   0.080   6.170  0.4134 -0.9745  0.1436
  170SOPE  H11A19156   4.261  -0.025   6.198 -3.0218 -1.7051  0.3864
  170SOPE  H11B19157   4.197   0.080   6.068  2.3803 -2.5986 -0.7578
  170SOPE     P19158   3.992   0.093   6.259  0.1818  0.1904 -0.3965
  170SOPE   O1319159   3.950   0.061   6.119 -0.1249 -0.2060 -0.7753
  170SOPE   O1419160   3.927   0.202   6.334  0.8857  0.1935 -0.4849
  170SOPE   O1219161   4.147   0.141   6.259 -0.1157  0.2956  0.9959
  170SOPE   O1119162   3.997  -0.039   6.347  0.1273  0.4320 -0.4385
  170SOPE    C119163   4.009  -0.038   6.488  0.3156  0.2198 -0.0754
  170SOPE    HA19164   4.034   0.061   6.531 -1.6486  0.7826 -0.1712
  170SOPE    HB19165   4.090  -0.109   6.516 -1.8104 -1.9824  0.8410
  170SOPE    C219166   3.887  -0.102   6.545  0.7219  0.3103  0.1897
  170SOPE    HS19167   3.797  -0.043   6.517 -0.7993  0.2562  4.3325
  170SOPE   O2119168   3.914  -0.116   6.685 -0.2440  0.4471 -0.7702
  170SOPE   C2119169   3.820  -0.067   6.763  0.5785  0.5361 -0.2093
  170SOPE   O2219170   3.717  -0.015   6.724 -0.1408  0.0447 -0.4943
  170SOPE   C2219171   3.850  -0.085   6.908 -0.0986 -0.7708  0.8111
  170SOPE   H2R19172   3.946  -0.031   6.923 -0.4242  0.3096 -0.7339
  170SOPE   H2S19173   3.859  -0.194   6.927  0.3687 -1.1342 -1.2263
  170SOPE    C319174   3.873  -0.247   6.489  0.0959  0.3242 -0.4942
  170SOPE    HX19175   3.973  -0.289   6.514 -0.6209 -0.7107  0.7879
  170SOPE    HY19176   3.860  -0.239   6.379 -2.7696  0.7870 -0.2175
  170SOPE   O3119177   3.759  -0.315   6.560 -0.0874 -1.2279 -0.9198
  170SOPE   C3119178   3.638  -0.294   6.508  0.2886  1.0227  0.7195
  170SOPE   O3219179   3.607  -0.224   6.412  0.0949 -0.2541 -0.4562
  170SOPE   C3219180   3.530  -0.378   6.584 -0.7102 -0.0535 -0.3905
  170SOPE   H2X19181   3.503  -0.453   6.507 -2.6316  1.0030 -0.8130
  170SOPE   H2Y19182   3.439  -0.316   6.598 -1.1718 -0.2899 -2.1915
  170SOPE   C2319183   3.753  -0.023   7.002  0.3211  0.5279 -0.0603
  170SOPE   H3R19184   3.664  -0.089   7.002  0.5685  0.1638  1.5590
  170SOPE   H3S19185   3.735   0.081   6.967  0.9427  1.2374  1.6524
  170SOPE   C2419186   3.810  -0.024   7.139 -0.2850 -0.0438 -0.6646
  170SOPE   H4R19187   3.871  -0.115   7.154  1.1111  1.0342  0.5542
  170SOPE   H4S19188   3.880   0.060   7.159 -0.4972  0.0613 -0.3462
  170SOPE   C2519189   3.723  -0.030   7.259 -0.0313 -0.1728 -0.0688
  170SOPE   H5R19190   3.660  -0.122   7.261  0.7281 -0.6981  0.1271
  170SOPE   H5S19191   3.787  -0.040   7.349  0.9095  1.4316 -0.5265
  170SOPE   C2619192   3.648   0.098   7.276  0.0507 -0.5024 -0.2174
  170SOPE   H6R19193   3.715   0.187   7.284  0.1020 -0.4256 -1.4201
  170SOPE   H6S19194   3.572   0.105   7.196 -1.8995  3.1678  1.6905
  170SOPE   C2719195   3.579   0.100   7.413  0.0388  0.1245  1.1050
  170SOPE   H7R19196   3.507   0.185   7.411  1.2322  1.1885  1.6297
  170SOPE   H7S19197   3.515   0.009   7.413 -0.9759  0.6650 -2.5900
  170SOPE   C2819198   3.665   0.112   7.535 -0.5895 -0.1741 -0.4325
  170SOPE   H8R19199   3.733   0.030   7.565 -1.0059 -0.7781 -1.1344
  170SOPE   H8S19200   3.744   0.188   7.515 -4.1547  3.6985 -1.3635
  170SOPE   C2919201   3.592   0.147   7.659 -0.1020  0.1015 -0.5330
  170SOPE   H9119202   3.563   0.251   7.676  1.4741  0.4579  0.1615
  170SOPE  C21019203   3.557   0.060   7.756  0.1362 -0.0717  1.1324
  170SOPE  H10119204   3.491   0.097   7.836 -0.0222  1.0725  0.4989
  170SOPE  C21119205   3.580  -0.088   7.761  0.1011  0.6831 -0.1757
  170SOPE  H11R19206   3.584  -0.126   7.657 -2.1471 -1.3431  0.3660
  170SOPE  H11S19207   3.496  -0.144   7.808  0.1797  0.3531 -0.4306
  170SOPE  C21219208   3.709  -0.132   7.837 -0.1022 -0.8708 -0.4875
  170SOPE  H12R19209   3.781  -0.058   7.797 -0.3118 -0.3745  0.0501
  170SOPE  H12S19210   3.747  -0.234   7.813 -0.3894 -1.0328 -0.2562
  170SOPE  C21319211   3.696  -0.108   7.991  0.6472  0.4639  0.2163
  170SOPE  H13R19212   3.611  -0.173   8.022 -1.0365  1.6803 -1.5712
  170SOPE  H13S19213   3.660  -0.003   7.999 -1.9196 -0.2202 -0.9577
  170SOPE  C21419214   3.823  -0.131   8.083  0.2627  0.1822  0.5146
  170SOPE  H14R19215   3.898  -0.061   8.040 -1.9458  0.6203 -3.0410
  170SOPE  H14S19216   3.858  -0.236   8.073 -0.5402 -0.0091 -0.5219
  170SOPE  C21519217   3.785  -0.094   8.223 -0.0088  0.8754  0.3643
  170SOPE  H15R19218   3.705  -0.163   8.255  0.1948  0.1994 -0.5273
  170SOPE  H15S19219   3.751   0.011   8.213 -1.5177  0.3096 -0.6830
  170SOPE  C21619220   3.905  -0.103   8.309  0.6126  0.4086 -0.7216
  170SOPE  H16R19221   3.984  -0.041   8.262  1.3945 -1.9234 -2.7358
  170SOPE  H16S19222   3.940  -0.209   8.307 -1.4311 -0.3128 -1.2452
  170SOPE  C21719223   3.883  -0.087   8.462 -0.4312 -0.2265  0.0980
  170SOPE  H17R19224   3.826   0.008   8.470 -0.0407  0.3502 -2.9339
  170SOPE  H17S19225   3.982  -0.067   8.509  0.7951  1.2218 -2.8498
  170SOPE  C21819226   3.819  -0.208   8.535  0.8874  0.2034  0.1500
  170SOPE  H18R19227   3.866  -0.301   8.497  0.1000 -0.0834 -0.1422
  170SOPE  H18S19228   3.710  -0.214   8.518  0.5612  1.9798  1.3140
  170SOPE  H18T19229   3.826  -0.195   8.645 -1.4842  0.7477  0.2781
  170SOPE   C3319230   3.576  -0.453   6.712 -0.3040  0.0027  0.0906
  170SOPE   H3X19231   3.664  -0.519   6.693  0.0634  0.6491 -0.4852
  170SOPE   H3Y19232   3.491  -0.522   6.732  1.5306 -2.9444 -1.5264
  170SOPE   C3419233   3.602  -0.375   6.844  0.7492  0.3308 -0.1911
  170SOPE   H4X19234   3.513  -0.311   6.859  0.2155 -0.7379  1.4442
  170SOPE   H4Y19235   3.695  -0.316   6.841  1.5801 -0.7068  2.4746
  170SOPE   C3519236   3.611  -0.468   6.968  0.2465  0.7982 -0.6937
  170SOPE   H5X19237   3.717  -0.502   6.973 -0.1813 -0.3993  0.6864
  170SOPE   H5Y19238   3.539  -0.549   6.946 -0.4471  1.7352 -2.0707
  170SOPE   C3619239   3.590  -0.398   7.109  0.1442  0.3014  0.9602
  170SOPE   H6X19240   3.501  -0.333   7.104  0.2892  0.8262  3.6001
  170SOPE   H6Y19241   3.682  -0.340   7.128  0.2815  0.4229 -0.0284
  170SOPE   C3719242   3.576  -0.495   7.225  0.2722  0.3678  0.7397
  170SOPE   H7X19243   3.675  -0.544   7.237  0.0087 -0.5430 -0.5836
  170SOPE   H7Y19244   3.497  -0.569   7.197 -0.4785  0.8393  1.5543
  170SOPE   C3819245   3.545  -0.416   7.352  0.5905 -0.0141 -0.0078
  170SOPE   H8X19246   3.438  -0.386   7.349  0.4726 -0.5246 -1.9022
  170SOPE   H8Y19247   3.622  -0.336   7.348  0.2548  0.2807 -0.7492
  170SOPE   C3919248   3.556  -0.508   7.471 -0.3060  0.1708  0.4905
  170SOPE   H9X19249   3.658  -0.552   7.469  0.1079  1.1172  0.0305
  170SOPE   H9Y19250   3.473  -0.581   7.468 -2.0081  2.0234 -1.4504
  170SOPE  C31019251   3.529  -0.442   7.604  0.8539  0.3112 -0.3863
  170SOPE  H10X19252   3.585  -0.351   7.632  0.3411 -0.1886  2.6519
  170SOPE  H10Y19253   3.543  -0.525   7.676  0.3335 -0.6086 -1.3191
  170SOPE  C31119254   3.385  -0.397   7.617  0.4439 -0.2628  0.2244
  170SOPE  H11X19255   3.336  -0.407   7.518 -2.4810 -1.3886  1.6699
  170SOPE  H11Y19256   3.366  -0.303   7.673  1.4910 -0.2044  0.5044
  170SOPE  C31219257   3.294  -0.499   7.699  0.0121  0.2065 -0.8522
  170SOPE  H12X19258   3.297  -0.602   7.658  3.0753  0.2266 -0.9541
  170SOPE  H12Y19259   3.194  -0.451   7.691  0.0404  0.6807  1.1782
  170SOPE  C31319260   3.334  -0.487   7.849  0.0168  0.0659  0.8382
  170SOPE  H13X19261   3.349  -0.378   7.863 -1.0074  0.3280  0.0462
  170SOPE  H13Y19262   3.427  -0.546   7.860 -1.5579 -2.6145  0.7337
  170SOPE  C31419263   3.226  -0.522   7.950 -0.4365 -0.2456 -0.3242
  170SOPE  H14X19264   3.178  -0.621   7.934 -1.6577 -0.2171  2.5319
  170SOPE  H14Y19265   3.150  -0.442   7.943  1.2698  1.3692 -1.5151
  170SOPE  C31519266   3.293  -0.533   8.093  0.5865  0.3597  0.0825
  170SOPE  H15X19267   3.326  -0.431   8.122  0.2893  0.1369  1.2540
  170SOPE  H15Y19268   3.378  -0.604   8.081 -0.1073 -0.3633 -0.7535
  170SOPE  C31619269   3.198  -0.588   8.191 -0.0884  0.2534  0.1265
  170SOPE  H16X19270   3.183  -0.698   8.181 -1.8541  0.4399  0.5214
  170SOPE  H16Y19271   3.094  -0.551   8.178  0.4811  2.6270  1.6829
  170SOPE  C31719272   3.245  -0.551   8.332  0.2535  0.0103  0.3528
  170SOPE  H17X19273   3.228  -0.442   8.345 -0.6818 -0.1995  0.9440
  170SOPE  H17Y19274   3.355  -0.564   8.343  0.1113 -0.5311  1.1848
  170SOPE  C31819275   3.184  -0.635   8.441  0.2676  0.3226  0.1332
  170SOPE  H18X19276   3.074  -0.618   8.444  0.0380 -0.9346 -0.3945
  170SOPE  H18Y19277   3.227  -0.624   8.543  1.9846  1.8623 -0.6982
  170SOPE  H18Z19278   3.195  -0.741   8.408 -0.3130  0.2097  0.2825
  171SOPE     N19279   5.394   4.146   6.345 -0.4066  0.1141  0.0395
  171SOPE   HN119280   5.426   4.073   6.412 -0.5225 -0.2396 -0.2890
  171SOPE   HN219281   5.349   4.105   6.261 -0.2683  0.8594 -0.4141
  171SOPE   HN319282   5.478   4.199   6.313  0.7373 -0.5285  1.8161
  171SOPE   C1219283   5.286   4.232   6.398  0.2966  0.1363  0.2583
  171SOPE  H12A19284   5.242   4.284   6.311 -1.0964  0.9187  1.3812
  171SOPE  H12B19285   5.328   4.309   6.466  0.5430 -0.9361  1.3757
  171SOPE   C1119286   5.175   4.154   6.460 -0.2724 -0.5620  0.4231
  171SOPE  H11A19287   5.110   4.236   6.495  1.3811  1.4301 -0.9395
  171SOPE  H11B19288   5.207   4.095   6.550  2.2790  1.8528  1.2285
  171SOPE     P19289   4.979   4.080   6.296 -0.0854  0.4264  0.1706
  171SOPE   O1319290   4.973   3.969   6.194  0.1640  0.2352 -0.7919
  171SOPE   O1419291   4.956   4.216   6.242  0.2981  0.4101 -0.3379
  171SOPE   O1219292   5.125   4.073   6.362  0.3081 -0.4765  0.3575
  171SOPE   O1119293   4.882   4.049   6.419  0.3405  0.1590 -0.1623
  171SOPE    C119294   4.740   4.030   6.390  0.9629  0.0632 -0.6711
  171SOPE    HA19295   4.691   3.973   6.472  1.3846 -0.1713 -0.5834
  171SOPE    HB19296   4.714   3.975   6.297  0.2682  1.8932 -1.6126
  171SOPE    C219297   4.653   4.167   6.370 -0.6303  0.0986 -0.2580
  171SOPE    HS19298   4.702   4.218   6.285  2.1916 -3.4035 -0.9699
  171SOPE   O2119299   4.644   4.235   6.497 -0.3299  0.3101  0.4267
  171SOPE   C2119300   4.611   4.367   6.487 -0.8641 -0.3312 -0.2824
  171SOPE   O2219301   4.576   4.426   6.386  0.6836  0.1832 -0.2778
  171SOPE   C2219302   4.614   4.429   6.629  0.9010 -0.5413  0.2534
  171SOPE   H2R19303   4.706   4.382   6.667  0.5712 -2.5891 -1.3043
  171SOPE   H2S19304   4.532   4.392   6.695 -0.5740  0.6751 -0.8051
  171SOPE    C319305   4.506   4.134   6.318  0.3768 -0.2507 -0.1411
  171SOPE    HX19306   4.515   4.085   6.219 -0.1340  1.0975 -0.8822
  171SOPE    HY19307   4.458   4.232   6.297 -1.1939 -1.6594 -3.9907
  171SOPE   O3119308   4.448   4.055   6.422 -0.2841 -0.0969  0.2965
  171SOPE   C3119309   4.333   4.101   6.472  0.1115  0.5918  0.4367
  171SOPE   O3219310   4.263   4.179   6.415  0.1700  0.3330  0.4059
  171SOPE   C3219311   4.310   4.033   6.599  0.3411  0.5472  0.1639
  171SOPE   H2X19312   4.305   4.107   6.681  1.6324  0.8966 -0.0580
  171SOPE   H2Y19313   4.398   3.973   6.631  0.5142 -0.0934 -1.4240
  171SOPE   C2319314   4.633   4.579   6.628  0.3222  0.4749 -0.2720
  171SOPE   H3R19315   4.538   4.619   6.586 -0.2940 -1.0397 -0.3965
  171SOPE   H3S19316   4.720   4.605   6.563  1.5042  0.4534  1.2347
  171SOPE   C2419317   4.655   4.633   6.766 -0.2166 -0.0868  0.6412
  171SOPE   H4R19318   4.760   4.621   6.801  0.3051  0.1269 -0.7910
  171SOPE   H4S19319   4.641   4.742   6.751 -1.6644 -0.2475  0.6858
  171SOPE   C2519320   4.552   4.580   6.874 -0.7646 -0.5403  0.3921
  171SOPE   H5R19321   4.452   4.622   6.849 -1.0312 -0.5210  1.4463
  171SOPE   H5S19322   4.553   4.470   6.895 -2.6127 -0.5945  0.4367
  171SOPE   C2619323   4.579   4.651   7.005  0.3757  0.5394  0.1345
  171SOPE   H6R19324   4.674   4.621   7.054  1.9886  2.9363 -1.3452
  171SOPE   H6S19325   4.574   4.761   6.991 -1.0687  0.4377 -0.3205
  171SOPE   C2719326   4.462   4.630   7.106  0.3376 -0.2563 -0.2421
  171SOPE   H7R19327   4.372   4.672   7.056  2.6901 -1.3175 -6.2087
  171SOPE   H7S19328   4.437   4.528   7.143 -0.7258  0.1155  0.1119
  171SOPE   C2819329   4.481   4.707   7.242  0.0520  0.7397  0.0223
  171SOPE   H8R19330   4.497   4.813   7.211  0.9599  0.6618  0.1950
  171SOPE   H8S19331   4.383   4.703   7.293  0.0665 -2.8609  0.0257
  171SOPE   C2919332   4.595   4.667   7.326 -0.1532 -0.5294  0.6512
  171SOPE   H9119333   4.608   4.558   7.317  0.1004 -0.3803 -1.0683
  171SOPE  C21019334   4.666   4.733   7.417  0.0346  0.2204 -0.5202
  171SOPE  H10119335   4.763   4.693   7.449  0.3144  2.4224  1.7375
  171SOPE  C21119336   4.645   4.879   7.456 -0.6489 -0.5928  0.5754
  171SOPE  H11R19337   4.572   4.917   7.382  0.3301  0.9815  0.3725
  171SOPE  H11S19338   4.737   4.940   7.441 -0.2461 -1.7189 -2.3505
  171SOPE  C21219339   4.604   4.918   7.588  0.6495 -0.2215 -0.1931
  171SOPE  H12R19340   4.503   4.882   7.616  0.8194 -0.4907  0.0763
  171SOPE  H12S19341   4.588   5.028   7.592 -0.7761 -0.3378 -1.8120
  171SOPE  C21319342   4.701   4.882   7.700 -0.1932  0.5406 -0.3543
  171SOPE  H13R19343   4.810   4.896   7.681 -0.0173  0.1510  0.3401
  171SOPE  H13S19344   4.685   4.777   7.732  3.2739  0.7474  2.8568
  171SOPE  C21419345   4.673   4.967   7.835  0.2648  0.6928  0.6277
  171SOPE  H14R19346   4.565   4.973   7.858  0.6949 -1.7589  3.9985
  171SOPE  H14S19347   4.716   5.068   7.815 -1.8371  1.3755 -0.7621
  171SOPE  C21519348   4.743   4.918   7.959 -0.4648 -0.1645  0.1038
  171SOPE  H15R19349   4.848   4.924   7.923  1.0508 -1.3722  3.8056
  171SOPE  H15S19350   4.719   4.812   7.979 -1.0755 -0.2156 -0.8647
  171SOPE  C21619351   4.721   5.005   8.085  0.6982  0.1448  0.1213
  171SOPE  H16R19352   4.734   5.112   8.057 -0.0299 -0.5892 -3.5983
  171SOPE  H16S19353   4.800   4.977   8.158  0.2405  0.5152  0.7557
  171SOPE  C21719354   4.572   4.982   8.138 -0.4892 -0.0161  0.4079
  171SOPE  H17R19355   4.570   4.872   8.152 -1.1730 -0.0535  0.0656
  171SOPE  H17S19356   4.504   5.011   8.055  1.8251  0.6292 -1.3740
  171SOPE  C21819357   4.544   5.049   8.268  0.2024  0.3715  0.3050
  171SOPE  H18R19358   4.602   4.995   8.346  0.5357 -0.7534 -0.6806
  171SOPE  H18S19359   4.434   5.048   8.288  0.5352  1.3023  2.3783
  171SOPE  H18T19360   4.576   5.154   8.254  0.2142  0.3529  0.1858
  171SOPE   C3319361   4.184   3.948   6.596  0.5908  0.0308 -0.2834
  171SOPE   H3X19362   4.180   3.867   6.520 -3.0243 -0.2055 -0.0312
  171SOPE   H3Y19363   4.090   4.002   6.573 -0.0026 -0.9961 -0.3179
  171SOPE   C3419364   4.145   3.893   6.735  0.2048  0.3150  0.2435
  171SOPE   H4X19365   4.210   3.809   6.766 -0.5793 -1.0982 -1.7735
  171SOPE   H4Y19366   4.047   3.845   6.716  0.5904 -0.3489 -0.0866
  171SOPE   C3519367   4.143   3.999   6.842  0.1450  0.0146  0.1454
  171SOPE   H5X19368   4.096   4.087   6.791 -0.2937  1.1607  2.4101
  171SOPE   H5Y19369   4.252   4.017   6.857  0.1212  0.8446 -0.5583
  171SOPE   C3619370   4.073   3.948   6.964  0.9755 -0.1426  0.2587
  171SOPE   H6X19371   4.136   3.863   7.000 -1.2278 -3.9737 -3.8552
  171SOPE   H6Y19372   3.977   3.906   6.925  1.9534  0.2309 -2.7753
  171SOPE   C3719373   4.040   4.058   7.072  0.3138  0.0907  0.2706
  171SOPE   H7X19374   3.996   4.147   7.023 -0.4743 -1.2378 -1.5657
  171SOPE   H7Y19375   4.143   4.085   7.101  0.6879 -1.7491  0.8399
  171SOPE   C3819376   3.961   3.998   7.193  0.6244 -0.3000 -0.1249
  171SOPE   H8X19377   4.034   3.923   7.231  0.6298 -0.4176 -0.3611
  171SOPE   H8Y19378   3.870   3.943   7.160  0.4010 -0.3584  0.5787
  171SOPE   C3919379   3.923   4.094   7.303 -0.2657 -0.9265 -0.7487
  171SOPE   H9X19380   3.840   4.159   7.268  0.0742 -1.0901 -1.8838
  171SOPE   H9Y19381   4.016   4.152   7.320  0.9739 -3.1450  0.4074
  171SOPE  C31019382   3.865   4.028   7.433 -0.1440  0.2950  0.6309
  171SOPE  H10X19383   3.947   3.965   7.476 -0.6965 -1.3273 -0.5755
  171SOPE  H10Y19384   3.787   3.957   7.399 -0.3612  0.6093  0.4823
  171SOPE  C31119385   3.798   4.104   7.543 -0.2472 -0.1825 -0.8246
  171SOPE  H11X19386   3.740   4.025   7.595  1.0069 -0.0827  0.7899
  171SOPE  H11Y19387   3.735   4.185   7.501  1.7629  0.8446 -2.0432
  171SOPE  C31219388   3.900   4.176   7.641  0.1430  0.1907  0.8690
  171SOPE  H12X19389   3.956   4.264   7.602 -1.9595  1.1379 -0.2240
  171SOPE  H12Y19390   3.972   4.096   7.670  2.6469  2.1724  0.4990
  171SOPE  C31319391   3.854   4.198   7.788 -0.2811 -1.1208  0.4943
  171SOPE  H13X19392   3.789   4.113   7.817 -1.4479 -0.0315  1.1939
  171SOPE  H13Y19393   3.794   4.291   7.789 -0.5248 -1.2278 -1.3994
  171SOPE  C31419394   3.968   4.228   7.894 -0.0489 -0.2554  1.3914
  171SOPE  H14X19395   4.020   4.321   7.862  1.0529 -0.7815  1.6040
  171SOPE  H14Y19396   4.041   4.145   7.898  2.0360  1.4890  1.5163
  171SOPE  C31519397   3.904   4.242   8.038 -0.1403 -0.0178  0.0265
  171SOPE  H15X19398   3.866   4.146   8.079 -1.7291  0.8436  0.6614
  171SOPE  H15Y19399   3.825   4.319   8.049  0.7556  0.6827  2.3149
  171SOPE  C31619400   3.996   4.281   8.153 -0.4551 -0.4164 -0.3491
  171SOPE  H16X19401   4.043   4.381   8.141 -0.9607 -0.1572 -0.1546
  171SOPE  H16Y19402   4.072   4.200   8.159  0.8912  0.7792 -0.5666
  171SOPE  C31719403   3.917   4.288   8.284 -0.2366 -0.4427  0.4243
  171SOPE  H17X19404   3.878   4.188   8.313  0.9326 -0.8328  0.7292
  171SOPE  H17Y19405   3.822   4.338   8.257 -0.1268 -0.4550  0.0059
  171SOPE  C31819406   3.985   4.360   8.404 -0.2795 -0.7545  0.1185
  171SOPE  H18X19407   4.023   4.464   8.390  1.0337 -1.1277  0.7583
  171SOPE  H18Y19408   4.080   4.309   8.433 -0.3211 -0.6432  0.4598
  171SOPE  H18Z19409   3.916   4.370   8.491 -1.7374 -2.8553 -0.7177
  172SOPE     N19410   5.002   6.020   6.247  0.1262 -0.0762 -0.7979
  172SOPE   HN119411   5.088   6.078   6.242 -1.0909  1.8976  0.0244
  172SOPE   HN219412   5.014   5.940   6.181  2.0673 -0.3328 -0.2008
  172SOPE   HN319413   4.929   6.090   6.223 -0.7972  0.1687  2.2440
  172SOPE   C1219414   4.996   5.965   6.388  0.2722 -0.1813 -0.3544
  172SOPE  H12A19415   5.095   5.918   6.410 -0.2335  0.1100  3.0325
  172SOPE  H12B19416   4.914   5.890   6.395 -0.4183  0.6334  0.5823
  172SOPE   C1119417   4.963   6.082   6.486  0.1790  0.5891 -0.0270
  172SOPE  H11A19418   4.971   6.042   6.590  1.2292  0.9718  0.0486
  172SOPE  H11B19419   4.856   6.107   6.469 -0.2092 -0.7994  0.2663
  172SOPE     P19420   5.203   6.200   6.498 -0.4614 -0.0615  0.3358
  172SOPE   O1319421   5.249   6.342   6.495 -0.5170  0.0938  0.1453
  172SOPE   O1419422   5.278   6.108   6.407 -0.5237 -0.3865  0.0106
  172SOPE   O1219423   5.057   6.187   6.463  0.4522  0.0787  1.3955
  172SOPE   O1119424   5.222   6.145   6.648  0.6866  0.6280 -0.1034
  172SOPE    C119425   5.182   6.207   6.765 -0.0256  0.1104  0.1278
  172SOPE    HA19426   5.079   6.174   6.789  0.0827  0.5834  1.2891
  172SOPE    HB19427   5.180   6.318   6.765  0.2140  0.1203 -0.6506
  172SOPE    C219428   5.285   6.170   6.873 -0.2716 -0.4969  0.4354
  172SOPE    HS19429   5.287   6.061   6.894 -0.0169 -1.2936 -3.1656
  172SOPE   O2119430   5.255   6.241   6.998  1.1348  0.1253  0.4345
  172SOPE   C2119431   5.142   6.212   7.054  0.0192  0.0911  0.0331
  172SOPE   O2219432   5.067   6.122   7.026  0.3489  0.1296  0.1972
  172SOPE   C2219433   5.105   6.321   7.155 -0.2462  0.0096  0.4286
  172SOPE   H2R19434   5.000   6.302   7.184 -0.2282  0.3128  0.7029
  172SOPE   H2S19435   5.104   6.418   7.100  0.2317 -1.0157 -1.4505
  172SOPE    C319436   5.428   6.206   6.833 -0.1941 -0.0212  0.6017
  172SOPE    HX19437   5.424   6.313   6.804  1.1581  0.2017  1.1689
  172SOPE    HY19438   5.467   6.134   6.757 -2.5842  0.9860 -1.7471
  172SOPE   O3119439   5.533   6.212   6.933  0.4896 -0.1546  0.1428
  172SOPE   C3119440   5.548   6.110   7.024 -0.1002 -0.6489 -0.4667
  172SOPE   O3219441   5.501   5.996   7.019  0.4371 -0.3086 -0.4033
  172SOPE   C3219442   5.652   6.145   7.126 -0.2877 -0.4165 -0.2544
  172SOPE   H2X19443   5.639   6.252   7.156 -1.8705 -0.5445 -0.3960
  172SOPE   H2Y19444   5.751   6.129   7.079  0.7996 -0.4583  1.9211
  172SOPE   C2319445   5.207   6.329   7.270 -0.2386 -0.4476 -0.3773
  172SOPE   H3R19446   5.314   6.337   7.239 -0.0760  0.4009  0.3559
  172SOPE   H3S19447   5.196   6.237   7.331 -3.4944 -0.7967 -1.3066
  172SOPE   C2419448   5.181   6.460   7.353  0.5359  0.1836  0.4860
  172SOPE   H4R19449   5.199   6.551   7.291 -0.6253 -0.4016 -0.7696
  172SOPE   H4S19450   5.072   6.457   7.374 -0.4801  0.2941 -3.7211
  172SOPE   C2519451   5.255   6.472   7.480  0.6600  0.0158 -0.4959
  172SOPE   H5R19452   5.196   6.539   7.546  0.4880  0.0110 -0.6403
  172SOPE   H5S19453   5.253   6.365   7.509  2.6581 -0.3495 -1.4991
  172SOPE   C2619454   5.393   6.526   7.461 -0.1783 -0.1627 -0.3601
  172SOPE   H6R19455   5.435   6.457   7.384  0.3769 -1.6707  1.2278
  172SOPE   H6S19456   5.396   6.631   7.424  0.8370 -0.4473 -1.1353
  172SOPE   C2719457   5.475   6.530   7.587 -0.2379 -0.0913  0.2666
  172SOPE   H7R19458   5.494   6.422   7.609 -2.3253 -0.2794  1.3407
  172SOPE   H7S19459   5.571   6.576   7.556 -0.7283  0.6882 -0.0974
  172SOPE   C2819460   5.400   6.596   7.702 -0.2015 -0.4955 -0.3153
  172SOPE   H8R19461   5.321   6.667   7.671 -0.5448 -0.8651 -0.2884
  172SOPE   H8S19462   5.331   6.523   7.749  3.1298 -2.3196  2.1532
  172SOPE   C2919463   5.491   6.661   7.803  0.6452 -0.1045 -0.1166
  172SOPE   H9119464   5.571   6.591   7.830  0.4304 -0.4656 -0.3990
  172SOPE  C21019465   5.475   6.785   7.853  0.1522  0.4379  0.0018
  172SOPE  H10119466   5.557   6.818   7.918  1.7541 -1.3828 -0.9994
  172SOPE  C21119467   5.358   6.877   7.833  0.3371  0.5278 -0.0209
  172SOPE  H11R19468   5.281   6.831   7.768  0.5839 -2.7285  1.7808
  172SOPE  H11S19469   5.380   6.972   7.778  0.0349  1.2999  1.1506
  172SOPE  C21219470   5.296   6.901   7.969 -0.1256 -0.1132  0.0765
  172SOPE  H12R19471   5.380   6.912   8.041  1.3630 -3.3121 -0.9830
  172SOPE  H12S19472   5.241   6.810   8.000 -0.0733 -0.0725  0.2944
  172SOPE  C21319473   5.184   7.002   7.971  0.3742 -0.7581 -0.5706
  172SOPE  H13R19474   5.111   6.978   7.890 -0.1364  0.5467 -0.5283
  172SOPE  H13S19475   5.223   7.105   7.957 -0.9797  0.0105  0.8777
  172SOPE  C21419476   5.115   6.995   8.110 -0.1565 -0.1419 -0.2057
  172SOPE  H14R19477   5.197   7.010   8.183 -0.8738  0.1560  0.5533
  172SOPE  H14S19478   5.074   6.893   8.128  1.1369 -0.5718  0.3772
  172SOPE  C21519479   5.007   7.107   8.127  0.3103  0.0205 -0.1021
  172SOPE  H15R19480   4.920   7.100   8.058  0.7880  0.3007 -0.7362
  172SOPE  H15S19481   5.047   7.210   8.115 -0.4782  0.4870  1.0433
  172SOPE  C21619482   4.932   7.103   8.268  0.2332 -0.0239  0.2357
  172SOPE  H16R19483   4.990   7.156   8.346 -1.2037 -0.1378  1.4224
  172SOPE  H16S19484   4.907   6.998   8.293 -0.8025 -0.5441 -2.6075
  172SOPE  C21719485   4.788   7.166   8.261 -0.5444  0.8793 -0.0337
  172SOPE  H17R19486   4.728   7.113   8.184  0.5775  0.0589 -0.3727
  172SOPE  H17S19487   4.791   7.273   8.233  0.2478  1.9011  3.4053
  172SOPE  C21819488   4.719   7.148   8.402  0.0524  0.1364  0.6586
  172SOPE  H18R19489   4.793   7.167   8.483 -0.2832 -0.0499  1.0095
  172SOPE  H18S19490   4.685   7.042   8.404  2.0644 -0.5439  1.6670
  172SOPE  H18T19491   4.630   7.214   8.400 -0.2133 -0.2363 -0.5620
  172SOPE   C3319492   5.643   6.063   7.248  0.9165  0.4867 -0.1065
  172SOPE   H3X19493   5.737   6.060   7.308  1.0517  1.4553 -0.2493
  172SOPE   H3Y19494   5.617   5.957   7.224 -3.3958  1.1969  0.7459
  172SOPE   C3419495   5.522   6.095   7.342 -0.0737 -0.5354 -0.3076
  172SOPE   H4X19496   5.428   6.106   7.285  0.7848  0.6058 -1.5891
  172SOPE   H4Y19497   5.557   6.188   7.391  0.7823 -1.0517  0.0839
  172SOPE   C3519498   5.499   5.980   7.438 -0.3538 -0.2559 -0.3915
  172SOPE   H5X19499   5.589   5.988   7.502 -0.3622  1.9529 -0.5547
  172SOPE   H5Y19500   5.495   5.882   7.387 -0.4579 -1.8985  2.5633
  172SOPE   C3619501   5.367   5.986   7.515 -0.2053  0.5961  0.6384
  172SOPE   H6X19502   5.360   5.891   7.573  0.0760 -0.8648 -1.6000
  172SOPE   H6Y19503   5.287   5.994   7.438 -0.9728  0.0615  1.3655
  172SOPE   C3719504   5.381   6.092   7.615  0.3994  0.1164  0.4482
  172SOPE   H7X19505   5.392   6.192   7.567 -0.4850 -0.9630 -2.1717
  172SOPE   H7Y19506   5.475   6.084   7.674 -0.2893  0.3040  1.6040
  172SOPE   C3819507   5.258   6.111   7.712  0.4274  0.1095  0.3339
  172SOPE   H8X19508   5.256   6.017   7.771 -0.3067 -0.2378 -0.2216
  172SOPE   H8Y19509   5.162   6.129   7.660  1.4672 -0.5943 -2.0117
  172SOPE   C3919510   5.298   6.230   7.802  0.2703 -0.1126  0.1268
  172SOPE   H9X19511   5.295   6.328   7.750 -1.6047  0.5168  1.3378
  172SOPE   H9Y19512   5.401   6.206   7.837  0.2522 -0.5610 -0.1153
  172SOPE  C31019513   5.213   6.238   7.926  0.1530 -0.6663  0.2602
  172SOPE  H10X19514   5.218   6.139   7.977  2.5631 -1.3581 -1.1703
  172SOPE  H10Y19515   5.105   6.253   7.902  1.0093  3.7413 -1.6015
  172SOPE  C31119516   5.249   6.358   8.013  0.4400 -0.7590  0.0145
  172SOPE  H11X19517   5.235   6.444   7.944  0.2247 -1.3087 -0.6354
  172SOPE  H11Y19518   5.352   6.366   8.054 -0.1430  1.6032  1.2104
  172SOPE  C31219519   5.153   6.373   8.131  0.0627 -0.1232  0.5157
  172SOPE  H12X19520   5.155   6.290   8.205 -0.7405  0.8118  1.6233
  172SOPE  H12Y19521   5.052   6.373   8.084 -0.0280  0.6641  0.6871
  172SOPE  C31319522   5.172   6.506   8.207  0.9643 -0.6473 -0.4214
  172SOPE  H13X19523   5.171   6.595   8.141 -1.3022  0.0027  0.3796
  172SOPE  H13Y19524   5.271   6.492   8.255  1.0732  0.9064 -0.1603
  172SOPE  C31419525   5.078   6.534   8.334 -0.2150  0.5277  0.5699
  172SOPE  H14X19526   5.059   6.431   8.373 -0.2911 -0.2928 -1.4786
  172SOPE  H14Y19527   4.981   6.577   8.304 -0.4351  0.5423  1.2863
  172SOPE  C31519528   5.146   6.613   8.447 -0.5059  0.6559  0.3126
  172SOPE  H15X19529   5.226   6.551   8.493 -0.9678  0.2451  0.5621
  172SOPE  H15Y19530   5.066   6.641   8.519 -0.6851 -2.5312  1.5180
  172SOPE  C31619531   5.234   6.733   8.389 -0.5563 -0.6049 -0.4535
  172SOPE  H16X19532   5.180   6.792   8.312  1.8327  1.5294 -0.6066
  172SOPE  H16Y19533   5.326   6.694   8.341  0.6273  2.0631 -0.5137
  172SOPE  C31719534   5.279   6.825   8.507 -0.0412  0.0162  0.9594
  172SOPE  H17X19535   5.380   6.782   8.525  0.3554 -1.1573 -3.0180
  172SOPE  H17Y19536   5.210   6.812   8.593 -2.1756 -0.5838 -0.7406
  172SOPE  C31819537   5.297   6.971   8.469 -0.5560 -0.1073  0.0925
  172SOPE  H18X19538   5.206   7.020   8.428 -1.2683  0.2374  1.9902
  172SOPE  H18Y19539   5.372   6.992   8.390  0.0320  3.2283  1.3610
  172SOPE  H18Z19540   5.335   7.027   8.557 -0.4941 -0.1324  0.0821
  173SAPI   C1219541   6.016   1.945  10.975  0.2482 -0.2449 -0.3042
  173SAPI    H219542   6.020   1.834  10.985  0.4744 -0.4040 -1.9389
  173SAPI    O219543   5.901   1.988  11.051  0.1587  0.4846  0.6320
  173SAPI   HO219544   5.851   1.911  11.079 -2.5486  2.4862  1.7870
  173SAPI   C1319545   6.147   2.005  11.033  0.8865 -0.5794  0.3936
  173SAPI    H319546   6.223   1.967  10.961 -0.9470 -1.3488 -1.2282
  173SAPI    O319547   6.170   1.960  11.166 -0.3550  0.2633 -0.1895
  173SAPI   HO319548   6.264   1.942  11.162 -0.6607 -1.4283 -0.4393
  173SAPI   C1419549   6.138   2.158  11.017  0.1736  0.4273 -0.4009
  173SAPI    H419550   6.058   2.193  11.086 -1.0882 -1.3243 -0.9081
  173SAPI    O419551   6.252   2.216  11.065 -0.5981 -0.8062 -0.7599
  173SAPI   HO419552   6.277   2.295  11.018 -0.5023  0.1338  0.7938
  173SAPI   C1519553   6.112   2.197  10.873 -0.0328 -0.6235 -0.1172
  173SAPI    H519554   6.202   2.174  10.813 -0.2820  0.7874 -1.0782
  173SAPI    O519555   6.091   2.336  10.858 -0.7949 -0.3402  0.3597
  173SAPI   HO519556   6.095   2.369  10.767 -0.3960 -1.7590 -0.1653
  173SAPI   C1619557   5.994   2.129  10.803 -0.2703  0.1373 -0.3837
  173SAPI    H619558   5.901   2.171  10.848 -0.6190  0.4108 -1.3472
  173SAPI    O619559   5.982   2.156  10.661  0.2379 -0.4622 -0.0493
  173SAPI   HO619560   5.956   2.076  10.616 -0.8146 -0.6139  0.7902
  173SAPI   C1119561   6.004   1.978  10.822  0.0169  0.2373 -0.2966
  173SAPI    H119562   6.104   1.946  10.786 -0.7152 -2.2910 -0.2410
  173SAPI     P19563   5.931   1.822  10.625 -0.1338 -0.3085  0.0252
  173SAPI   O1319564   5.826   1.720  10.593 -0.4022  0.0044 -0.5640
  173SAPI   O1419565   6.072   1.775  10.633 -0.7493 -0.0644  0.4054
  173SAPI   O1219566   5.897   1.902  10.764  0.1434  0.1035 -0.0697
  173SAPI   O1119567   5.911   1.941  10.521 -0.0087 -0.2300  0.1298
  173SAPI    C119568   5.785   1.973  10.467 -0.3014 -0.0061  0.2291
  173SAPI    HA19569   5.705   1.902  10.497  0.2570 -1.4492 -1.5843
  173SAPI    HB19570   5.749   2.069  10.510 -1.7224  0.2107 -1.3852
  173SAPI    C219571   5.793   1.979  10.310  0.6809 -0.3978 -0.1624
  173SAPI    HS19572   5.687   1.978  10.275 -0.2754 -0.1168  2.5117
  173SAPI   O2119573   5.860   1.863  10.257 -0.2001 -0.3310 -0.4770
  173SAPI   C2119574   5.795   1.752  10.266  1.0272  0.3085  0.5935
  173SAPI   O2219575   5.679   1.740  10.311  0.4479 -0.2518 -0.2548
  173SAPI   C2219576   5.875   1.639  10.208  0.6395  0.0883  0.1274
  173SAPI   H2R19577   5.945   1.675  10.130  0.0472  0.0781 -0.4139
  173SAPI   H2S19578   5.937   1.597  10.289  0.7751  1.1382  0.5869
  173SAPI    C319579   5.873   2.107  10.275  0.8074  0.5179  0.4066
  173SAPI    HX19580   5.978   2.094  10.309  1.3772  1.3246 -0.9649
  173SAPI    HY19581   5.831   2.190  10.335  0.2202 -0.3271  1.2015
  173SAPI   O3119582   5.867   2.125  10.133 -0.1679  0.7826  0.0606
  173SAPI   C3119583   5.909   2.244  10.092  0.0911 -0.8442  0.3242
  173SAPI   O3219584   5.970   2.322  10.160 -0.0839  0.1356  0.9500
  173SAPI   C3219585   5.879   2.260   9.941  0.2298  0.1976 -1.0570
  173SAPI   H2X19586   5.770   2.278   9.933  0.3263  2.0304  0.8149
  173SAPI   H2Y19587   5.906   2.166   9.887  0.4867 -1.3833  1.6292
  173SAPI   C2319588   5.782   1.530  10.149  0.5999  0.3600 -0.8265
  173SAPI   H3R19589   5.732   1.484  10.237 -0.4893  1.0050 -1.0820
  173SAPI   H3S19590   5.849   1.455  10.102  0.9303  1.0258 -1.4360
  173SAPI   C2419591   5.685   1.569  10.042  0.0791 -0.2222  0.5385
  173SAPI   H4R19592   5.593   1.620  10.079 -0.0412  1.0652 -1.3431
  173SAPI   H4S19593   5.640   1.472  10.010  0.8072 -0.2444 -0.4673
  173SAPI   C2519594   5.736   1.648   9.923  0.1576  0.0601 -0.0197
  173SAPI   H5R19595   5.724   1.755   9.944 -1.0088 -0.3721  1.6907
  173SAPI   C2619596   5.776   1.606   9.801 -0.5996  0.0040 -0.6950
  173SAPI   H6R19597   5.802   1.675   9.719 -0.4385  0.1592 -0.5143
  173SAPI   C2719598   5.790   1.468   9.757 -0.6165  0.3624 -0.5694
  173SAPI   H7R19599   5.801   1.397   9.842  0.2998 -0.3664 -1.2767
  173SAPI   H7S19600   5.888   1.446   9.709  0.1888  2.0456  0.2297
  173SAPI   C2819601   5.665   1.412   9.683  0.1884  0.5327 -0.7520
  173SAPI   H8R19602   5.576   1.472   9.704  0.0537  0.0486  0.1123
  173SAPI   C2919603   5.652   1.301   9.616  0.7028 -0.1880  0.3621
  173SAPI   H9R19604   5.549   1.278   9.585  0.7211  0.4558 -0.1969
  173SAPI  C21019605   5.761   1.200   9.591  0.0028  0.2934 -0.5793
  173SAPI  H10R19606   5.721   1.104   9.629 -1.0358  0.9148 -0.0529
  173SAPI  H10S19607   5.863   1.224   9.628  1.0845 -1.3075 -2.3372
  173SAPI  C21119608   5.776   1.190   9.440 -0.6079 -0.1934 -0.8066
  173SAPI  H11R19609   5.840   1.274   9.412  0.1303 -0.5643 -0.2717
  173SAPI  C21219610   5.717   1.121   9.343  0.7343  0.6779  0.3957
  173SAPI  H12R19611   5.754   1.141   9.241 -1.7291  1.9365 -0.3399
  173SAPI  C21319612   5.603   1.030   9.363  0.6349 -0.3819 -0.4488
  173SAPI  H13R19613   5.518   1.068   9.303 -0.4652 -0.7959  0.7985
  173SAPI  H13S19614   5.562   1.037   9.466  1.6340  1.7485 -0.1606
  173SAPI  C21419615   5.623   0.880   9.340 -0.1923 -0.5372  0.3012
  173SAPI  H14R19616   5.696   0.823   9.399 -0.6842 -0.7855  0.6891
  173SAPI  C21519617   5.548   0.810   9.256  0.2927 -0.0590 -0.7366
  173SAPI  H15R19618   5.581   0.705   9.244  0.5005 -0.0993  0.1268
  173SAPI  C21619619   5.440   0.847   9.161 -0.2751  1.0844  0.4046
  173SAPI  H16R19620   5.451   0.955   9.141 -0.2573  1.1055  0.5306
  173SAPI  H16S19621   5.341   0.834   9.209  0.1982  0.2951  1.2107
  173SAPI  C21719622   5.448   0.768   9.030  0.6411  0.0979 -1.0739
  173SAPI  H17R19623   5.367   0.816   8.971 -1.7820  0.0505  1.9839
  173SAPI  H17S19624   5.414   0.663   9.045 -2.3580  1.1119 -0.0032
  173SAPI  C21819625   5.568   0.792   8.934 -0.4176 -0.1701  0.2663
  173SAPI  H18R19626   5.665   0.755   8.972  0.1585 -0.6278 -1.5400
  173SAPI  H18S19627   5.589   0.899   8.914 -0.4786  0.2402  2.1833
  173SAPI  C21919628   5.544   0.727   8.792  0.4313 -0.5386  0.2421
  173SAPI  H19R19629   5.470   0.791   8.739 -0.0080 -1.0698  0.2091
  173SAPI  H19S19630   5.487   0.632   8.800 -0.1234 -0.3091 -0.8005
  173SAPI  C22019631   5.672   0.702   8.719  0.7691  0.2922  0.3777
  173SAPI  H20R19632   5.746   0.660   8.790  0.0557 -0.0974  0.9078
  173SAPI  H20S19633   5.716   0.795   8.678  0.6567  1.3065  2.4305
  173SAPI  H20T19634   5.651   0.633   8.634  3.7006  0.9774 -1.0226
  173SAPI   C3319635   5.936   2.386   9.870 -0.0482  0.1165  0.4685
  173SAPI   H3X19636   6.045   2.389   9.886 -0.3533 -1.7712  3.7188
  173SAPI   H3Y19637   5.895   2.478   9.916  2.4087  0.4634  2.1049
  173SAPI   C3419638   5.889   2.399   9.720  0.3107  0.3261 -0.5145
  173SAPI   H4X19639   5.929   2.497   9.688  0.3091  1.1461  1.7994
  173SAPI   H4Y19640   5.778   2.404   9.722  0.1300 -0.9142 -2.9159
  173SAPI   C3519641   5.932   2.303   9.614  0.1190  0.0932 -0.1659
  173SAPI   H5X19642   5.855   2.223   9.604  1.1962 -1.3088  2.0385
  173SAPI   H5Y19643   6.024   2.255   9.654 -1.2755 -0.6830  2.2910
  173SAPI   C3619644   5.965   2.378   9.478 -0.1157 -0.6861 -0.0440
  173SAPI   H6X19645   6.042   2.458   9.484 -0.1665 -0.6116 -0.3778
  173SAPI   H6Y19646   5.871   2.432   9.456 -0.6839 -2.3784 -2.0057
  173SAPI   C3719647   5.994   2.280   9.370 -0.9809  0.2560  0.0509
  173SAPI   H7X19648   5.903   2.219   9.352 -0.8733  0.6499 -2.0378
  173SAPI   H7Y19649   6.063   2.204   9.413 -0.6971  0.4526 -0.0510
  173SAPI   C3819650   6.055   2.347   9.241 -0.3523  0.9329 -0.4326
  173SAPI   H8X19651   6.139   2.284   9.206 -0.1994  0.9125 -0.0352
  173SAPI   H8Y19652   6.084   2.451   9.267  0.3827  0.9578 -1.2889
  173SAPI   C3919653   5.957   2.351   9.127  0.4728 -0.1935  0.1811
  173SAPI   H9X19654   5.869   2.407   9.163  0.6966 -0.8683  1.8390
  173SAPI   H9Y19655   5.926   2.248   9.096 -2.1044  0.8850 -1.1573
  173SAPI  C31019656   6.021   2.409   9.003  0.4135  0.0253  0.1689
  173SAPI  H10X19657   6.116   2.355   8.984  0.4787  0.2441 -0.1286
  173SAPI  H10Y19658   6.046   2.516   9.019 -3.0364  1.5339 -3.0142
  173SAPI  C31119659   5.923   2.398   8.883 -0.5096 -0.7287 -0.2751
  173SAPI  H11X19660   5.817   2.414   8.913 -1.0340 -0.7825 -2.0167
  173SAPI  H11Y19661   5.928   2.293   8.849  1.1967 -1.0006  0.7046
  173SAPI  C31219662   5.958   2.498   8.772 -0.1995  0.4896  0.2056
  173SAPI  H12X19663   6.064   2.473   8.748  0.0791 -0.5250  2.2935
  173SAPI  H12Y19664   5.968   2.607   8.789 -0.0014  0.3165  1.2615
  173SAPI  C31319665   5.872   2.467   8.648 -0.4828  0.4460 -0.1533
  173SAPI  H13X19666   5.770   2.506   8.665 -0.6334  0.2076 -0.4962
  173SAPI  H13Y19667   5.856   2.360   8.622  0.1228  0.3440 -0.1357
  173SAPI  C31419668   5.932   2.539   8.519  0.3067  0.2659  0.1199
  173SAPI  H14X19669   6.016   2.470   8.493 -0.9935 -0.4859 -2.3524
  173SAPI  H14Y19670   5.969   2.641   8.541  0.8709  0.3918 -1.2862
  173SAPI  C31519671   5.847   2.535   8.386 -0.5801  0.2311 -0.8142
  173SAPI  H15X19672   5.904   2.583   8.304 -0.3660  1.4654  0.0237
  173SAPI  H15Y19673   5.759   2.600   8.403 -0.7457  0.2785 -1.8293
  173SAPI  C31619674   5.803   2.396   8.352  0.3414  0.4594  0.0040
  173SAPI  H16X19675   5.718   2.356   8.411  0.7878 -2.2069 -1.0368
  173SAPI  H16Y19676   5.884   2.321   8.364 -1.0006 -1.1976 -0.9227
  173SAPI  C31719677   5.773   2.396   8.201  0.1653  0.2070  1.0912
  173SAPI  H17X19678   5.868   2.429   8.153 -0.3564  0.0651 -0.0690
  173SAPI  H17Y19679   5.697   2.474   8.177 -0.1447 -0.4035  0.0519
  173SAPI  C31819680   5.742   2.257   8.148 -0.5111 -0.0951 -0.6745
  173SAPI  H18X19681   5.712   2.265   8.042  0.4607 -1.2337 -1.0557
  173SAPI  H18Y19682   5.667   2.217   8.220  0.8706  1.3758  1.7552
  173SAPI  H18Z19683   5.834   2.197   8.163 -0.3843  0.2756  0.0910
  174SAPI   C1219684   4.272   4.985  10.996  0.0470  0.5812 -0.5379
  174SAPI    H219685   4.299   4.929  11.088  3.3058 -0.2405 -1.8538
  174SAPI    O219686   4.213   5.106  11.030  0.1982 -0.0008  0.4261
  174SAPI   HO219687   4.136   5.075  11.078  0.0884 -1.6237 -0.7105
  174SAPI   C1319688   4.410   5.003  10.929  0.9081  0.0689  0.5804
  174SAPI    H319689   4.449   4.901  10.908 -0.4554 -0.9485  2.6702
  174SAPI    O319690   4.496   5.067  11.023 -0.5937  0.1892  0.3527
  174SAPI   HO319691   4.484   5.162  11.016  0.7789  0.4119  0.7516
  174SAPI   C1419692   4.392   5.082  10.795 -0.1683 -0.0511  0.1479
  174SAPI    H419693   4.342   5.180  10.807 -2.8368 -1.3274  0.1436
  174SAPI    O419694   4.521   5.089  10.731  1.1389 -0.2865 -0.4791
  174SAPI   HO419695   4.563   5.004  10.722 -1.1310 -1.2753 -2.8199
  174SAPI   C1519696   4.298   5.003  10.700  0.2706  0.3076 -0.6190
  174SAPI    H519697   4.344   4.902  10.691  0.0319  0.0834  0.4866
  174SAPI    O519698   4.287   5.062  10.573  0.2046  0.1842 -0.2654
  174SAPI   HO519699   4.304   5.156  10.580  1.5937 -0.1733  1.9643
  174SAPI   C1619700   4.163   4.966  10.771 -0.2076  0.5343 -0.2131
  174SAPI    H619701   4.108   5.061  10.789 -0.6164 -0.0410  1.9838
  174SAPI    O619702   4.075   4.885  10.697 -0.7575  0.0320  0.1625
  174SAPI   HO619703   3.986   4.901  10.730 -1.5515  1.1178 -2.3007
  174SAPI   C1119704   4.181   4.903  10.908 -0.0665  0.5552 -0.3249
  174SAPI    H119705   4.230   4.804  10.901 -0.0041  0.5382  0.3234
  174SAPI     P19706   3.941   4.771  10.975 -0.1985 -0.4292 -0.4379
  174SAPI   O1319707   3.858   4.788  11.097 -0.5932 -0.3150  0.4172
  174SAPI   O1419708   4.006   4.638  10.952 -0.0294  0.6019 -0.0130
  174SAPI   O1219709   4.054   4.884  10.977 -0.1303  0.3761  0.6630
  174SAPI   O1119710   3.854   4.800  10.846  0.3273  0.1789 -0.2456
  174SAPI    C119711   3.775   4.913  10.862  0.4257 -0.4860 -0.2347
  174SAPI    HA19712   3.691   4.896  10.933  1.4209 -0.6660  0.9313
  174SAPI    HB19713   3.826   5.004  10.899 -0.5613  0.7269 -1.7415
  174SAPI    C219714   3.709   4.947  10.729  0.1690  0.0888  0.3210
  174SAPI    HS19715   3.658   4.858  10.687 -0.4661  1.5495 -2.1671
  174SAPI   O2119716   3.812   5.002  10.649 -0.0307  0.5621  0.0184
  174SAPI   C2119717   3.808   4.977  10.526  0.4654 -0.0231 -0.0317
  174SAPI   O2219718   3.743   4.897  10.461 -0.4408  0.1423 -0.0277
  174SAPI   C2219719   3.918   5.069  10.458  0.0847  0.0259 -0.3894
  174SAPI   H2R19720   3.933   5.153  10.529 -1.1178 -0.5770  0.6051
  174SAPI   H2S19721   4.006   5.005  10.432 -1.0291 -0.6356 -2.8188
  174SAPI    C319722   3.609   5.069  10.740  0.4150  0.6741 -0.1789
  174SAPI    HX19723   3.663   5.160  10.773  1.0949  0.3731 -0.4383
  174SAPI    HY19724   3.537   5.048  10.822  0.1623  3.1755  0.3262
  174SAPI   O3119725   3.539   5.092  10.613  0.2414 -0.8095 -0.5916
  174SAPI   C3119726   3.477   5.209  10.609  0.2359 -0.3987 -0.1029
  174SAPI   O3219727   3.479   5.302  10.691  0.1955 -0.1382  0.3470
  174SAPI   C3219728   3.419   5.225  10.468 -0.2841 -0.1386 -0.1364
  174SAPI   H2X19729   3.349   5.141  10.448 -0.4520  0.1721 -0.9156
  174SAPI   H2Y19730   3.505   5.217  10.397 -0.6992  1.9565 -0.9378
  174SAPI   C2319731   3.876   5.142  10.322  0.2676 -0.9136 -1.1151
  174SAPI   H3R19732   3.792   5.214  10.340  2.7346  2.0479 -0.5868
  174SAPI   H3S19733   3.846   5.068  10.245  0.3513 -0.0099 -2.0389
  174SAPI   C2419734   3.990   5.238  10.281 -0.4330  0.2533  0.3370
  174SAPI   H4R19735   4.013   5.288  10.378 -2.3671  0.6935  0.6127
  174SAPI   H4S19736   3.949   5.311  10.208 -3.4508 -0.7443  0.8937
  174SAPI   C2519737   4.107   5.157  10.245 -0.1235 -0.5087  1.1634
  174SAPI   H5R19738   4.174   5.127  10.326 -1.1435  1.7534  2.9470
  174SAPI   C2619739   4.135   5.103  10.122  0.2829 -0.1526  0.0601
  174SAPI   H6R19740   4.218   5.031  10.118 -1.3323 -2.1428  0.6897
  174SAPI   C2719741   4.055   5.125   9.993  0.7195  0.8397  0.0211
  174SAPI   H7R19742   4.128   5.124   9.908  1.6977 -0.5186  0.8335
  174SAPI   H7S19743   4.014   5.227  10.009 -3.4647 -0.5021 -1.0399
  174SAPI   C2819744   3.941   5.032   9.988 -0.0687 -0.7622 -0.4314
  174SAPI   H8R19745   3.847   5.066  10.035 -0.1106  0.8540 -1.5888
  174SAPI   C2919746   3.931   4.915   9.930 -0.4144  0.2752 -0.1392
  174SAPI   H9R19747   3.840   4.854   9.937  0.7089 -1.4305  0.1635
  174SAPI  C21019748   4.039   4.855   9.844 -0.1716  0.0191  0.3715
  174SAPI  H10R19749   4.131   4.826   9.899  0.1024 -0.3542 -0.2722
  174SAPI  H10S19750   4.079   4.933   9.777 -1.9255 -1.5606 -2.7155
  174SAPI  C21119751   3.998   4.733   9.758 -0.6928 -0.4080  0.1723
  174SAPI  H11R19752   4.005   4.631   9.798  1.4831  0.0048  0.9697
  174SAPI  C21219753   3.970   4.749   9.626 -0.7358 -0.5502 -0.2001
  174SAPI  H12R19754   3.934   4.659   9.575 -2.8212  0.4372 -0.5572
  174SAPI  C21319755   3.962   4.878   9.551  0.1163 -1.0939  0.4981
  174SAPI  H13R19756   4.043   4.874   9.475  0.9652  1.3674  1.1840
  174SAPI  H13S19757   3.969   4.963   9.622  2.0947 -0.1099 -0.7935
  174SAPI  C21419758   3.831   4.920   9.486  0.2263  0.6282 -0.6549
  174SAPI  H14R19759   3.749   4.926   9.559 -0.0003 -4.9928  0.0373
  174SAPI  C21519760   3.816   4.956   9.358 -0.8667  0.3439  0.6991
  174SAPI  H15R19761   3.716   4.986   9.323 -0.4307  1.5160  0.3987
  174SAPI  C21619762   3.914   4.965   9.240  0.3717 -0.9666 -0.3447
  174SAPI  H16R19763   3.923   4.857   9.216 -3.4409 -1.6314  0.5555
  174SAPI  H16S19764   4.010   5.000   9.284 -0.9948  0.2200  1.9362
  174SAPI  C21719765   3.861   5.054   9.127 -0.7252  0.8822  0.0024
  174SAPI  H17R19766   3.849   5.159   9.161 -0.6011  1.6491 -2.1722
  174SAPI  H17S19767   3.762   5.014   9.099 -0.6233  1.5755 -1.3838
  174SAPI  C21819768   3.975   5.061   9.021  0.3179  0.5070  0.0959
  174SAPI  H18R19769   4.064   5.122   9.046  0.5986  0.6905 -1.2372
  174SAPI  H18S19770   3.940   5.117   8.931 -0.3680 -1.2481 -0.7841
  174SAPI  C21919771   4.009   4.922   8.967 -0.0794 -0.4794  0.2327
  174SAPI  H19R19772   3.909   4.880   8.942 -1.3314  1.9546  0.8377
  174SAPI  H19S19773   4.055   4.857   9.044 -1.1446 -1.2301  0.2648
  174SAPI  C22019774   4.095   4.929   8.846  0.3156 -0.2099 -0.9933
  174SAPI  H20R19775   4.188   4.984   8.870  0.5151 -1.2244  0.7194
  174SAPI  H20S19776   4.055   4.980   8.755 -2.6000 -0.2775  0.1379
  174SAPI  H20T19777   4.127   4.824   8.830 -0.0130 -0.5740  0.6121
  174SAPI   C3319778   3.355   5.369  10.447 -0.4103  0.1230 -0.0354
  174SAPI   H3X19779   3.424   5.455  10.434 -3.0626  3.1416  3.6503
  174SAPI   H3Y19780   3.288   5.399  10.530  1.8160  4.6107  0.4516
  174SAPI   C3419781   3.252   5.369  10.331 -0.1879 -0.3858  1.0690
  174SAPI   H4X19782   3.178   5.452  10.344  2.6193  2.2528  1.2645
  174SAPI   H4Y19783   3.193   5.275  10.332 -2.3558  0.7864 -1.8987
  174SAPI   C3519784   3.318   5.372  10.195  0.2935  0.0283  0.1570
  174SAPI   H5X19785   3.364   5.275  10.166 -1.9499 -0.8761 -0.6077
  174SAPI   H5Y19786   3.405   5.441  10.195 -0.4414  0.9920 -0.5959
  174SAPI   C3619787   3.230   5.417  10.081  0.0633  0.0023 -0.3470
  174SAPI   H6X19788   3.149   5.489  10.105 -1.7677 -1.8086 -0.8626
  174SAPI   H6Y19789   3.167   5.332  10.049 -1.4640  1.5914 -1.7470
  174SAPI   C3719790   3.312   5.474   9.965  0.2233  0.5066 -0.3262
  174SAPI   H7X19791   3.388   5.404   9.925  0.4514  0.7399 -0.3090
  174SAPI   H7Y19792   3.363   5.565  10.004 -0.6241  1.4244 -1.2765
  174SAPI   C3819793   3.221   5.515   9.850 -0.6724  0.6616  0.5951
  174SAPI   H8X19794   3.142   5.581   9.892  1.6509  2.1194  3.0003
  174SAPI   H8Y19795   3.172   5.419   9.823  0.0365  0.2181  0.8448
  174SAPI   C3919796   3.293   5.575   9.728  0.2705  0.2770  0.2915
  174SAPI   H9X19797   3.370   5.505   9.688  0.0030  0.1165  0.0572
  174SAPI   H9Y19798   3.355   5.655   9.774  0.1227  0.4599  0.1692
  174SAPI  C31019799   3.191   5.616   9.624 -0.1355  0.0983  0.1010
  174SAPI  H10X19800   3.128   5.695   9.670  0.2066 -0.3254  1.3183
  174SAPI  H10Y19801   3.126   5.526   9.608 -1.9255  0.9540  2.0276
  174SAPI  C31119802   3.262   5.655   9.490 -0.3864 -0.3981 -0.6871
  174SAPI  H11X19803   3.187   5.651   9.409 -0.5154 -0.7740 -0.5518
  174SAPI  H11Y19804   3.338   5.577   9.467 -2.1446 -2.4965  0.1364
  174SAPI  C31219805   3.327   5.796   9.488 -0.1136  0.2699 -0.1872
  174SAPI  H12X19806   3.408   5.811   9.563 -0.5013 -0.7259  0.4408
  174SAPI  H12Y19807   3.251   5.872   9.513  0.1742  1.0148 -1.4946
  174SAPI  C31319808   3.393   5.815   9.347 -0.9687  0.2788  0.2291
  174SAPI  H13X19809   3.310   5.818   9.272 -1.9249  0.9169  1.2719
  174SAPI  H13Y19810   3.459   5.732   9.316 -0.1143  0.8525  0.4862
  174SAPI  C31419811   3.475   5.944   9.331 -0.0866  0.0357 -0.8029
  174SAPI  H14X19812   3.552   5.943   9.411  0.6311 -2.1492 -1.4652
  174SAPI  H14Y19813   3.413   6.037   9.340 -2.9993 -1.5512 -2.8065
  174SAPI  C31519814   3.547   5.939   9.193  0.1446  0.2657 -0.5778
  174SAPI  H15X19815   3.570   5.834   9.168 -1.3717 -0.6822  1.6534
  174SAPI  H15Y19816   3.638   6.000   9.210 -0.0739 -0.1384  2.9122
  174SAPI  C31619817   3.471   6.002   9.078 -0.2241 -0.0800  0.3781
  174SAPI  H16X19818   3.460   6.111   9.092 -0.7014 -0.0403 -0.2395
  174SAPI  H16Y19819   3.366   5.966   9.076 -0.3860  0.3550  0.9733
  174SAPI  C31719820   3.548   5.981   8.949  0.0644 -0.1026 -0.4441
  174SAPI  H17X19821   3.548   5.873   8.924  1.2284 -0.0481 -0.7422
  174SAPI  H17Y19822   3.654   6.008   8.967 -0.1203 -0.8805  2.2421
  174SAPI  C31819823   3.481   6.045   8.821  0.0238  0.3516 -0.4718
  174SAPI  H18X19824   3.399   5.983   8.780  2.0976 -2.5391 -0.5392
  174SAPI  H18Y19825   3.562   6.042   8.745 -0.3922  1.2059 -0.9689
  174SAPI  H18Z19826   3.462   6.154   8.833  1.9686  0.6831 -0.0418
  175SAPI   C1219827   5.950   2.552   6.420  0.0231 -0.0740 -0.0576
  175SAPI    H219828   5.977   2.597   6.518  1.1544 -1.8413  0.4877
  175SAPI    O219829   6.049   2.454   6.393  0.1172 -0.4066  0.6317
  175SAPI   HO219830   6.096   2.444   6.477  1.6943  2.5643  0.2237
  175SAPI   C1319831   5.807   2.486   6.435 -0.2353 -0.4031  0.1499
  175SAPI    H319832   5.741   2.574   6.448  1.6214  1.2406 -0.9637
  175SAPI    O319833   5.797   2.405   6.553 -0.5243 -0.1001 -0.0782
  175SAPI   HO319834   5.881   2.398   6.599 -2.0340 -0.9704  2.8316
  175SAPI   C1419835   5.762   2.412   6.304  0.1830 -0.3274  0.4076
  175SAPI    H419836   5.846   2.344   6.278  0.8013  0.2949  0.7543
  175SAPI    O419837   5.643   2.336   6.316  0.1242 -0.0888  0.5336
  175SAPI   HO419838   5.559   2.375   6.341 -0.1812 -1.2084  1.3072
  175SAPI   C1519839   5.755   2.519   6.191  0.1352  0.1194  0.4385
  175SAPI    H519840   5.671   2.583   6.227 -2.7393 -1.7215 -2.4548
  175SAPI    O519841   5.710   2.470   6.063  0.2886 -0.2710  0.0008
  175SAPI   HO519842   5.645   2.400   6.075  0.9956 -0.9712 -0.2018
  175SAPI   C1619843   5.888   2.596   6.176  0.6139  0.5897 -0.2904
  175SAPI    H619844   5.965   2.526   6.138 -0.0389 -0.6677  0.6114
  175SAPI    O619845   5.877   2.701   6.081  0.7738 -0.8190  0.0085
  175SAPI   HO619846   5.951   2.758   6.103  0.7034 -1.1518  1.1245
  175SAPI   C1119847   5.936   2.656   6.313  0.4777 -0.2425  0.3019
  175SAPI    H119848   5.865   2.734   6.347  1.4674  0.9399 -0.2510
  175SAPI     P19849   6.092   2.877   6.283  0.1818 -0.3207  0.3179
  175SAPI   O1319850   5.997   2.928   6.178 -0.2846 -0.0098  0.0796
  175SAPI   O1419851   6.236   2.907   6.260 -0.1858 -0.1103  0.3098
  175SAPI   O1219852   6.065   2.719   6.296  0.1984 -0.0300  0.1569
  175SAPI   O1119853   6.056   2.935   6.421 -0.3520 -0.0174 -0.4602
  175SAPI    C119854   6.005   3.071   6.419 -0.3863  0.2737 -0.7534
  175SAPI    HA19855   6.054   3.141   6.347  0.6048  0.6950  0.2917
  175SAPI    HB19856   5.903   3.065   6.376 -1.4823  1.6839  1.4501
  175SAPI    C219857   5.992   3.135   6.555  0.4191  0.3909  0.2361
  175SAPI    HS19858   5.961   3.240   6.540  0.3282  0.3205 -0.0700
  175SAPI   O2119859   6.124   3.124   6.623 -0.2256 -0.1190  0.3650
  175SAPI   C2119860   6.220   3.205   6.577 -0.1608 -0.6911  0.1401
  175SAPI   O2219861   6.201   3.304   6.506 -0.3641 -0.6786 -0.2441
  175SAPI   C2219862   6.365   3.153   6.614  0.0895  0.0984 -0.0656
  175SAPI   H2R19863   6.377   3.067   6.545 -2.8621 -0.7109  0.2669
  175SAPI   H2S19864   6.437   3.234   6.587  0.1349  0.1971  0.3357
  175SAPI    C319865   5.869   3.061   6.628 -0.0770  0.0376 -0.7927
  175SAPI    HX19866   5.877   2.952   6.611 -1.8758 -0.2489 -0.0289
  175SAPI    HY19867   5.768   3.092   6.594 -0.1754 -0.4013 -0.9005
  175SAPI   O3119868   5.864   3.098   6.771 -0.6257  0.3286  0.1317
  175SAPI   C3119869   5.901   3.011   6.867 -1.0845 -0.0063 -0.2920
  175SAPI   O3219870   5.945   2.896   6.844 -0.4439  0.2262 -0.0598
  175SAPI   C3219871   5.913   3.081   7.002 -0.1749 -0.1569 -0.2128
  175SAPI   H2X19872   5.811   3.124   7.013 -0.0462  0.4574 -1.2160
  175SAPI   H2Y19873   5.980   3.170   7.000  0.0776 -0.3546 -1.3891
  175SAPI   C2319874   6.384   3.083   6.752  0.4817  0.1957  0.3617
  175SAPI   H3R19875   6.470   3.013   6.741  1.0225  1.1540 -2.4010
  175SAPI   H3S19876   6.294   3.034   6.794  0.1875 -0.3534 -0.8628
  175SAPI   C2419877   6.416   3.190   6.869  0.6909  0.8611  0.0392
  175SAPI   H4R19878   6.498   3.256   6.833  2.1339 -0.4816  0.7675
  175SAPI   H4S19879   6.470   3.130   6.944  1.0628 -0.0668 -0.9449
  175SAPI   C2519880   6.295   3.260   6.935 -0.0811 -0.0909 -0.0620
  175SAPI   H5R19881   6.224   3.292   6.858  0.2547  0.8942  0.0183
  175SAPI   C2619882   6.266   3.280   7.068 -1.1637 -0.0198  0.6015
  175SAPI   H6R19883   6.169   3.326   7.094 -0.7819  1.1701 -0.0020
  175SAPI   C2719884   6.353   3.254   7.192  0.1134  0.5763  0.3714
  175SAPI   H7R19885   6.361   3.343   7.257  3.8660 -0.4336  1.4812
  175SAPI   H7S19886   6.458   3.239   7.159  0.1188  0.5831  0.3854
  175SAPI   C2819887   6.313   3.133   7.275  0.2626  0.5227 -0.1582
  175SAPI   H8R19888   6.327   3.038   7.222 -0.5919  1.2530 -1.7501
  175SAPI   C2919889   6.262   3.132   7.401  0.1044 -0.6270 -0.0958
  175SAPI   H9R19890   6.247   3.035   7.450  1.3168  0.3438  2.3473
  175SAPI  C21019891   6.233   3.259   7.481 -0.2108  0.2547  0.1305
  175SAPI  H10R19892   6.157   3.310   7.418 -2.1163 -1.1433  1.2027
  175SAPI  H10S19893   6.327   3.318   7.476 -0.3608  0.4178 -1.1735
  175SAPI  C21119894   6.173   3.226   7.614 -0.0408 -0.3290 -0.1949
  175SAPI  H11R19895   6.064   3.218   7.629  0.1577  0.6644  2.1329
  175SAPI  C21219896   6.240   3.227   7.730 -0.6862 -0.7606  0.4912
  175SAPI  H12R19897   6.196   3.200   7.827 -1.2043  0.9512  0.7710
  175SAPI  C21319898   6.390   3.252   7.752  0.3477  0.3724  0.1584
  175SAPI  H13R19899   6.444   3.270   7.656  0.3733 -1.4297 -0.1960
  175SAPI  H13S19900   6.432   3.154   7.783  0.9648  1.0061  1.4141
  175SAPI  C21419901   6.440   3.345   7.856 -0.3090  0.1327 -0.3221
  175SAPI  H14R19902   6.500   3.431   7.822  1.0040  0.1880  1.9576
  175SAPI  C21519903   6.427   3.341   7.986  0.2776  0.7560 -0.9065
  175SAPI  H15R19904   6.485   3.407   8.051 -0.5258  0.3463  0.2528
  175SAPI  C21619905   6.363   3.232   8.064 -0.1850  0.9218  0.5387
  175SAPI  H16R19906   6.306   3.167   7.994 -0.2409  1.0435  0.4714
  175SAPI  H16S19907   6.274   3.269   8.118  0.6436  0.9733  1.9016
  175SAPI  C21719908   6.463   3.149   8.153  0.5478 -0.3458  0.1368
  175SAPI  H17R19909   6.553   3.207   8.183  1.0520 -1.0432 -0.0043
  175SAPI  H17S19910   6.492   3.072   8.080 -1.2039  1.3313 -2.4972
  175SAPI  C21819911   6.398   3.080   8.272  0.3091 -0.0602  0.2621
  175SAPI  H18R19912   6.479   3.036   8.334 -0.4571 -0.2014  1.1896
  175SAPI  H18S19913   6.332   2.994   8.244  0.0233  0.1745  0.2133
  175SAPI  C21919914   6.305   3.170   8.355  0.6229  0.2714  0.1731
  175SAPI  H19R19915   6.206   3.197   8.312  0.0960 -1.1699  0.4030
  175SAPI  H19S19916   6.365   3.257   8.388  2.4872 -1.0189  0.3330
  175SAPI  C22019917   6.267   3.100   8.494 -0.2707 -0.5391 -0.0977
  175SAPI  H20R19918   6.193   3.018   8.483  1.3014 -1.8667 -1.3643
  175SAPI  H20S19919   6.225   3.174   8.565  0.1406 -1.5345  1.2352
  175SAPI  H20T19920   6.345   3.039   8.546 -1.9704 -1.5344  1.4170
  175SAPI   C3319921   5.956   2.978   7.113  0.1725 -0.7965  0.6761
  175SAPI   H3X19922   6.053   2.935   7.080  0.1172 -1.9567  1.9103
  175SAPI   H3Y19923   5.884   2.894   7.106  2.1269 -2.3827 -1.7129
  175SAPI   C3419924   5.974   3.030   7.253 -0.1106 -0.0330  0.3970
  175SAPI   H4X19925   6.012   3.133   7.242 -0.0780  0.0256  1.0235
  175SAPI   H4Y19926   6.042   2.960   7.306  0.9768  0.0568 -0.8235
  175SAPI   C3519927   5.840   3.052   7.326 -0.0294  0.0714 -0.1687
  175SAPI   H5X19928   5.789   2.954   7.329 -1.3990  0.7676  0.0262
  175SAPI   H5Y19929   5.766   3.115   7.273 -1.5746 -1.8137 -0.3641
  175SAPI   C3619930   5.872   3.125   7.457  1.4557 -0.0216 -0.6779
  175SAPI   H6X19931   5.923   3.222   7.439 -0.3982  0.9933 -0.7025
  175SAPI   H6Y19932   5.944   3.064   7.516 -1.3184 -1.1533  1.8077
  175SAPI   C3719933   5.746   3.149   7.540 -0.8528 -0.0955 -0.4377
  175SAPI   H7X19934   5.697   3.050   7.552 -0.8315 -0.0045  0.4319
  175SAPI   H7Y19935   5.672   3.210   7.482  1.4722  1.7529 -1.6155
  175SAPI   C3819936   5.785   3.202   7.679 -0.2105  0.0029  0.0171
  175SAPI   H8X19937   5.862   3.131   7.716 -0.5196 -0.8915 -1.0099
  175SAPI   H8Y19938   5.688   3.197   7.732  0.0806  1.4140  0.7343
  175SAPI   C3919939   5.845   3.341   7.681 -0.2280 -0.2334  0.0471
  175SAPI   H9X19940   5.758   3.407   7.663 -0.8020 -0.4172  1.9052
  175SAPI   H9Y19941   5.921   3.364   7.604 -1.3074  0.1774 -0.9153
  175SAPI  C31019942   5.908   3.393   7.817  0.7625  0.4457 -0.5898
  175SAPI  H10X19943   5.937   3.500   7.812  1.2747  0.3031 -0.6771
  175SAPI  H10Y19944   5.996   3.332   7.847  0.3091  0.7412  1.5457
  175SAPI  C31119945   5.813   3.379   7.936  0.3863  0.0084  0.0771
  175SAPI  H11X19946   5.780   3.275   7.957 -0.2884  0.6201  2.2720
  175SAPI  H11Y19947   5.717   3.430   7.916 -1.8221 -3.2215  1.5313
  175SAPI  C31219948   5.859   3.427   8.072  0.3535 -0.2296 -0.0044
  175SAPI  H12X19949   5.887   3.534   8.063 -0.6800 -0.0995 -2.5012
  175SAPI  H12Y19950   5.943   3.360   8.098  1.1433  1.0188  0.7671
  175SAPI  C31319951   5.756   3.410   8.181  0.8405  0.0798 -0.1688
  175SAPI  H13X19952   5.718   3.305   8.181 -1.7286  0.9501 -0.2768
  175SAPI  H13Y19953   5.663   3.469   8.167 -0.5998 -2.1102 -0.3050
  175SAPI  C31419954   5.820   3.439   8.320  0.1434 -0.2473  0.8181
  175SAPI  H14X19955   5.876   3.534   8.319 -1.4576  0.7418  1.3375
  175SAPI  H14Y19956   5.899   3.365   8.345  0.9168 -0.0396 -0.8814
  175SAPI  C31519957   5.705   3.441   8.417  0.2694 -0.4698  0.1503
  175SAPI  H15X19958   5.648   3.346   8.410 -1.7701  0.6345  0.8723
  175SAPI  H15Y19959   5.639   3.525   8.386  2.2443  1.1623  0.1897
  175SAPI  C31619960   5.761   3.464   8.555 -0.0176  0.0633  0.5740
  175SAPI  H16X19961   5.812   3.561   8.570 -1.1328  0.7669 -0.0510
  175SAPI  H16Y19962   5.837   3.384   8.564  1.0646  0.8026 -1.3277
  175SAPI  C31719963   5.650   3.442   8.667  0.2279 -0.2992 -0.4128
  175SAPI  H17X19964   5.689   3.451   8.771  1.0354 -1.3441 -0.6024
  175SAPI  H17Y19965   5.623   3.335   8.659  2.3628 -1.3811  3.6269
  175SAPI  C31819966   5.525   3.531   8.656  0.0535  0.0361 -0.2479
  175SAPI  H18X19967   5.478   3.525   8.555  0.1525  1.5971 -0.3993
  175SAPI  H18Y19968   5.542   3.639   8.671 -3.3264  0.4540  1.6230
  175SAPI  H18Z19969   5.453   3.497   8.734  1.5281 -0.0118  1.1393
  176SAPI   C1219970   4.753   1.664   6.525  0.1830  0.6595 -0.2088
  176SAPI    H219971   4.721   1.604   6.613 -2.5079 -0.2090 -1.6754
  176SAPI    O219972   4.665   1.772   6.515 -0.0610 -0.2135  0.3750
  176SAPI   HO219973   4.585   1.758   6.566  0.5557  0.6286  1.6187
  176SAPI   C1319974   4.895   1.722   6.542  0.8013  0.2440  0.0999
  176SAPI    H319975   4.973   1.643   6.557 -0.2193 -0.7592  0.2661
  176SAPI    O319976   4.912   1.811   6.655 -0.2348 -0.2702 -0.0768
  176SAPI   HO319977   4.869   1.894   6.634 -1.3916 -0.8713 -0.1795
  176SAPI   C1419978   4.922   1.803   6.414  0.3735 -0.1434  0.0172
  176SAPI    H419979   4.860   1.895   6.413  0.6906  0.1922  2.6172
  176SAPI    O419980   5.056   1.856   6.409 -0.2389 -0.1201  0.2935
  176SAPI   HO419981   5.042   1.947   6.382 -2.2975  1.0622  4.5573
  176SAPI   C1519982   4.910   1.715   6.290  0.1267 -0.5588 -0.2048
  176SAPI    H519983   4.982   1.632   6.301  1.9034  0.7407 -1.5115
  176SAPI    O519984   4.936   1.778   6.166 -0.7967  0.4283 -0.4398
  176SAPI   HO519985   4.872   1.849   6.159  0.4590  1.8368  1.2802
  176SAPI   C1619986   4.776   1.647   6.283 -0.2405  0.9517  0.3708
  176SAPI    H619987   4.705   1.731   6.263 -0.4062  0.7367  0.0521
  176SAPI    O619988   4.770   1.563   6.169 -0.4310  0.5797 -0.5248
  176SAPI   HO619989   4.733   1.479   6.199  1.1537  0.8558  2.6635
  176SAPI   C1119990   4.742   1.567   6.405 -0.5503  0.3771  0.2737
  176SAPI    H119991   4.830   1.499   6.413 -1.0548 -0.1199  1.8696
  176SAPI     P19992   4.601   1.344   6.381  0.2150 -0.0985  0.0571
  176SAPI   O1319993   4.677   1.314   6.254 -0.7880  0.3025 -0.2626
  176SAPI   O1419994   4.455   1.309   6.394 -0.3368  0.1334 -0.1413
  176SAPI   O1219995   4.610   1.508   6.410 -1.2014  0.2232 -0.6943
  176SAPI   O1119996   4.691   1.288   6.499 -0.0381  0.2642 -0.0251
  176SAPI    C119997   4.641   1.270   6.630  1.0603 -0.2260 -0.8250
  176SAPI    HA19998   4.599   1.355   6.687 -0.2926 -1.2841 -0.1935
  176SAPI    HB19999   4.557   1.197   6.626  0.0160  0.6974  1.9141
  176SAPI    C220000   4.748   1.202   6.721 -0.4281 -0.1344  0.3253
  176SAPI    HS20001   4.790   1.123   6.656 -0.9453  1.0720 -1.5396
  176SAPI   O2120002   4.671   1.149   6.828 -0.3210 -0.0344  0.1166
  176SAPI   C2120003   4.728   1.062   6.908  0.2877 -0.0814 -0.4774
  176SAPI   O2220004   4.843   1.020   6.894  0.1382  0.9491 -0.1242
  176SAPI   C2220005   4.631   1.035   7.025 -0.1408  0.1258  0.3299
  176SAPI   H2R20006   4.591   1.133   7.058  0.5105  0.6865 -0.4994
  176SAPI   H2S20007   4.543   0.987   6.975  1.7753 -2.1468 -1.1130
  176SAPI    C320008   4.865   1.298   6.756 -0.4833  0.3520 -0.2679
  176SAPI    HX20009   4.917   1.341   6.667  0.3543  1.1014  0.5680
  176SAPI    HY20010   4.932   1.237   6.820 -2.7540 -0.7408  1.1887
  176SAPI   O3120011   4.827   1.410   6.836  0.3467  0.2596 -0.0773
  176SAPI   C3120012   4.910   1.483   6.902 -0.0935 -0.1686  0.4468
  176SAPI   O3220013   5.028   1.466   6.928 -0.4974  0.1503  0.2551
  176SAPI   C3220014   4.826   1.599   6.959 -0.1969  0.3175  0.3428
  176SAPI   H2X20015   4.755   1.560   7.035 -1.0734  0.3634 -0.4329
  176SAPI   H2Y20016   4.758   1.633   6.878 -1.9766 -2.0735  0.7133
  176SAPI   C2320017   4.685   0.958   7.144  0.1454 -0.6398 -0.3576
  176SAPI   H3R20018   4.739   0.876   7.091 -0.2988 -0.1620 -1.5766
  176SAPI   H3S20019   4.600   0.922   7.205  0.9195 -0.2101  1.0091
  176SAPI   C2420020   4.788   1.036   7.235  0.9850  0.4167  0.2479
  176SAPI   H4R20021   4.857   1.092   7.168 -1.7700  2.5869 -1.0053
  176SAPI   H4S20022   4.846   0.962   7.294  0.0985 -0.9978 -0.6006
  176SAPI   C2520023   4.725   1.138   7.320 -0.4920 -0.7230 -1.0184
  176SAPI   H5R20024   4.667   1.217   7.269  1.4959  2.0257  0.6472
  176SAPI   C2620025   4.730   1.132   7.456  0.1094  0.4010  0.1585
  176SAPI   H6R20026   4.661   1.189   7.520 -0.7684 -2.2423  1.7336
  176SAPI   C2720027   4.801   1.017   7.531 -0.3299 -0.4230  1.4964
  176SAPI   H7R20028   4.901   1.000   7.486 -0.6515 -1.0319  0.9997
  176SAPI   H7S20029   4.748   0.924   7.500  0.0617 -0.1401 -0.1559
  176SAPI   C2820030   4.811   1.034   7.677  0.6356  0.0782 -0.6410
  176SAPI   H8R20031   4.914   1.056   7.709  0.3040  1.1542 -0.2513
  176SAPI   C2920032   4.713   1.003   7.766  0.3335  0.2175 -0.5989
  176SAPI   H9R20033   4.728   1.048   7.865 -0.7136 -2.1881  0.7519
  176SAPI  C21020034   4.581   0.942   7.724  0.3872  0.1390  0.1009
  176SAPI  H10R20035   4.569   0.919   7.616 -0.1063  1.4091 -0.1257
  176SAPI  H10S20036   4.492   1.005   7.746 -1.8234 -2.1571 -1.6854
  176SAPI  C21120037   4.580   0.811   7.798  0.4535  0.7013  0.0868
  176SAPI  H11R20038   4.662   0.742   7.774 -0.1682  0.0342 -0.1518
  176SAPI  C21220039   4.512   0.793   7.913  0.0882  0.1362 -0.5289
  176SAPI  H12R20040   4.534   0.702   7.970 -1.8424 -0.8969 -1.3513
  176SAPI  C21320041   4.420   0.892   7.977  0.4670 -0.0558  0.4695
  176SAPI  H13R20042   4.322   0.852   7.943  0.4465 -0.9294  1.4890
  176SAPI  H13S20043   4.426   0.990   7.926 -3.4277 -0.6370 -1.4891
  176SAPI  C21420044   4.428   0.919   8.126  0.5254 -0.1928 -0.4031
  176SAPI  H14R20045   4.491   1.005   8.154  2.5613 -1.4200 -1.0154
  176SAPI  C21520046   4.390   0.830   8.219  0.6031 -1.0473 -0.1029
  176SAPI  H15R20047   4.402   0.860   8.324 -0.0754  1.8404 -0.7623
  176SAPI  C21620048   4.306   0.709   8.198 -0.0487  0.1979  0.3461
  176SAPI  H16R20049   4.364   0.614   8.190 -1.0291 -0.3593 -0.4317
  176SAPI  H16S20050   4.250   0.707   8.102 -0.9241 -0.6831  0.8419
  176SAPI  C21720051   4.198   0.686   8.299 -0.3294  0.7056  0.0055
  176SAPI  H17R20052   4.247   0.660   8.395 -0.3200  1.4358  0.2030
  176SAPI  H17S20053   4.142   0.591   8.281 -3.3632  2.0331  1.6112
  176SAPI  C21820054   4.097   0.795   8.330 -0.2879 -0.0380  0.3237
  176SAPI  H18R20055   4.152   0.890   8.350  0.3059 -0.5522  1.2630
  176SAPI  H18S20056   4.033   0.762   8.414  0.6576 -0.9984  0.6995
  176SAPI  C21920057   4.010   0.831   8.206  0.7746  0.4555 -0.7726
  176SAPI  H19R20058   3.952   0.738   8.185  0.3430  0.5544 -0.0255
  176SAPI  H19S20059   4.070   0.848   8.114 -2.2383 -2.0804 -3.4692
  176SAPI  C22020060   3.915   0.947   8.227  0.5558 -0.1372 -0.3435
  176SAPI  H20R20061   3.968   1.044   8.236 -1.9804  1.2216  1.5710
  176SAPI  H20S20062   3.859   0.927   8.321  1.6653 -0.0125  0.3609
  176SAPI  H20T20063   3.842   0.953   8.144 -0.8735  1.2893  0.9346
  176SAPI   C3320064   4.927   1.701   7.020  0.0278  0.8284 -0.3025
  176SAPI   H3X20065   4.984   1.745   6.935  0.5133  1.2909  0.2586
  176SAPI   H3Y20066   4.997   1.654   7.092 -1.2092 -1.2339 -0.3397
  176SAPI   C3420067   4.852   1.804   7.098  0.2374 -0.7720  0.1625
  176SAPI   H4X20068   4.765   1.774   7.161 -0.3476  0.7243  0.1016
  176SAPI   H4Y20069   4.809   1.876   7.025  0.8986  0.3526  0.8528
  176SAPI   C3520070   4.946   1.883   7.189 -0.1295 -0.2279  0.9256
  176SAPI   H5X20071   5.018   1.935   7.123  0.2313 -1.8163  0.0138
  176SAPI   H5Y20072   5.009   1.819   7.255  4.5025  2.0410 -0.8599
  176SAPI   C3620073   4.867   1.997   7.262 -0.5232 -0.1119  0.4612
  176SAPI   H6X20074   4.805   2.062   7.197  1.3214  0.6566 -0.6148
  176SAPI   H6Y20075   4.938   2.065   7.313  0.8525  0.6504 -2.2446
  176SAPI   C3720076   4.762   1.946   7.365 -0.5457 -0.0709 -0.3939
  176SAPI   H7X20077   4.686   1.882   7.317  1.6947 -1.2775 -2.5773
  176SAPI   H7Y20078   4.716   2.034   7.415 -0.6447 -1.0329  1.2712
  176SAPI   C3820079   4.819   1.846   7.463 -0.3886  0.6152 -0.3608
  176SAPI   H8X20080   4.850   1.755   7.407 -0.1956 -0.7611  1.8622
  176SAPI   H8Y20081   4.740   1.809   7.531  0.7247  1.3614  1.3962
  176SAPI   C3920082   4.946   1.898   7.547 -0.0471 -0.0730  0.3605
  176SAPI   H9X20083   5.028   1.929   7.479 -0.5792  1.5268  0.4227
  176SAPI   H9Y20084   4.980   1.815   7.613  2.1072 -0.5315 -1.2227
  176SAPI  C31020085   4.907   2.011   7.640 -0.5632 -0.7346  0.2922
  176SAPI  H10X20086   4.902   2.102   7.577  0.4054 -0.0422  1.1855
  176SAPI  H10Y20087   4.997   2.025   7.705  1.7867  2.3263 -3.2047
  176SAPI  C31120088   4.783   1.994   7.727  0.1555  0.1120 -0.8860
  176SAPI  H11X20089   4.778   1.889   7.764 -1.6610 -0.5032 -2.7349
  176SAPI  H11Y20090   4.705   2.012   7.650 -1.0215  1.1840  0.4876
  176SAPI  C31220091   4.771   2.103   7.838  0.3168  0.0765 -0.3607
  176SAPI  H12X20092   4.746   2.199   7.786  0.9292  1.3091  1.5238
  176SAPI  H12Y20093   4.867   2.095   7.893 -0.1287  1.6702  0.7088
  176SAPI  C31320094   4.660   2.074   7.931  0.0937  0.0862  0.2838
  176SAPI  H13X20095   4.668   1.969   7.968 -0.2203  0.0874  0.3593
  176SAPI  H13Y20096   4.565   2.083   7.875  1.0264  0.4288 -1.2793
  176SAPI  C31420097   4.650   2.177   8.048  0.3243  0.3374  0.5622
  176SAPI  H14X20098   4.649   2.282   8.011 -1.5073  0.0488 -0.3138
  176SAPI  H14Y20099   4.740   2.171   8.114 -0.1974  0.1786  1.2640
  176SAPI  C31520100   4.527   2.137   8.135 -0.8365 -0.6754  0.5733
  176SAPI  H15X20101   4.550   2.032   8.162 -1.0306 -0.3246  2.2654
  176SAPI  H15Y20102   4.425   2.138   8.091 -0.8795 -0.7478  0.6700
  176SAPI  C31620103   4.526   2.229   8.259 -0.5122 -0.7659 -0.2633
  176SAPI  H16X20104   4.512   2.335   8.230 -1.6256 -1.0993 -1.0106
  176SAPI  H16Y20105   4.626   2.227   8.309 -0.6598 -0.5106  0.0455
  176SAPI  C31720106   4.418   2.210   8.370 -0.3607 -0.1775 -0.3891
  176SAPI  H17X20107   4.322   2.214   8.315 -0.7493  0.6371  0.3274
  176SAPI  H17Y20108   4.419   2.295   8.441  0.3430  1.5305 -2.3736
  176SAPI  C31820109   4.419   2.079   8.446  0.1871  0.2472  0.3057
  176SAPI  H18X20110   4.509   2.063   8.509  0.5604 -0.9348 -0.5027
  176SAPI  H18Y20111   4.408   1.986   8.386 -3.6188 -0.2818  1.5234
  176SAPI  H18Z20112   4.340   2.077   8.524  0.2152 -2.5036  0.3577
  177SLPC     N20113   5.893   3.956  11.039  0.1594  0.4683 -0.0138
  177SLPC   C1320114   5.950   4.008  11.168 -0.2625 -0.3540 -0.6732
  177SLPC  H13A20115   5.954   4.115  11.176  1.4100 -0.4278 -0.1263
  177SLPC  H13B20116   5.907   3.967  11.258  0.5193  1.6832  0.7078
  177SLPC  H13C20117   6.054   3.983  11.185  0.1591  0.8685 -1.3169
  177SLPC   C1420118   5.755   4.014  11.032 -0.7738  0.0902 -0.4397
  177SLPC  H14A20119   5.694   3.967  10.957 -1.0540 -1.2543  0.5942
  177SLPC  H14B20120   5.696   3.988  11.119  1.6661  0.4760  1.4516
  177SLPC  H14C20121   5.752   4.122  11.021 -0.6890  0.1938  0.4507
  177SLPC   C1520122   5.899   3.800  11.042  0.6470  0.2568  0.1527
  177SLPC  H15A20123   5.886   3.763  11.143 -0.4340 -0.6459 -0.3020
  177SLPC  H15B20124   5.825   3.753  10.979  0.8193 -1.5622  1.2330
  177SLPC  H15C20125   5.998   3.762  11.020  0.0391 -1.7020  0.6165
  177SLPC   C1220126   5.971   3.994  10.915 -0.8410 -0.0065  0.1437
  177SLPC  H12A20127   6.067   3.946  10.927 -1.0244 -0.3682  0.1508
  177SLPC  H12B20128   5.986   4.100  10.931  2.5348 -0.2970 -0.3642
  177SLPC   C1120129   5.910   3.969  10.778  0.0935  0.3063  0.5798
  177SLPC  H11A20130   5.880   3.863  10.763 -1.4156  0.7751  0.0838
  177SLPC  H11B20131   5.997   3.984  10.710  0.7207  2.7964  1.7817
  177SLPC     P20132   5.829   4.199  10.698 -0.1310 -0.2914  0.0046
  177SLPC   O1320133   5.728   4.284  10.764  0.0021 -0.2973 -0.3256
  177SLPC   O1420134   5.970   4.236  10.706  0.0386 -0.2912 -0.0568
  177SLPC   O1220135   5.801   4.056  10.745  0.5902  0.7477 -0.3853
  177SLPC   O1120136   5.795   4.183  10.545  0.1757  0.0053 -0.4253
  177SLPC    C120137   5.681   4.106  10.497 -0.0172 -0.3607 -0.0715
  177SLPC    HA20138   5.734   4.015  10.461 -0.7293 -0.6153 -0.4855
  177SLPC    HB20139   5.608   4.083  10.577 -1.9093  0.3243 -1.5272
  177SLPC    C220140   5.597   4.172  10.381 -0.2063  0.1372  0.6683
  177SLPC    HS20141   5.514   4.104  10.355 -0.7043  1.3262 -1.0184
  177SLPC   O2120142   5.683   4.202  10.270  0.2669 -0.0127  0.3601
  177SLPC   C2120143   5.696   4.098  10.186  0.3884 -0.3004 -0.1241
  177SLPC   O2220144   5.636   3.992  10.198 -0.1317  0.5082  0.2344
  177SLPC   C2220145   5.790   4.140  10.075  0.1421  0.3645 -0.3190
  177SLPC   H2R20146   5.891   4.164  10.116  0.3263  0.6079 -0.9046
  177SLPC   H2S20147   5.800   4.050  10.011 -0.6459 -0.6830  0.9717
  177SLPC    C320148   5.537   4.297  10.431 -0.1138  0.1743 -0.6504
  177SLPC    HX20149   5.618   4.366  10.463 -1.9080  1.2832  1.8220
  177SLPC    HY20150   5.480   4.280  10.525  2.9649  0.5304  1.4376
  177SLPC   O3120151   5.463   4.364  10.328  0.2016 -1.1229 -0.6443
  177SLPC   C3120152   5.346   4.308  10.307  0.3195 -0.4611 -0.1927
  177SLPC   O3220153   5.298   4.207  10.368  0.0553 -1.0380  0.0476
  177SLPC   C3220154   5.276   4.373  10.188  0.3365  0.6278 -0.9202
  177SLPC   H2X20155   5.228   4.464  10.230 -0.8329 -0.5992  0.5452
  177SLPC   H2Y20156   5.189   4.305  10.175  1.3445 -1.1295  0.8378
  177SLPC   C2320157   5.731   4.246   9.994  0.3643 -0.4327  0.1013
  177SLPC   H3R20158   5.702   4.334  10.056  0.7801 -0.9350  1.0290
  177SLPC   H3S20159   5.631   4.214   9.959 -0.5555  0.7889  1.4681
  177SLPC   C2420160   5.808   4.273   9.863 -0.2330  0.1459  0.3251
  177SLPC   H4R20161   5.844   4.176   9.821  0.7972 -0.9577  3.4350
  177SLPC   H4S20162   5.904   4.312   9.903  0.6755 -1.1589 -0.4829
  177SLPC   C2520163   5.755   4.374   9.759  0.0134 -0.5881  0.1237
  177SLPC   H5R20164   5.741   4.476   9.800  1.9604 -0.4231  0.4716
  177SLPC   H5S20165   5.664   4.331   9.712 -0.5404  0.2041  0.4573
  177SLPC   C2620166   5.861   4.402   9.652 -0.4041 -0.3430 -0.1755
  177SLPC   H6R20167   5.902   4.306   9.614  0.5516 -0.3060  0.7380
  177SLPC   H6S20168   5.943   4.463   9.695  0.4584 -1.6769  0.1312
  177SLPC   C2720169   5.799   4.479   9.532  0.3626  0.3041 -0.0292
  177SLPC   H7R20170   5.741   4.559   9.583 -1.0405 -0.9482  0.4264
  177SLPC   H7S20171   5.722   4.418   9.481  0.3412 -0.0179  0.3820
  177SLPC   C2820172   5.917   4.530   9.443  0.2396 -0.0321  0.5191
  177SLPC   H8R20173   5.980   4.589   9.513  2.5101 -0.6840 -0.8527
  177SLPC   H8S20174   5.872   4.601   9.370 -2.2233 -3.0053 -1.0865
  177SLPC   C2920175   6.009   4.426   9.386  0.1173 -0.6823  0.9097
  177SLPC   H9R20176   6.065   4.370   9.461  1.6437  1.6455  1.6187
  177SLPC  C21020177   6.028   4.395   9.256  0.0180 -0.2183  0.2460
  177SLPC  H10R20178   6.101   4.321   9.221  2.4611  2.7661 -1.4571
  177SLPC  C21120179   5.956   4.468   9.144  0.7686  1.1231 -0.1913
  177SLPC  H11R20180   5.931   4.573   9.169  1.1919  1.1841 -0.0117
  177SLPC  H11S20181   6.025   4.469   9.057 -0.4560 -0.8570 -1.2557
  177SLPC  C21220182   5.827   4.396   9.103  0.0871  0.7752 -0.5099
  177SLPC  H12R20183   5.768   4.362   9.189  1.0116  2.0426  0.6868
  177SLPC  C21320184   5.782   4.359   8.983 -0.1648 -0.4667  0.0328
  177SLPC  H13R20185   5.689   4.301   8.976 -0.8680  0.3007  2.1999
  177SLPC  C21420186   5.864   4.376   8.854 -0.1085 -0.2908 -0.1943
  177SLPC  H14R20187   5.889   4.279   8.806 -0.3212 -0.1243 -0.6465
  177SLPC  H14S20188   5.960   4.430   8.871 -0.4916  1.1686 -2.2704
  177SLPC  C21520189   5.769   4.469   8.766  0.2413 -0.5585 -0.1604
  177SLPC  H15R20190   5.829   4.493   8.677  1.2121 -0.4608  0.5061
  177SLPC  H15S20191   5.739   4.560   8.822  0.5669  0.3807 -1.4884
  177SLPC  C21620192   5.649   4.401   8.711 -0.1482  0.4856  0.3640
  177SLPC  H16R20193   5.565   4.390   8.783 -1.5780  1.8607 -1.0031
  177SLPC  H16S20194   5.683   4.299   8.682 -1.9396 -0.6330  1.9088
  177SLPC  C21720195   5.598   4.469   8.585  0.3796 -0.0741  0.6785
  177SLPC  H17R20196   5.501   4.433   8.543  1.3470 -0.4109 -1.3919
  177SLPC  H17S20197   5.681   4.459   8.512 -1.3052  2.8944 -1.9124
  177SLPC  C21820198   5.567   4.613   8.602  0.1657 -0.2058 -0.5834
  177SLPC  H18R20199   5.529   4.640   8.703  0.7418  0.8909 -0.6402
  177SLPC  H18S20200   5.489   4.651   8.533  0.8344  1.6517 -0.3784
  177SLPC  H18T20201   5.657   4.679   8.590 -0.2036  0.6329  0.9633
  177SLPC   C3320202   5.363   4.390  10.060  0.2315  0.3762  0.1082
  177SLPC   H3X20203   5.413   4.295  10.029 -1.0884 -0.1496 -0.5012
  177SLPC   H3Y20204   5.444   4.465  10.074  0.0866  0.4158  0.7871
  177SLPC   C3420205   5.271   4.431   9.948  0.6875 -0.2888 -1.2021
  177SLPC   H4X20206   5.237   4.534   9.971  0.1294 -0.9961  1.4965
  177SLPC   H4Y20207   5.180   4.368   9.934  0.5706 -0.3244 -0.3381
  177SLPC   C3520208   5.350   4.429   9.814  0.3530  0.1011 -0.3581
  177SLPC   H5X20209   5.372   4.324   9.785  0.0629  0.1178 -0.6565
  177SLPC   H5Y20210   5.450   4.476   9.810  0.8262 -0.8778 -0.3654
  177SLPC   C3620211   5.268   4.469   9.701  0.1991 -1.5275 -0.3716
  177SLPC   H6X20212   5.244   4.577   9.705  1.5751 -0.9182 -4.3010
  177SLPC   H6Y20213   5.166   4.424   9.703 -0.2775 -0.6723 -2.5250
  177SLPC   C3720214   5.329   4.435   9.562 -1.1530  0.7786 -0.3101
  177SLPC   H7X20215   5.341   4.325   9.556  0.7817  0.8555  1.1366
  177SLPC   H7Y20216   5.430   4.481   9.553  0.3511 -1.9369  1.2375
  177SLPC   C3820217   5.249   4.480   9.435  0.4766  0.3486 -0.0115
  177SLPC   H8X20218   5.287   4.582   9.411  0.4314  1.0861  2.7585
  177SLPC   H8Y20219   5.144   4.484   9.472  0.7792 -0.7663  1.0247
  177SLPC   C3920220   5.253   4.386   9.309  1.0670 -0.2101  0.0570
  177SLPC   H9X20221   5.237   4.290   9.363 -1.4304  0.0003 -0.2189
  177SLPC   H9Y20222   5.348   4.387   9.251  1.0765 -1.1989  0.0248
  177SLPC  C31020223   5.134   4.404   9.215  0.0269 -0.8018 -0.6382
  177SLPC  H10X20224   5.126   4.508   9.176  2.1228 -0.8767 -1.4006
  177SLPC  H10Y20225   5.038   4.393   9.270  0.3134 -0.7184 -0.1136
  177SLPC  C31120226   5.134   4.304   9.106 -0.1970  0.2932 -0.7694
  177SLPC  H11X20227   5.044   4.313   9.041  0.0817  1.0405 -1.0629
  177SLPC  H11Y20228   5.132   4.199   9.143  3.2638  0.5062  0.4007
  177SLPC  C31220229   5.255   4.299   9.005 -0.4673 -0.7987  0.5784
  177SLPC  H12X20230   5.345   4.266   9.061  1.1114  0.2610 -1.1740
  177SLPC  H12Y20231   5.273   4.398   8.959 -1.1811 -1.7292 -1.8886
  177SLPC  C31320232   5.229   4.215   8.873 -0.0256  0.5841  0.3847
  177SLPC  H13X20233   5.328   4.211   8.822 -0.7583  0.6624 -1.0892
  177SLPC  H13Y20234   5.158   4.263   8.802  1.1595 -0.0885 -1.3140
  177SLPC  C31420235   5.181   4.073   8.901 -0.1096  0.3941 -0.6123
  177SLPC  H14X20236   5.072   4.071   8.880 -0.1231 -0.1660 -0.5088
  177SLPC  H14Y20237   5.200   4.048   9.007  1.1397 -0.6030 -1.0464
  177SLPC  C31520238   5.233   3.954   8.824  0.0070  0.0955  0.4260
  177SLPC  H15X20239   5.342   3.943   8.844 -0.1286 -0.0006  1.1563
  177SLPC  H15Y20240   5.225   3.982   8.717  4.6914  0.3736 -0.0538
  177SLPC  C31620241   5.145   3.840   8.860  0.1631  0.6764 -0.2389
  177SLPC  H16X20242   5.036   3.858   8.848  0.2764  1.2754 -0.3807
  177SLPC  H16Y20243   5.161   3.816   8.967 -1.3640  1.6053  0.2271
  177SLPC  C31720244   5.182   3.717   8.777  0.1694 -0.2486  0.2137
  177SLPC  H17X20245   5.290   3.714   8.754  0.7647  3.3733  1.8988
  177SLPC  H17Y20246   5.138   3.738   8.677  0.9939  2.7271  0.4008
  177SLPC  C31820247   5.126   3.579   8.822 -0.4622  0.2100 -0.4868
  177SLPC  H18X20248   5.016   3.589   8.833 -0.9358 -2.2808 -2.1763
  177SLPC  H18Y20249   5.162   3.557   8.925 -1.2599 -1.5949 -0.5626
  177SLPC  H18Z20250   5.136   3.493   8.752 -3.2488  0.0248 -0.7745
  178SLPC     N20251   6.073   0.637  10.901  0.2118  0.6177 -0.2102
  178SLPC   C1320252   6.026   0.504  10.971 -0.2887 -0.3067  0.9614
  178SLPC  H13A20253   6.015   0.424  10.899  0.1021  1.5420 -1.2433
  178SLPC  H13B20254   6.078   0.465  11.058 -0.6434  1.6601  2.1105
  178SLPC  H13C20255   5.925   0.509  11.009 -0.2834 -0.0889  0.9461
  178SLPC   C1420256   6.212   0.613  10.848  0.3887  0.7722  0.1007
  178SLPC  H14A20257   6.289   0.601  10.922  0.3005  0.4611  0.1425
  178SLPC  H14B20258   6.210   0.517  10.800  1.0785 -0.2305  2.0026
  178SLPC  H14C20259   6.238   0.685  10.770 -2.7352  0.2082 -1.6291
  178SLPC   C1520260   6.094   0.747  10.998  0.4614 -0.1959 -0.3507
  178SLPC  H15A20261   6.143   0.833  10.956  2.7958 -1.3947 -0.2268
  178SLPC  H15B20262   5.998   0.770  11.043  1.4809  0.7091  1.4594
  178SLPC  H15C20263   6.154   0.708  11.080 -2.8087 -1.9257  1.4347
  178SLPC   C1220264   5.988   0.677  10.792 -0.2303 -0.1026  0.8681
  178SLPC  H12A20265   6.012   0.776  10.755  0.2266 -0.1745  0.9703
  178SLPC  H12B20266   5.888   0.701  10.824 -0.0781  1.8629  0.0362
  178SLPC   C1120267   5.964   0.579  10.672 -0.2370  0.1684  0.3431
  178SLPC  H11A20268   6.068   0.551  10.645 -0.8488 -1.1184 -0.7783
  178SLPC  H11B20269   5.925   0.628  10.580 -2.5866 -1.5258  0.3522
  178SLPC     P20270   5.736   0.478  10.742 -0.0790  0.2112 -0.3116
  178SLPC   O1320271   5.702   0.343  10.796 -0.5039 -0.8124 -0.0851
  178SLPC   O1420272   5.727   0.587  10.837  0.1252 -0.4031 -0.1509
  178SLPC   O1220273   5.892   0.455  10.706 -0.2102  0.0786 -0.0304
  178SLPC   O1120274   5.662   0.504  10.605  0.0441 -0.3555 -0.9422
  178SLPC    C120275   5.689   0.426  10.490  0.0520  0.1213  0.3921
  178SLPC    HA20276   5.795   0.394  10.481  0.4300  0.6689  2.3590
  178SLPC    HB20277   5.637   0.328  10.480 -0.3441  0.3373  0.2757
  178SLPC    C220278   5.676   0.500  10.351  0.5633  0.1713 -0.4267
  178SLPC    HS20279   5.723   0.599  10.373  0.8120 -0.4409  2.0944
  178SLPC   O2120280   5.528   0.521  10.339  0.1303  0.2039  0.4492
  178SLPC   C2120281   5.501   0.621  10.252 -0.3289  0.6750  0.1991
  178SLPC   O2220282   5.589   0.678  10.189 -0.1963 -0.0909  0.4084
  178SLPC   C2220283   5.348   0.628  10.245 -0.2354  0.4916 -0.9488
  178SLPC   H2R20284   5.311   0.526  10.265  1.1785 -0.1782 -1.5665
  178SLPC   H2S20285   5.300   0.698  10.316 -0.6418 -1.7818  1.1603
  178SLPC    C320286   5.731   0.427  10.227 -0.3667 -0.0548 -0.3612
  178SLPC    HX20287   5.735   0.492  10.137 -0.8943 -0.2377 -0.5221
  178SLPC    HY20288   5.657   0.351  10.194 -1.3890  0.9323 -0.4117
  178SLPC   O3120289   5.856   0.364  10.256  0.3153  0.1015  0.2368
  178SLPC   C3120290   5.960   0.445  10.256  0.3154  0.0348  0.4673
  178SLPC   O3220291   5.952   0.562  10.208  0.0155  0.0382 -0.3018
  178SLPC   C3220292   6.083   0.380  10.326 -0.4961 -0.1954 -0.4280
  178SLPC   H2X20293   6.052   0.282  10.369  0.9405 -1.4852 -2.1526
  178SLPC   H2Y20294   6.102   0.445  10.414 -1.7490 -1.9164  1.2100
  178SLPC   C2320295   5.308   0.661  10.101  0.0819  0.0493  0.3460
  178SLPC   H3R20296   5.352   0.760  10.079  0.2974  0.2345  1.5414
  178SLPC   H3S20297   5.197   0.669  10.101  0.1692  1.4830  0.2847
  178SLPC   C2420298   5.352   0.558   9.998 -0.0547 -0.0908  0.0179
  178SLPC   H4R20299   5.313   0.458  10.025  2.2758 -1.6743 -2.0585
  178SLPC   H4S20300   5.462   0.545  10.000  0.1598  1.1621 -1.6107
  178SLPC   C2520301   5.292   0.592   9.863  0.1405 -0.1254  0.1178
  178SLPC   H5R20302   5.313   0.699   9.838  1.5432 -0.5832 -0.7837
  178SLPC   H5S20303   5.183   0.570   9.858  0.1731  0.0183 -2.2624
  178SLPC   C2620304   5.357   0.521   9.744  0.0229 -0.2562 -0.3100
  178SLPC   H6R20305   5.356   0.412   9.762  1.0876 -0.0356  1.2558
  178SLPC   H6S20306   5.465   0.544   9.734  0.1290 -0.3930  0.5212
  178SLPC   C2720307   5.285   0.561   9.606  0.6215 -0.2029 -0.2097
  178SLPC   H7R20308   5.284   0.671   9.614  0.2001 -0.3283  3.3229
  178SLPC   H7S20309   5.177   0.539   9.614 -0.0085  1.8465 -2.3238
  178SLPC   C2820310   5.336   0.501   9.476  0.0357  0.0319 -0.0937
  178SLPC   H8R20311   5.327   0.392   9.494 -0.6337  0.1979  0.6410
  178SLPC   H8S20312   5.446   0.512   9.461  0.1440 -1.7172 -0.7882
  178SLPC   C2920313   5.267   0.539   9.353 -0.5734 -0.1244  0.2945
  178SLPC   H9R20314   5.248   0.645   9.333 -0.7628  0.6253  3.8921
  178SLPC  C21020315   5.232   0.458   9.247 -0.0342  0.0567  0.3990
  178SLPC  H10R20316   5.174   0.498   9.162 -1.3149  0.8510  1.6174
  178SLPC  C21120317   5.251   0.308   9.237  0.8008 -0.4095 -0.8189
  178SLPC  H11R20318   5.360   0.298   9.253  0.9541  2.7873  0.9185
  178SLPC  H11S20319   5.233   0.272   9.133  0.3452 -1.2129 -0.4744
  178SLPC  C21220320   5.171   0.225   9.340  0.2908  0.0883 -0.0650
  178SLPC  H12R20321   5.097   0.278   9.402 -1.4248 -2.2478 -0.0099
  178SLPC  C21320322   5.166   0.092   9.344  0.0599  0.6507  0.1017
  178SLPC  H13R20323   5.103   0.048   9.422  0.6577  1.6690  1.2108
  178SLPC  C21420324   5.252  -0.004   9.265  0.0215  0.0334  0.1393
  178SLPC  H14R20325   5.311  -0.072   9.330 -0.8883  0.7527  1.7989
  178SLPC  H14S20326   5.331   0.060   9.220  1.7620 -1.6790  0.6227
  178SLPC  C21520327   5.184  -0.089   9.160  0.5167 -0.0244 -0.1867
  178SLPC  H15R20328   5.114  -0.157   9.213 -0.3149  1.2929  0.4578
  178SLPC  H15S20329   5.260  -0.147   9.105  0.5964  1.2498 -1.4766
  178SLPC  C21620330   5.081  -0.017   9.063 -0.0037  0.3832  0.3638
  178SLPC  H16R20331   5.041   0.084   9.086 -0.7716  0.7197 -2.1451
  178SLPC  H16S20332   4.999  -0.091   9.054 -1.5273  2.1743 -1.4705
  178SLPC  C21720333   5.130  -0.009   8.916  0.0034  0.7024 -0.9027
  178SLPC  H17R20334   5.180  -0.106   8.900  1.2678  0.9540  1.1281
  178SLPC  H17S20335   5.203   0.073   8.900  0.6488  0.6342  1.3725
  178SLPC  C21820336   5.014  -0.009   8.827  0.7766  0.2663  0.6140
  178SLPC  H18R20337   5.052  -0.046   8.729  1.7139  0.9632  0.6985
  178SLPC  H18S20338   4.974   0.094   8.830 -1.0309 -0.3681 -0.6147
  178SLPC  H18T20339   4.931  -0.079   8.850 -0.4773  1.0903 -1.1984
  178SLPC   C3320340   6.208   0.364  10.240  0.4860 -0.3985  0.2642
  178SLPC   H3X20341   6.297   0.355  10.306  0.3633 -0.1989  0.4579
  178SLPC   H3Y20342   6.224   0.461  10.187 -2.9924  1.4659  2.2404
  178SLPC   C3420343   6.199   0.242  10.148  0.3924  0.0551  0.4837
  178SLPC   H4X20344   6.126   0.167  10.186  1.0581 -1.0462 -0.3848
  178SLPC   H4Y20345   6.300   0.198  10.140  1.3556  2.0935  0.8365
  178SLPC   C3520346   6.172   0.284  10.000  0.0392  0.3618 -0.1640
  178SLPC   H5X20347   6.256   0.347   9.964 -1.0655  0.9663 -1.7661
  178SLPC   H5Y20348   6.079   0.344   9.998  0.8407  1.6381 -2.4830
  178SLPC   C3620349   6.162   0.170   9.910 -0.4855  0.2257 -0.0662
  178SLPC   H6X20350   6.079   0.107   9.951 -1.7486  1.0445 -1.2738
  178SLPC   H6Y20351   6.253   0.106   9.914 -0.7372 -0.0972  1.1862
  178SLPC   C3720352   6.127   0.212   9.765  1.2127  0.5736 -0.3181
  178SLPC   H7X20353   6.203   0.285   9.730  0.7559  0.7996 -0.8575
  178SLPC   H7Y20354   6.031   0.268   9.768  0.3776 -0.8214  0.0341
  178SLPC   C3820355   6.125   0.087   9.670  0.1663  0.0343  0.2684
  178SLPC   H8X20356   6.028   0.037   9.687  0.4542 -0.4440  0.5289
  178SLPC   H8Y20357   6.206   0.015   9.695  0.4509  0.5361  0.8479
  178SLPC   C3920358   6.140   0.132   9.521 -0.6201 -0.3336 -0.1541
  178SLPC   H9X20359   6.243   0.173   9.510 -0.2680 -1.5157 -1.6076
  178SLPC   H9Y20360   6.064   0.207   9.490  1.4197  1.6810 -0.5574
  178SLPC  C31020361   6.125   0.027   9.420  0.0559  0.0482  0.9314
  178SLPC  H10X20362   6.029  -0.029   9.428  1.2781 -1.9802  2.2830
  178SLPC  H10Y20363   6.200  -0.049   9.451  1.4078  1.5760  1.5190
  178SLPC  C31120364   6.167   0.074   9.284  0.4099 -0.4582  0.0066
  178SLPC  H11X20365   6.265   0.124   9.296  0.3842  0.0812 -1.7367
  178SLPC  H11Y20366   6.101   0.157   9.251 -0.4675 -0.8629  0.7197
  178SLPC  C31220367   6.197  -0.046   9.189  0.3833  0.2056 -0.2006
  178SLPC  H12X20368   6.255  -0.125   9.239  0.4740 -0.1137 -0.7962
  178SLPC  H12Y20369   6.248  -0.005   9.099 -1.0241  0.5886 -0.8679
  178SLPC  C31320370   6.074  -0.113   9.129 -0.1039 -0.7801  0.0907
  178SLPC  H13X20371   5.999  -0.045   9.083 -1.3131 -2.7317 -0.9947
  178SLPC  H13Y20372   6.012  -0.182   9.191 -3.3083  0.9801 -0.9128
  178SLPC  C31420373   6.116  -0.202   9.010  0.6083  0.6958 -0.0754
  178SLPC  H14X20374   6.193  -0.274   9.045 -0.8968 -0.0708  1.8726
  178SLPC  H14Y20375   6.160  -0.145   8.925  1.1443  0.4174  0.0096
  178SLPC  C31520376   5.999  -0.271   8.950 -0.1754  0.0442  0.3160
  178SLPC  H15X20377   5.946  -0.340   9.019  1.1594 -0.4261  0.8908
  178SLPC  H15Y20378   5.920  -0.208   8.903 -0.8587 -1.8691 -1.2369
  178SLPC  C31620379   6.052  -0.351   8.823  0.0129  0.7868 -0.1239
  178SLPC  H16X20380   6.126  -0.419   8.870 -1.4642 -1.2534 -0.5959
  178SLPC  H16Y20381   6.100  -0.275   8.758 -0.3764  1.2369  0.1014
  178SLPC  C31720382   5.931  -0.419   8.751 -0.7839  0.5963 -0.5581
  178SLPC  H17X20383   5.852  -0.344   8.731 -1.4161 -0.1424 -0.9002
  178SLPC  H17Y20384   5.897  -0.492   8.828 -0.2178 -0.5005 -1.3278
  178SLPC  C31820385   5.977  -0.493   8.625 -0.0596 -0.5464  0.3550
  178SLPC  H18X20386   6.022  -0.589   8.659  0.7447 -0.5203 -0.6237
  178SLPC  H18Y20387   6.059  -0.439   8.574  0.2257 -1.0285  0.2935
  178SLPC  H18Z20388   5.896  -0.503   8.550 -2.1864  3.8286  1.7064
  179SLPC     N20389   1.859   4.698  10.795  0.1947  0.1681  0.3446
  179SLPC   C1320390   1.799   4.574  10.860 -0.4722 -0.7830 -0.3204
  179SLPC  H13A20391   1.710   4.613  10.908 -0.7157 -0.1852 -1.2168
  179SLPC  H13B20392   1.761   4.503  10.787  0.5594 -0.8864 -0.7790
  179SLPC  H13C20393   1.856   4.516  10.931 -0.1072  0.1694  0.1731
  179SLPC   C1420394   1.975   4.653  10.720 -0.2999  0.4698  0.6574
  179SLPC  H14A20395   2.051   4.607  10.782  2.1324  1.5465 -1.3294
  179SLPC  H14B20396   1.948   4.580  10.644 -1.0283 -1.0624  2.3184
  179SLPC  H14C20397   2.022   4.728  10.658 -2.0481  1.6455  0.6948
  179SLPC   C1520398   1.908   4.780  10.910 -0.5360 -0.1279  0.1647
  179SLPC  H15A20399   1.834   4.835  10.966  0.6494  1.9275 -0.1917
  179SLPC  H15B20400   1.968   4.720  10.977  0.1319 -0.2473 -0.5181
  179SLPC  H15C20401   1.968   4.859  10.867 -0.0184  0.7547  2.3512
  179SLPC   C1220402   1.760   4.779  10.714 -0.2683  0.2638 -0.1377
  179SLPC  H12A20403   1.794   4.878  10.689 -1.7022  1.0095  0.8070
  179SLPC  H12B20404   1.679   4.795  10.783 -1.3640 -2.0233 -0.7872
  179SLPC   C1120405   1.723   4.709  10.576  0.2260  0.0409 -0.4974
  179SLPC  H11A20406   1.618   4.739  10.557  0.3998  2.7934  1.9693
  179SLPC  H11B20407   1.722   4.599  10.585 -0.5464  0.0200 -0.8185
  179SLPC     P20408   1.805   4.893  10.411 -0.2447  0.5399 -0.0273
  179SLPC   O1320409   1.837   4.989  10.521  0.8158 -0.0095  0.0671
  179SLPC   O1420410   1.897   4.885  10.299  0.6107 -0.1825 -0.6922
  179SLPC   O1220411   1.806   4.750  10.467  0.4410  0.0437 -0.3549
  179SLPC   O1120412   1.656   4.918  10.365  0.2563  0.3002  0.5143
  179SLPC    C120413   1.603   4.833  10.256  0.4178  0.4990  0.0851
  179SLPC    HA20414   1.685   4.809  10.185 -0.2046  0.3986 -0.6088
  179SLPC    HB20415   1.558   4.740  10.296  0.8004 -0.3280 -1.3553
  179SLPC    C220416   1.494   4.912  10.177  0.2221 -0.2170  0.3234
  179SLPC    HS20417   1.391   4.888  10.210  0.5809 -1.5511  0.5328
  179SLPC   O2120418   1.512   4.876  10.040 -0.0091  0.0108  0.1149
  179SLPC   C2120419   1.443   4.785   9.991  0.2112  1.5729 -0.4320
  179SLPC   O2220420   1.348   4.728  10.047  0.4239 -0.5217  0.3635
  179SLPC   C2220421   1.497   4.752   9.855 -0.2116 -1.1438 -0.4798
  179SLPC   H2R20422   1.583   4.814   9.825 -1.4962  0.5077 -0.9027
  179SLPC   H2S20423   1.542   4.650   9.857  0.9715 -0.6715 -1.8673
  179SLPC    C320424   1.510   5.061  10.200  0.3968 -0.7284 -0.2274
  179SLPC    HX20425   1.614   5.083  10.167  0.1981 -1.3122 -1.2790
  179SLPC    HY20426   1.512   5.088  10.308 -2.2775 -0.3512 -0.1972
  179SLPC   O3120427   1.414   5.146  10.126  0.1398  0.4264  0.2143
  179SLPC   C3120428   1.291   5.135  10.161 -0.5740  0.4309  0.7762
  179SLPC   O3220429   1.242   5.063  10.245 -0.6380 -0.2580 -0.4010
  179SLPC   C3220430   1.206   5.235  10.078 -0.0306  1.5116 -0.0497
  179SLPC   H2X20431   1.249   5.337  10.086  1.4834  0.8213  1.0050
  179SLPC   H2Y20432   1.102   5.242  10.118 -0.2075  2.3058 -0.6346
  179SLPC   C2320433   1.375   4.739   9.754 -0.2588  0.4736 -0.4348
  179SLPC   H3R20434   1.298   4.819   9.764 -3.1961 -2.2511  0.2173
  179SLPC   H3S20435   1.317   4.650   9.784  0.5058  0.3407  0.6803
  179SLPC   C2420436   1.433   4.732   9.611 -0.0158 -0.3032  0.3784
  179SLPC   H4R20437   1.505   4.648   9.614  0.6700  0.1700 -1.4775
  179SLPC   H4S20438   1.483   4.829   9.588 -1.6334  0.6631  0.7517
  179SLPC   C2520439   1.315   4.702   9.513 -0.7378  0.2936  0.0163
  179SLPC   H5R20440   1.245   4.787   9.504 -0.2897  0.6158 -0.4657
  179SLPC   H5S20441   1.260   4.613   9.550  1.5199 -1.0375  0.3668
  179SLPC   C2620442   1.380   4.673   9.373  0.7785  0.2120  0.4721
  179SLPC   H6R20443   1.463   4.600   9.382  0.1740 -0.7018 -0.9814
  179SLPC   H6S20444   1.412   4.764   9.318  2.7483 -0.1112  0.9989
  179SLPC   C2720445   1.262   4.612   9.286  0.2452  0.1349  0.2495
  179SLPC   H7R20446   1.167   4.661   9.313  0.1089 -1.0188  2.0239
  179SLPC   H7S20447   1.257   4.506   9.317 -0.7923  0.3311  0.7657
  179SLPC   C2820448   1.284   4.608   9.134  0.2364  0.0346 -0.2908
  179SLPC   H8R20449   1.303   4.714   9.107 -1.6297  0.5253  0.2264
  179SLPC   H8S20450   1.191   4.568   9.089 -0.4586  0.0139  1.1387
  179SLPC   C2920451   1.398   4.513   9.088 -0.2489  0.9353  0.2263
  179SLPC   H9R20452   1.463   4.466   9.163 -2.3595  0.7088  2.0507
  179SLPC  C21020453   1.433   4.511   8.960  0.0882 -0.2483 -0.5966
  179SLPC  H10R20454   1.503   4.434   8.926 -0.6862  0.3685 -3.9738
  179SLPC  C21120455   1.358   4.588   8.848  0.4795  0.8678  0.0349
  179SLPC  H11R20456   1.430   4.656   8.796  0.0345 -0.0777 -1.8945
  179SLPC  H11S20457   1.283   4.660   8.888 -0.4268  0.5777 -1.1208
  179SLPC  C21220458   1.306   4.489   8.738  0.1679 -0.4015  0.2104
  179SLPC  H12R20459   1.223   4.421   8.762  0.9034 -2.0019 -1.5436
  179SLPC  C21320460   1.334   4.489   8.607 -0.5681  0.6483 -0.5935
  179SLPC  H13R20461   1.267   4.435   8.538  0.8215 -1.2607 -0.5269
  179SLPC  C21420462   1.422   4.588   8.533 -0.8005 -0.2410  0.0977
  179SLPC  H14R20463   1.520   4.549   8.500  0.2636  3.2164 -1.1767
  179SLPC  H14S20464   1.456   4.674   8.595  0.2781  0.0152 -0.8244
  179SLPC  C21520465   1.334   4.646   8.416 -0.8353  0.3940  0.1374
  179SLPC  H15R20466   1.247   4.695   8.466 -0.4636  2.5287 -1.1903
  179SLPC  H15S20467   1.304   4.554   8.361 -0.2073  1.3759 -1.9675
  179SLPC  C21620468   1.397   4.752   8.326  0.7600 -0.1002 -0.3566
  179SLPC  H16R20469   1.361   4.850   8.363 -4.7407 -2.1569  0.7213
  179SLPC  H16S20470   1.370   4.741   8.219  0.8887  0.9210 -0.5012
  179SLPC  C21720471   1.553   4.752   8.315 -0.7187 -0.3633 -0.3747
  179SLPC  H17R20472   1.603   4.659   8.281  1.6230  1.2546 -1.5534
  179SLPC  H17S20473   1.600   4.775   8.413  0.7507 -1.6295 -0.7377
  179SLPC  C21820474   1.600   4.861   8.213 -0.0208  0.1221 -0.0186
  179SLPC  H18R20475   1.711   4.866   8.205  0.0684  0.6709  1.3812
  179SLPC  H18S20476   1.574   4.963   8.247 -1.9505 -0.1488 -0.5556
  179SLPC  H18T20477   1.556   4.838   8.114 -1.8925  0.2810  0.7406
  179SLPC   C3320478   1.200   5.197   9.932  0.2531 -0.9084 -0.4119
  179SLPC   H3X20479   1.303   5.206   9.892  1.1327  0.3340  1.9649
  179SLPC   H3Y20480   1.141   5.277   9.881  0.4011 -1.0381 -0.7949
  179SLPC   C3420481   1.129   5.065   9.889  0.0656 -0.5371  0.4887
  179SLPC   H4X20482   1.217   4.998   9.903  1.8502  1.5218 -0.2385
  179SLPC   H4Y20483   1.092   5.063   9.785  0.8214 -0.4297  0.2056
  179SLPC   C3520484   1.012   5.007   9.977  0.1246  0.1804 -0.6826
  179SLPC   H5X20485   0.942   5.087  10.009  1.1675  1.5970 -1.8686
  179SLPC   H5Y20486   1.067   4.985  10.070 -0.8025  2.7887  0.5711
  179SLPC   C3620487   0.936   4.892   9.914 -0.0613 -0.0525  0.5511
  179SLPC   H6X20488   1.014   4.823   9.877  0.9005  1.1862  0.1873
  179SLPC   H6Y20489   0.879   4.926   9.825 -0.4258 -0.2618  0.7009
  179SLPC   C3720490   0.855   4.790  10.002 -1.0733 -0.3964 -1.1884
  179SLPC   H7X20491   0.791   4.862  10.057 -0.7950 -0.3150 -0.9617
  179SLPC   H7Y20492   0.928   4.747  10.075 -0.8066  1.0354 -0.5494
  179SLPC   C3820493   0.777   4.682   9.937  0.3125 -0.1154 -0.4232
  179SLPC   H8X20494   0.699   4.732   9.875 -1.8508 -0.2785  2.0013
  179SLPC   H8Y20495   0.717   4.630  10.014 -2.0385 -0.0888 -2.1376
  179SLPC   C3920496   0.846   4.579   9.845 -0.0868 -0.8781  0.7399
  179SLPC   H9X20497   0.801   4.478   9.852  1.7094 -1.7975 -0.2090
  179SLPC   H9Y20498   0.954   4.574   9.870  0.3889  2.3517 -0.2432
  179SLPC  C31020499   0.827   4.628   9.706 -0.1668 -0.2423  0.0228
  179SLPC  H10X20500   0.871   4.730   9.703 -1.1874  0.3106  2.0961
  179SLPC  H10Y20501   0.717   4.639   9.692 -0.2545  0.5130  1.1451
  179SLPC  C31120502   0.881   4.525   9.605  0.4016 -0.1205  0.4563
  179SLPC  H11X20503   0.826   4.430   9.622  3.1865 -1.7719  0.7812
  179SLPC  H11Y20504   0.985   4.503   9.637 -0.5543 -2.2973  2.3015
  179SLPC  C31220505   0.876   4.569   9.462 -0.1655  0.0528 -0.2086
  179SLPC  H12X20506   0.935   4.663   9.451 -0.7419  0.6012  1.1470
  179SLPC  H12Y20507   0.771   4.599   9.442  0.6384  3.6355  0.1770
  179SLPC  C31320508   0.932   4.453   9.375  0.7162 -0.3684 -0.0917
  179SLPC  H13X20509   0.859   4.371   9.397 -1.3503  2.1784  3.7405
  179SLPC  H13Y20510   1.035   4.421   9.399  0.6682 -0.5031 -0.0626
  179SLPC  C31420511   0.917   4.492   9.232 -1.2683 -0.0211 -0.9200
  179SLPC  H14X20512   0.978   4.583   9.214 -0.2859 -0.7174 -1.1568
  179SLPC  H14Y20513   0.817   4.540   9.226 -1.2843 -0.1970 -2.4500
  179SLPC  C31520514   0.964   4.382   9.136 -0.1290 -0.8208  0.2283
  179SLPC  H15X20515   0.919   4.281   9.151 -0.7915 -0.6559 -0.5482
  179SLPC  H15Y20516   1.071   4.360   9.152 -0.1343 -0.4155  0.8319
  179SLPC  C31620517   0.945   4.428   8.997  0.4729 -0.3203  0.1850
  179SLPC  H16X20518   1.019   4.372   8.936  1.4947 -0.4249  1.4777
  179SLPC  H16Y20519   0.975   4.531   8.966  0.3500 -1.2606 -3.5216
  179SLPC  C31720520   0.801   4.418   8.949  0.1798  0.2647  0.3019
  179SLPC  H17X20521   0.735   4.485   9.009 -0.0661  1.1490 -0.9216
  179SLPC  H17Y20522   0.768   4.319   8.985 -0.1207  0.5874  0.9300
  179SLPC  C31820523   0.777   4.438   8.801  0.2531 -0.3467 -1.3901
  179SLPC  H18X20524   0.792   4.544   8.775  1.8370 -0.5511 -1.3980
  179SLPC  H18Y20525   0.669   4.423   8.780 -0.6173 -0.0258  2.2621
  179SLPC  H18Z20526   0.844   4.379   8.734  1.3618 -1.6469  0.7380
  180SLPC     N20527   2.139   1.598  10.815  0.4591 -0.0108 -0.5799
  180SLPC   C1320528   2.264   1.601  10.887 -0.2204  0.8195  0.0527
  180SLPC  H13A20529   2.291   1.705  10.898  1.4087  0.3876  0.4192
  180SLPC  H13B20530   2.255   1.556  10.985 -0.6556  0.9063  0.0516
  180SLPC  H13C20531   2.342   1.541  10.842 -0.2050  1.0033 -0.1663
  180SLPC   C1420532   2.041   1.650  10.919 -0.2649 -0.1975 -0.5287
  180SLPC  H14A20533   2.074   1.743  10.964 -4.6929  1.6067 -0.4220
  180SLPC  H14B20534   1.937   1.655  10.890 -0.5625 -0.8910  0.3646
  180SLPC  H14C20535   2.046   1.580  11.001 -1.3994 -1.0569 -1.1612
  180SLPC   C1520536   2.097   1.458  10.781  0.0973 -0.6433  0.1979
  180SLPC  H15A20537   2.099   1.406  10.876  1.7121 -0.7149  0.1576
  180SLPC  H15B20538   1.995   1.464  10.746  0.5237  1.3376 -0.8655
  180SLPC  H15C20539   2.165   1.404  10.717 -0.0642 -2.5541  1.5597
  180SLPC   C1220540   2.141   1.691  10.694  0.0860  0.4128  0.0671
  180SLPC  H12A20541   2.038   1.707  10.666 -0.2296 -1.0900  0.2388
  180SLPC  H12B20542   2.187   1.632  10.616 -0.7165 -0.6636  0.3729
  180SLPC   C1120543   2.210   1.833  10.714  0.7021 -0.0520 -0.0973
  180SLPC  H11A20544   2.239   1.859  10.610  0.1083 -1.8044 -0.7470
  180SLPC  H11B20545   2.304   1.816  10.771 -1.4782 -2.5771  3.1565
  180SLPC     P20546   2.126   2.053  10.846  0.3051  0.0332  0.1115
  180SLPC   O1320547   1.995   2.123  10.868  0.0678  0.8024  0.3101
  180SLPC   O1420548   2.201   2.027  10.962 -0.8967  0.1511 -0.2523
  180SLPC   O1220549   2.106   1.916  10.773  0.5996 -1.3319  0.0715
  180SLPC   O1120550   2.214   2.131  10.740  0.3137 -0.4528  0.6393
  180SLPC    C120551   2.144   2.218  10.649  0.3888 -0.2558 -0.0646
  180SLPC    HA20552   2.051   2.263  10.689 -0.4719 -0.9311 -1.2464
  180SLPC    HB20553   2.206   2.310  10.640 -0.4446  0.3251  0.0337
  180SLPC    C220554   2.142   2.167  10.507  0.2559 -0.0894  0.1856
  180SLPC    HS20555   2.238   2.112  10.503  2.6282  3.7608 -1.3745
  180SLPC   O2120556   2.157   2.278  10.416 -0.8646  0.1642 -0.2790
  180SLPC   C2120557   2.282   2.323  10.394 -0.3814 -0.2214  0.3238
  180SLPC   O2220558   2.383   2.294  10.465  0.1892  0.3720  0.9885
  180SLPC   C2220559   2.278   2.422  10.279  0.6902 -0.0735 -0.4179
  180SLPC   H2R20560   2.185   2.478  10.305  1.7027  0.6132  2.0843
  180SLPC   H2S20561   2.366   2.490  10.283  0.0405  0.7813 -0.2293
  180SLPC    C320562   2.022   2.073  10.482 -0.3630  0.1661 -0.2539
  180SLPC    HX20563   1.932   2.128  10.517 -2.2954 -1.0809 -2.9105
  180SLPC    HY20564   2.034   1.981  10.544  2.2704  0.3541 -0.3581
  180SLPC   O3120565   2.021   2.032  10.345  0.7709  0.1041  0.6409
  180SLPC   C3120566   1.918   2.090  10.277  0.2569  0.5173  0.2285
  180SLPC   O3220567   1.856   2.189  10.318 -0.1610  1.0075  0.6281
  180SLPC   C3220568   1.905   2.029  10.133 -0.0297  0.2167 -0.4827
  180SLPC   H2X20569   1.850   1.933  10.125  1.0402 -0.3866 -0.7320
  180SLPC   H2Y20570   2.010   2.012  10.103  0.1439  1.7643 -0.8612
  180SLPC   C2320571   2.272   2.349  10.145 -0.0402  0.3058  0.1321
  180SLPC   H3R20572   2.190   2.276  10.160 -1.1933  1.6122  0.3753
  180SLPC   H3S20573   2.358   2.282  10.121 -1.3709 -1.5101  0.1857
  180SLPC   C2420574   2.228   2.430  10.015 -0.7005  0.0261  0.3068
  180SLPC   H4R20575   2.275   2.530  10.009  2.9484 -1.5433  0.3222
  180SLPC   H4S20576   2.119   2.450  10.018 -1.1806 -2.1689 -0.4831
  180SLPC   C2520577   2.279   2.355   9.883  1.1736 -0.2414 -0.4026
  180SLPC   H5R20578   2.237   2.252   9.885 -0.7411  0.4791 -0.8143
  180SLPC   H5S20579   2.388   2.337   9.885  1.4742  1.4133 -0.4296
  180SLPC   C2620580   2.246   2.410   9.747  0.2125  0.2680  0.1952
  180SLPC   H6R20581   2.306   2.370   9.662 -1.6384  1.1928 -1.6299
  180SLPC   H6S20582   2.277   2.516   9.759  2.9110 -0.3421 -0.5868
  180SLPC   C2720583   2.098   2.404   9.700 -0.7795 -0.2807  0.1046
  180SLPC   H7R20584   2.033   2.430   9.787 -0.5786  1.8971 -0.3468
  180SLPC   H7S20585   2.078   2.304   9.657 -0.2119 -0.3177 -0.0806
  180SLPC   C2820586   2.050   2.511   9.601 -0.0694  0.4229  0.5842
  180SLPC   H8R20587   2.089   2.608   9.639 -0.5487  1.1288 -0.6709
  180SLPC   H8S20588   1.939   2.514   9.597 -0.0778 -0.5267 -0.3784
  180SLPC   C2920589   2.121   2.495   9.467  0.1906 -0.0385 -0.0257
  180SLPC   H9R20590   2.220   2.447   9.474 -0.7884 -2.0303  0.7400
  180SLPC  C21020591   2.074   2.538   9.346  0.1059 -0.5657 -0.0780
  180SLPC  H10R20592   2.140   2.529   9.258 -1.4729  1.8523 -1.6235
  180SLPC  C21120593   1.938   2.608   9.325  0.1828 -0.4228  0.2346
  180SLPC  H11R20594   1.950   2.718   9.332  1.3002 -0.3103 -2.3319
  180SLPC  H11S20595   1.857   2.584   9.396 -0.3611 -1.3475 -0.6723
  180SLPC  C21220596   1.884   2.585   9.182  0.3570 -0.2969 -0.1089
  180SLPC  H12R20597   1.942   2.512   9.125  1.5743  0.9259 -0.5049
  180SLPC  C21320598   1.790   2.662   9.123  0.0521  0.1368 -0.2043
  180SLPC  H13R20599   1.758   2.616   9.029  0.3875  0.2082 -0.3516
  180SLPC  C21420600   1.705   2.765   9.184 -0.1983  0.2439 -0.0764
  180SLPC  H14R20601   1.748   2.855   9.136  1.0075 -1.4595 -2.3679
  180SLPC  H14S20602   1.727   2.767   9.293  2.1087 -0.9934 -0.4570
  180SLPC  C21520603   1.552   2.742   9.167  0.0930  0.5923 -0.1944
  180SLPC  H15R20604   1.494   2.820   9.222 -1.5881 -0.5617 -0.2678
  180SLPC  H15S20605   1.523   2.639   9.196  0.5427 -0.5640 -3.4046
  180SLPC  C21620606   1.500   2.763   9.018  0.6320  0.0704 -0.4500
  180SLPC  H16R20607   1.557   2.692   8.954  0.6965  0.8042 -1.2158
  180SLPC  H16S20608   1.509   2.869   8.987  2.1061  0.8307  2.2327
  180SLPC  C21720609   1.351   2.736   9.016 -0.2666 -0.0810  0.5398
  180SLPC  H17R20610   1.296   2.819   9.065  0.1864  0.3571  0.3140
  180SLPC  H17S20611   1.322   2.649   9.079 -1.7086  0.4322  0.6338
  180SLPC  C21820612   1.304   2.717   8.878  0.1482 -0.5586  0.3007
  180SLPC  H18R20613   1.309   2.802   8.807 -0.3492 -2.6109 -2.3734
  180SLPC  H18S20614   1.202   2.674   8.873  0.6159 -1.8600  1.3223
  180SLPC  H18T20615   1.357   2.632   8.829 -1.4183 -1.4336  0.0732
  180SLPC   C3320616   1.840   2.125  10.033 -0.2086 -0.1350 -0.1831
  180SLPC   H3X20617   1.877   2.227  10.058  0.3775 -0.2519 -0.5571
  180SLPC   H3Y20618   1.730   2.120  10.042 -0.3115  0.4655 -0.9526
  180SLPC   C3420619   1.878   2.095   9.890 -0.4016 -0.1234 -0.3515
  180SLPC   H4X20620   1.916   1.991   9.884  1.6665  0.6436 -2.2392
  180SLPC   H4Y20621   1.958   2.166   9.858  0.1892 -0.6762 -0.1139
  180SLPC   C3520622   1.764   2.122   9.789  0.4151  0.0494 -0.2206
  180SLPC   H5X20623   1.718   2.217   9.825  0.2352 -0.2597  0.3863
  180SLPC   H5Y20624   1.687   2.042   9.789 -0.0414  0.4810  0.0730
  180SLPC   C3620625   1.810   2.143   9.645 -0.4544 -0.0246 -1.0144
  180SLPC   H6X20626   1.857   2.052   9.603 -2.5094 -1.2357 -0.8771
  180SLPC   H6Y20627   1.881   2.228   9.643  1.3885 -1.4937 -2.5205
  180SLPC   C3720628   1.691   2.186   9.552 -0.0427 -0.1889 -0.0664
  180SLPC   H7X20629   1.630   2.260   9.609  0.0012 -0.1182 -0.1113
  180SLPC   H7Y20630   1.635   2.091   9.540  2.0949 -1.9722  2.8471
  180SLPC   C3820631   1.723   2.250   9.419  0.2619 -0.1346  0.4382
  180SLPC   H8X20632   1.787   2.175   9.367 -2.7850  0.2106 -4.4192
  180SLPC   H8Y20633   1.780   2.345   9.420  0.2178 -0.0924 -0.3197
  180SLPC   C3920634   1.600   2.254   9.327 -0.7419 -0.1088 -0.0510
  180SLPC   H9X20635   1.530   2.332   9.364  0.4930  2.2337 -2.2966
  180SLPC   H9Y20636   1.561   2.151   9.312 -0.2175 -0.5144  1.2863
  180SLPC  C31020637   1.637   2.290   9.183 -0.2896 -0.2891  0.1461
  180SLPC  H10X20638   1.719   2.228   9.143  1.4203  0.6032  2.0666
  180SLPC  H10Y20639   1.669   2.397   9.182  1.0772 -0.6655  0.9251
  180SLPC  C31120640   1.517   2.284   9.088  0.5169  0.0907 -0.0969
  180SLPC  H11X20641   1.442   2.356   9.129 -0.3972  0.0386 -1.5964
  180SLPC  H11Y20642   1.478   2.181   9.104  0.7989  0.0538  0.3646
  180SLPC  C31220643   1.549   2.301   8.947  0.2611 -0.0292  0.3904
  180SLPC  H12X20644   1.606   2.212   8.911 -0.3113  0.0135 -0.6444
  180SLPC  H12Y20645   1.621   2.385   8.934  1.8426 -1.4408 -0.4363
  180SLPC  C31320646   1.431   2.329   8.854 -0.5289 -0.1021  0.1500
  180SLPC  H13X20647   1.371   2.419   8.880  0.1986  0.7759 -1.0798
  180SLPC  H13Y20648   1.355   2.248   8.859 -0.6598  0.1098  2.3541
  180SLPC  C31420649   1.470   2.360   8.705  0.1218  0.1043  0.5066
  180SLPC  H14X20650   1.525   2.273   8.664  0.2470 -1.2068  3.2511
  180SLPC  H14Y20651   1.542   2.445   8.703 -1.2469  1.3706  1.8278
  180SLPC  C31520652   1.350   2.396   8.622 -0.3340  0.2869 -0.0821
  180SLPC  H15X20653   1.279   2.471   8.663 -0.2252 -0.2205  1.0680
  180SLPC  H15Y20654   1.296   2.299   8.614  0.5681 -0.3291  1.0768
  180SLPC  C31620655   1.385   2.422   8.475  0.5069 -0.2887  0.4193
  180SLPC  H16X20656   1.446   2.340   8.432 -0.5021 -1.0052  0.3042
  180SLPC  H16Y20657   1.450   2.511   8.474 -0.1656  0.2099 -1.0079
  180SLPC  C31720658   1.265   2.438   8.383  0.4681  0.4286  0.0358
  180SLPC  H17X20659   1.194   2.516   8.416 -0.2376  0.0613 -0.5869
  180SLPC  H17Y20660   1.216   2.338   8.377  0.0766  0.6276 -0.1160
  180SLPC  C31820661   1.316   2.480   8.242  0.0373  0.7913  0.3180
  180SLPC  H18X20662   1.346   2.587   8.244 -0.3365  0.9042  0.0006
  180SLPC  H18Y20663   1.234   2.464   8.169  0.6699 -2.5089  0.2030
  180SLPC  H18Z20664   1.404   2.417   8.218 -0.1332  1.4764 -2.4552
  181SLPC     N20665   5.504   5.299  10.963 -0.1070  0.1881 -0.1629
  181SLPC   C1320666   5.455   5.291  11.102  0.0948 -0.0844 -0.0699
  181SLPC  H13A20667   5.347   5.296  11.093  0.1699 -0.2903 -1.2152
  181SLPC  H13B20668   5.484   5.195  11.143  0.7859 -1.1194 -2.7913
  181SLPC  H13C20669   5.497   5.367  11.167  0.8829 -2.0696  1.8888
  181SLPC   C1420670   5.655   5.307  10.961 -0.0766  0.0158  0.0420
  181SLPC  H14A20671   5.699   5.232  11.025  0.9197 -1.2578 -2.0074
  181SLPC  H14B20672   5.697   5.292  10.862 -0.6079 -1.6940  0.0470
  181SLPC  H14C20673   5.684   5.401  11.007 -2.7192  1.7881 -1.6277
  181SLPC   C1520674   5.454   5.420  10.893  0.7296 -0.1218 -0.0901
  181SLPC  H15A20675   5.347   5.431  10.891  0.6599 -0.3370  1.3160
  181SLPC  H15B20676   5.483   5.511  10.944  1.9309  0.2825 -1.4173
  181SLPC  H15C20677   5.506   5.431  10.799  2.2563  1.3143  0.8668
  181SLPC   C1220678   5.466   5.178  10.876  0.0755  0.5567 -0.2708
  181SLPC  H12A20679   5.490   5.204  10.774  0.5731  0.3978 -0.1945
  181SLPC  H12B20680   5.358   5.178  10.879  0.0121 -1.0313 -1.1617
  181SLPC   C1120681   5.512   5.037  10.924  0.3308 -0.0970 -0.1579
  181SLPC  H11A20682   5.622   5.040  10.932  0.3063  0.2505  0.0479
  181SLPC  H11B20683   5.497   4.974  10.834 -0.2641 -0.9934  0.5388
  181SLPC     P20684   5.309   4.919  11.031 -0.3502  0.4751  0.3217
  181SLPC   O1320685   5.326   4.793  10.950  0.0738 -0.0378 -0.8966
  181SLPC   O1420686   5.254   4.893  11.166  0.2785 -0.2031 -0.5994
  181SLPC   O1220687   5.451   4.991  11.047  0.5255 -0.2499 -0.1783
  181SLPC   O1120688   5.229   5.034  10.951 -0.5312  0.0947 -0.1592
  181SLPC    C120689   5.124   4.988  10.865 -0.4013 -0.0810 -0.2601
  181SLPC    HA20690   5.095   4.881  10.870  1.1454 -0.5510 -0.5663
  181SLPC    HB20691   5.029   5.033  10.898 -1.0861 -1.4806 -0.2347
  181SLPC    C220692   5.152   5.034  10.714 -0.2774 -0.3002  0.6610
  181SLPC    HS20693   5.069   4.992  10.652  0.7696 -0.6651 -0.5318
  181SLPC   O2120694   5.280   4.994  10.674 -0.4116 -0.0604  0.4573
  181SLPC   C2120695   5.291   4.873  10.619 -0.4275  0.9639  0.1341
  181SLPC   O2220696   5.194   4.804  10.584 -0.1453  0.0058  0.3241
  181SLPC   C2220697   5.443   4.828  10.602 -0.3121  0.8069 -0.0347
  181SLPC   H2R20698   5.501   4.912  10.559 -0.3862  0.1876 -1.3792
  181SLPC   H2S20699   5.480   4.793  10.701 -0.6617 -0.2915 -0.2768
  181SLPC    C320700   5.133   5.188  10.717  0.4917  0.5723 -0.3632
  181SLPC    HX20701   5.234   5.232  10.728  0.0929  1.8616 -1.6114
  181SLPC    HY20702   5.078   5.217  10.809 -0.5746 -1.9732 -0.0985
  181SLPC   O3120703   5.069   5.252  10.602 -0.2512  0.1071 -0.0712
  181SLPC   C3120704   4.932   5.241  10.607 -0.5022  0.9057  0.2739
  181SLPC   O3220705   4.870   5.177  10.692  0.6736  0.3338 -0.4155
  181SLPC   C3220706   4.864   5.323  10.495 -0.5186  0.8175 -0.3654
  181SLPC   H2X20707   4.902   5.427  10.499  0.6143  0.4492 -1.1355
  181SLPC   H2Y20708   4.756   5.336  10.519 -0.5762  0.3518 -0.3511
  181SLPC   C2320709   5.468   4.709  10.506  0.6454  0.0429 -0.1349
  181SLPC   H3R20710   5.402   4.627  10.540  0.5355  0.3751  0.4629
  181SLPC   H3S20711   5.575   4.683  10.516  1.2455  1.1458 -2.8037
  181SLPC   C2420712   5.438   4.727  10.358 -0.6321 -0.3884  0.4439
  181SLPC   H4R20713   5.338   4.773  10.349 -0.5890  0.1285  2.1907
  181SLPC   H4S20714   5.442   4.626  10.310  0.3277  0.2047 -0.7880
  181SLPC   C2520715   5.554   4.808  10.305 -0.6674  0.3428 -0.7791
  181SLPC   H5R20716   5.647   4.763  10.345 -2.2909 -1.5939  1.1198
  181SLPC   H5S20717   5.545   4.906  10.356  0.3731 -1.2201  2.7189
  181SLPC   C2620718   5.555   4.812  10.154  0.7035 -0.0314  0.2539
  181SLPC   H6R20719   5.466   4.863  10.112  1.6848  1.1281 -0.4982
  181SLPC   H6S20720   5.554   4.705  10.126 -0.0101 -0.3014  1.2978
  181SLPC   C2720721   5.682   4.876  10.091  0.5371  0.5028 -0.3606
  181SLPC   H7R20722   5.763   4.805  10.116 -1.5635 -1.5998  0.9018
  181SLPC   H7S20723   5.706   4.977  10.132  4.3770 -0.7372  0.9017
  181SLPC   C2820724   5.688   4.882   9.936 -0.2424 -0.1290  0.0339
  181SLPC   H8R20725   5.781   4.918   9.887  0.7724 -4.3645 -1.6130
  181SLPC   H8S20726   5.607   4.952   9.908 -1.2451 -1.1775  0.2570
  181SLPC   C2920727   5.653   4.745   9.876 -0.2833 -0.8065 -0.2529
  181SLPC   H9R20728   5.701   4.664   9.932 -0.0900 -1.0419 -0.7519
  181SLPC  C21020729   5.585   4.721   9.763  1.1426 -0.5164 -0.2042
  181SLPC  H10R20730   5.558   4.622   9.722 -0.0280 -1.6009  2.9034
  181SLPC  C21120731   5.514   4.828   9.684 -0.5417 -0.7239 -0.2399
  181SLPC  H11R20732   5.475   4.907   9.751  2.8159 -1.9671  3.5511
  181SLPC  H11S20733   5.437   4.784   9.617 -1.8255  0.6338  0.2742
  181SLPC  C21220734   5.615   4.903   9.602 -0.4501 -0.0511 -0.2290
  181SLPC  H12R20735   5.679   4.976   9.654 -2.0017  1.7025 -0.6990
  181SLPC  C21320736   5.623   4.903   9.470  0.6931  0.3243  0.4903
  181SLPC  H13R20737   5.709   4.951   9.421  0.7698 -0.5394 -0.2340
  181SLPC  C21420738   5.530   4.831   9.379  0.0727  0.1783  0.1403
  181SLPC  H14R20739   5.445   4.894   9.344  0.4180 -0.1821 -1.4284
  181SLPC  H14S20740   5.486   4.743   9.430 -1.6029  1.2551  0.6522
  181SLPC  C21520741   5.595   4.781   9.252  0.0015 -0.0123  0.4683
  181SLPC  H15R20742   5.675   4.706   9.269  1.4847  1.5503  0.6319
  181SLPC  H15S20743   5.631   4.865   9.188  2.4025 -0.2780  1.3489
  181SLPC  C21620744   5.497   4.698   9.169  0.3854  0.4907 -0.2359
  181SLPC  H16R20745   5.437   4.634   9.238  0.0161  0.0558 -0.9477
  181SLPC  H16S20746   5.559   4.634   9.103  1.6167  2.1673 -0.7711
  181SLPC  C21720747   5.406   4.787   9.086 -0.6363  0.0958 -0.7405
  181SLPC  H17R20748   5.457   4.877   9.044  2.3650 -0.2892  1.7384
  181SLPC  H17S20749   5.326   4.825   9.152  0.3111 -0.0390  0.5102
  181SLPC  C21820750   5.336   4.701   8.976  0.1439  0.3558  0.0381
  181SLPC  H18R20751   5.254   4.637   9.015  0.7369  0.2360  1.1220
  181SLPC  H18S20752   5.408   4.654   8.906 -1.2674 -1.2792 -0.3912
  181SLPC  H18T20753   5.287   4.775   8.910  1.3027  0.2903 -0.9492
  181SLPC   C3320754   4.877   5.266  10.360  0.3938 -0.4776 -0.2568
  181SLPC   H3X20755   4.828   5.166  10.355 -1.7341  0.5313 -0.6132
  181SLPC   H3Y20756   4.982   5.236  10.336  0.0575 -1.4996 -0.5356
  181SLPC   C3420757   4.830   5.357  10.250  0.3173  0.5497 -0.7504
  181SLPC   H4X20758   4.725   5.384  10.272  0.9930  2.0317  0.8576
  181SLPC   H4Y20759   4.823   5.293  10.159 -1.2054 -1.3797  0.6385
  181SLPC   C3520760   4.923   5.477  10.219  0.2326  0.1094  0.3474
  181SLPC   H5X20761   5.032   5.456  10.222  0.2531 -1.3839 -3.9304
  181SLPC   H5Y20762   4.898   5.551  10.299 -1.5338  1.0168 -0.9708
  181SLPC   C3620763   4.899   5.536  10.075 -0.4016 -0.5713  0.6746
  181SLPC   H6X20764   4.940   5.464  10.001  1.4557  0.6315  0.4686
  181SLPC   H6Y20765   4.959   5.628  10.066 -1.9312  0.6605  2.2626
  181SLPC   C3720766   4.759   5.570  10.042 -0.0669 -0.5050 -0.3029
  181SLPC   H7X20767   4.723   5.628  10.129  0.2037  0.5835 -0.9061
  181SLPC   H7Y20768   4.689   5.484  10.038 -0.6054 -0.0773 -0.0522
  181SLPC   C3820769   4.732   5.654   9.918 -0.1320 -0.4823 -0.4023
  181SLPC   H8X20770   4.782   5.752   9.936 -0.7422 -0.2951  0.3243
  181SLPC   H8Y20771   4.626   5.685   9.924  0.2829  0.8916  0.5999
  181SLPC   C3920772   4.771   5.586   9.789 -0.7929  0.2170  0.4259
  181SLPC   H9X20773   4.736   5.483   9.809  1.4194 -0.5899  0.4881
  181SLPC   H9Y20774   4.881   5.567   9.782 -0.5777 -0.4734  3.8123
  181SLPC  C31020775   4.714   5.621   9.647 -0.2357  0.0221 -0.1233
  181SLPC  H10X20776   4.736   5.729   9.631  0.0978  0.3249  2.0645
  181SLPC  H10Y20777   4.604   5.607   9.653 -0.3197  0.9827  1.0416
  181SLPC  C31120778   4.765   5.537   9.529  0.2022  0.5908 -0.8934
  181SLPC  H11X20779   4.725   5.434   9.538  0.4137  0.6857  2.1136
  181SLPC  H11Y20780   4.875   5.527   9.521  0.2245 -0.3096  0.2368
  181SLPC  C31220781   4.726   5.602   9.393  0.2301  0.4088 -0.0643
  181SLPC  H12X20782   4.780   5.697   9.373  5.1495 -2.3184 -1.2075
  181SLPC  H12Y20783   4.616   5.617   9.394  0.4544  2.5042 -0.7755
  181SLPC  C31320784   4.758   5.511   9.274 -0.1566 -0.1439  0.8810
  181SLPC  H13X20785   4.689   5.424   9.270  0.3580 -0.5270 -1.4662
  181SLPC  H13Y20786   4.863   5.474   9.272  0.1423  0.6855 -0.5378
  181SLPC  C31420787   4.755   5.591   9.136  0.0610  0.1827 -0.2607
  181SLPC  H14X20788   4.814   5.529   9.065 -0.1735  0.1094 -0.3926
  181SLPC  H14Y20789   4.819   5.682   9.140  2.3675 -1.2821 -1.3483
  181SLPC  C31520790   4.617   5.629   9.087 -0.4149 -0.4104  0.7406
  181SLPC  H15X20791   4.561   5.714   9.132  0.2515  1.9619 -2.5692
  181SLPC  H15Y20792   4.558   5.534   9.091 -0.1656 -0.5288  2.2789
  181SLPC  C31620793   4.636   5.677   8.944  0.6744  0.3024  0.1273
  181SLPC  H16X20794   4.648   5.584   8.884 -0.6620 -0.7701  1.4286
  181SLPC  H16Y20795   4.727   5.740   8.936  1.0875 -0.0865  1.4844
  181SLPC  C31720796   4.522   5.771   8.892  0.1812 -0.5909  0.8093
  181SLPC  H17X20797   4.500   5.849   8.969 -0.9590  0.2946 -0.3590
  181SLPC  H17Y20798   4.431   5.710   8.871 -0.8086  1.3602 -0.9793
  181SLPC  C31820799   4.547   5.846   8.759 -0.2971 -0.1390  0.4734
  181SLPC  H18X20800   4.620   5.928   8.780 -0.5407  0.1581  0.1663
  181SLPC  H18Y20801   4.448   5.886   8.731 -0.7559 -1.1187  0.6549
  181SLPC  H18Z20802   4.572   5.778   8.675 -0.8249 -0.6304  0.7081
  182SLPC     N20803   3.694   6.215  10.755 -0.4449 -0.5672 -0.5825
  182SLPC   C1320804   3.579   6.132  10.742  0.4038 -0.0897  0.5470
  182SLPC  H13A20805   3.573   6.042  10.802 -1.8068 -0.2693  0.1587
  182SLPC  H13B20806   3.490   6.191  10.759 -2.1230 -3.4099 -0.1493
  182SLPC  H13C20807   3.562   6.105  10.639 -0.2049  1.0979  0.3177
  182SLPC   C1420808   3.803   6.152  10.672 -0.1878  0.9498 -0.0139
  182SLPC  H14A20809   3.840   6.058  10.710  1.7196  0.3891 -2.9331
  182SLPC  H14B20810   3.773   6.124  10.572  0.4543 -1.4327  0.4034
  182SLPC  H14C20811   3.891   6.213  10.659  1.3313 -1.0800  0.2855
  182SLPC   C1520812   3.735   6.238  10.896 -0.0584 -0.2878  1.1077
  182SLPC  H15A20813   3.768   6.150  10.948  2.9227  0.5409  0.8185
  182SLPC  H15B20814   3.812   6.315  10.891 -3.2846  3.1583 -1.7128
  182SLPC  H15C20815   3.651   6.276  10.952 -1.7619 -1.7316 -0.3514
  182SLPC   C1220816   3.663   6.355  10.705  0.5530  0.2864  0.6146
  182SLPC  H12A20817   3.589   6.398  10.771  0.5121  1.1260  0.0474
  182SLPC  H12B20818   3.610   6.339  10.613 -0.0402 -1.2484  1.2012
  182SLPC   C1120819   3.769   6.462  10.701  0.1306  0.6483 -0.1893
  182SLPC  H11A20820   3.734   6.561  10.665  1.1795  1.7205  1.6084
  182SLPC  H11B20821   3.841   6.427  10.623  1.3184 -0.6947  1.4383
  182SLPC     P20822   3.818   6.593  10.919  0.4306  0.1374 -0.1786
  182SLPC   O1320823   3.682   6.570  10.974 -0.6983  0.1353  0.0308
  182SLPC   O1420824   3.928   6.617  11.016  0.1140  0.0419 -0.3361
  182SLPC   O1220825   3.849   6.477  10.815  0.4246 -0.5626 -0.1425
  182SLPC   O1120826   3.792   6.721  10.822 -0.0860  0.0126  0.0889
  182SLPC    C120827   3.906   6.776  10.755  0.4930  0.1141  0.5698
  182SLPC    HA20828   3.926   6.876  10.798  1.8289  0.2661 -0.3646
  182SLPC    HB20829   4.002   6.721  10.765  0.5504  0.1761  0.3476
  182SLPC    C220830   3.856   6.786  10.605 -0.9794  0.0386  0.2177
  182SLPC    HS20831   3.846   6.683  10.566 -0.0445 -0.3559  0.9838
  182SLPC   O2120832   3.943   6.876  10.531  0.1873  0.7933  0.5185
  182SLPC   C2120833   4.036   6.809  10.466  0.1198  0.3196  0.6355
  182SLPC   O2220834   4.051   6.686  10.476  0.5809  0.2643 -0.2096
  182SLPC   C2220835   4.108   6.894  10.363 -0.5171 -0.3946 -0.3775
  182SLPC   H2R20836   4.032   6.918  10.286  0.3295  0.8524 -0.8459
  182SLPC   H2S20837   4.137   6.992  10.407 -2.1613  0.0250 -0.1661
  182SLPC    C320838   3.716   6.842  10.602 -0.9572  0.1516  0.3063
  182SLPC    HX20839   3.729   6.937  10.659  0.1593  0.2381 -0.0806
  182SLPC    HY20840   3.642   6.775  10.651 -0.0303 -1.8454 -0.8864
  182SLPC   O3120841   3.674   6.884  10.467  0.1142  0.2041 -0.2048
  182SLPC   C3120842   3.636   6.779  10.394  0.5126 -0.0045 -0.2185
  182SLPC   O3220843   3.638   6.662  10.442 -0.3059  0.2494 -0.4919
  182SLPC   C3220844   3.588   6.808  10.247 -0.1316  0.0882  0.5098
  182SLPC   H2X20845   3.648   6.896  10.216  1.6033 -0.6577  1.5827
  182SLPC   H2Y20846   3.484   6.846  10.249  0.4572  1.7796  0.2141
  182SLPC   C2320847   4.234   6.819  10.320 -0.0537  0.7840 -0.2689
  182SLPC   H3R20848   4.213   6.733  10.252  0.9396  2.0291 -2.2456
  182SLPC   H3S20849   4.279   6.779  10.413  0.4832  1.3974 -0.2610
  182SLPC   C2420850   4.327   6.911  10.230  0.3943  0.6707  0.0210
  182SLPC   H4R20851   4.409   6.853  10.183 -1.2139 -2.1001  0.4127
  182SLPC   H4S20852   4.364   6.989  10.300 -0.3354  1.7154 -0.7069
  182SLPC   C2520853   4.254   6.998  10.120  0.0664  0.8286 -0.1439
  182SLPC   H5R20854   4.338   7.060  10.082  0.2411  1.7497  1.6253
  182SLPC   H5S20855   4.196   7.074  10.176  2.0139  1.3915  1.2297
  182SLPC   C2620856   4.196   6.918  10.009  0.3615  0.9278 -0.5679
  182SLPC   H6R20857   4.137   6.842  10.064 -0.0188  0.7424 -1.2262
  182SLPC   H6S20858   4.275   6.876   9.943  0.5281  1.5962 -0.8061
  182SLPC   C2720859   4.091   6.990   9.928  0.3661 -0.1648 -0.7771
  182SLPC   H7R20860   4.006   7.017   9.993  0.1685  0.3470 -1.2469
  182SLPC   H7S20861   4.050   6.923   9.848 -0.6647 -1.3849  0.7162
  182SLPC   C2820862   4.138   7.119   9.854  0.1373 -0.2862 -0.1013
  182SLPC   H8R20863   4.181   7.180   9.936 -0.2274  0.5859 -0.5546
  182SLPC   H8S20864   4.048   7.161   9.805 -0.6053 -2.9959 -1.2770
  182SLPC   C2920865   4.242   7.079   9.751  0.0466  0.3866  0.2493
  182SLPC   H9R20866   4.340   7.040   9.781  1.4587  2.3775 -1.4881
  182SLPC  C21020867   4.223   7.091   9.620 -0.1022 -0.8298  0.3183
  182SLPC  H10R20868   4.301   7.051   9.555  0.0422 -0.1865  0.0858
  182SLPC  C21120869   4.102   7.148   9.547  0.3880 -0.1988  0.5116
  182SLPC  H11R20870   4.133   7.225   9.473 -1.7240  0.7157  0.5255
  182SLPC  H11S20871   4.032   7.204   9.612 -0.9080  0.8610 -1.6771
  182SLPC  C21220872   4.025   7.038   9.474  0.2716 -1.1410 -0.0225
  182SLPC  H12R20873   3.979   6.969   9.547  1.2764 -0.3472  1.4100
  182SLPC  C21320874   4.005   7.013   9.340  0.3367 -0.1749 -0.0916
  182SLPC  H13R20875   3.947   6.925   9.308  0.6245 -0.5107  0.2932
  182SLPC  C21420876   4.053   7.088   9.221  0.5487  0.5124  0.0986
  182SLPC  H14R20877   4.125   7.169   9.247  0.1529  0.1062  2.7373
  182SLPC  H14S20878   3.964   7.143   9.182  1.2752  1.2477 -0.5640
  182SLPC  C21520879   4.093   6.996   9.110  0.4252  0.8951  0.9308
  182SLPC  H15R20880   4.016   6.926   9.070  0.2597  0.3261  2.1982
  182SLPC  H15S20881   4.168   6.920   9.143 -0.3079  0.0361  0.6552
  182SLPC  C21620882   4.147   7.085   8.992 -0.3770  0.2565 -0.3779
  182SLPC  H16R20883   4.219   7.159   9.034 -0.2309 -0.2458  0.2805
  182SLPC  H16S20884   4.059   7.138   8.950 -0.4636  1.7766  1.5977
  182SLPC  C21720885   4.212   7.006   8.881 -0.1100 -0.3204 -0.0917
  182SLPC  H17R20886   4.148   6.925   8.839  0.2783  0.0654 -1.4994
  182SLPC  H17S20887   4.300   6.960   8.931 -0.3747 -1.8202 -0.9653
  182SLPC  C21820888   4.272   7.090   8.765  0.5137 -0.5332  0.0608
  182SLPC  H18R20889   4.193   7.135   8.700  0.2972 -1.3643 -0.2604
  182SLPC  H18S20890   4.329   7.018   8.703 -2.5746 -1.9315 -1.3601
  182SLPC  H18T20891   4.344   7.170   8.795 -1.2176  1.5402 -1.0134
  182SLPC   C3320892   3.606   6.683  10.166 -0.9116  0.5115 -0.2379
  182SLPC   H3X20893   3.570   6.597  10.226  2.2876 -2.2901 -2.0049
  182SLPC   H3Y20894   3.713   6.655  10.158 -1.3597 -0.9597 -1.6035
  182SLPC   C3420895   3.533   6.668  10.031  0.5362 -0.0847 -0.0697
  182SLPC   H4X20896   3.423   6.677  10.044  0.5165 -1.7881  1.3176
  182SLPC   H4Y20897   3.552   6.564   9.996 -0.5209 -0.3663  0.1554
  182SLPC   C3520898   3.580   6.765   9.924 -0.6994  0.2415 -0.2420
  182SLPC   H5X20899   3.690   6.755   9.910 -0.4165  0.0566  1.7806
  182SLPC   H5Y20900   3.564   6.869   9.959  4.8698  1.8141 -1.3938
  182SLPC   C3620901   3.529   6.731   9.786  0.7075 -0.0152  0.4025
  182SLPC   H6X20902   3.418   6.730   9.783  0.6454 -3.0084 -3.3085
  182SLPC   H6Y20903   3.541   6.623   9.763 -1.8418 -0.4343  0.6378
  182SLPC   C3720904   3.585   6.834   9.681  0.5399  0.2669 -1.3584
  182SLPC   H7X20905   3.694   6.852   9.693  0.5885  0.3774 -1.9319
  182SLPC   H7Y20906   3.551   6.936   9.710 -0.6455 -0.7205  0.9289
  182SLPC   C3820907   3.568   6.797   9.536  0.3275  0.1440 -0.4714
  182SLPC   H8X20908   3.460   6.805   9.514  0.8673  1.8537 -2.9746
  182SLPC   H8Y20909   3.605   6.693   9.531  0.2025 -0.0379  1.4325
  182SLPC   C3920910   3.643   6.890   9.437 -0.6347  0.2072 -0.3732
  182SLPC   H9X20911   3.751   6.865   9.444 -0.5448  0.3789 -1.0618
  182SLPC   H9Y20912   3.618   6.997   9.455 -1.4508 -0.1646  0.8342
  182SLPC  C31020913   3.601   6.856   9.293 -0.7472 -0.0530 -0.0594
  182SLPC  H10X20914   3.491   6.860   9.283 -0.5872  2.1384 -1.4201
  182SLPC  H10Y20915   3.633   6.755   9.259 -1.8285  0.1256 -1.6765
  182SLPC  C31120916   3.652   6.953   9.188  0.5495 -0.0046 -0.2450
  182SLPC  H11X20917   3.762   6.957   9.203  0.5696  1.9046 -0.7055
  182SLPC  H11Y20918   3.624   7.059   9.204  1.5337  0.2416 -0.0530
  182SLPC  C31220919   3.619   6.901   9.050  0.4376  0.5035 -0.0543
  182SLPC  H12X20920   3.658   6.797   9.052  0.2509  0.4345  1.8981
  182SLPC  H12Y20921   3.690   6.959   8.988  1.0387  0.1875  0.3342
  182SLPC  C31320922   3.471   6.920   9.019  0.1279  0.4770  0.3662
  182SLPC  H13X20923   3.424   7.020   9.035 -2.6171 -0.7230  0.2978
  182SLPC  H13Y20924   3.408   6.856   9.085 -2.4326 -0.8225 -3.0544
  182SLPC  C31420925   3.427   6.873   8.875 -0.7367 -0.3697  0.5861
  182SLPC  H14X20926   3.317   6.856   8.869 -1.0552  0.7553  2.3872
  182SLPC  H14Y20927   3.481   6.778   8.860  2.1609  0.9495  1.9404
  182SLPC  C31520928   3.468   6.975   8.765 -0.1791 -0.0319 -0.8652
  182SLPC  H15X20929   3.578   6.984   8.752 -0.2443  1.4470 -0.5580
  182SLPC  H15Y20930   3.429   7.076   8.789  1.9128  0.6971 -0.2650
  182SLPC  C31620931   3.421   6.950   8.617  0.1132 -0.4252  0.6959
  182SLPC  H16X20932   3.469   7.029   8.556 -2.0670 -0.0957 -0.7294
  182SLPC  H16Y20933   3.311   6.965   8.619  0.4373  2.5555  0.3645
  182SLPC  C31720934   3.466   6.811   8.562  0.4401  0.0859  0.0679
  182SLPC  H17X20935   3.426   6.742   8.639  1.3765  2.9868  3.4011
  182SLPC  H17Y20936   3.576   6.817   8.578  0.4173 -0.3644  0.4036
  182SLPC  C31820937   3.441   6.778   8.410 -0.2303 -0.0239 -0.4005
  182SLPC  H18X20938   3.449   6.668   8.399 -0.0820  0.2335 -4.8453
  182SLPC  H18Y20939   3.516   6.823   8.341 -0.6362  1.1067 -0.1295
  182SLPC  H18Z20940   3.338   6.816   8.391 -0.8350 -2.2154 -1.8786
  183SLPC     N20941   4.214   0.593  10.796 -0.3844  0.5858  0.0928
  183SLPC   C1320942   4.208   0.710  10.890 -0.4683 -0.0024 -0.0425
  183SLPC  H13A20943   4.175   0.685  10.990  1.4001 -0.1762  0.5809
  183SLPC  H13B20944   4.312   0.739  10.890 -0.5536  0.6095  2.7155
  183SLPC  H13C20945   4.137   0.779  10.848 -0.2241 -0.0571 -0.5519
  183SLPC   C1420946   4.081   0.525  10.776  0.6748  0.3146  0.9256
  183SLPC  H14A20947   4.092   0.441  10.709 -0.9987 -0.7713  1.9424
  183SLPC  H14B20948   4.045   0.505  10.876  0.6033  1.9808  1.2671
  183SLPC  H14C20949   4.015   0.587  10.717 -0.4504 -0.2427  1.5524
  183SLPC   C1520950   4.303   0.489  10.860 -1.0438  0.6271  0.4164
  183SLPC  H15A20951   4.404   0.522  10.882 -0.8350 -0.4684  1.2178
  183SLPC  H15B20952   4.264   0.457  10.956  0.3004 -0.1252  0.7454
  183SLPC  H15C20953   4.318   0.408  10.790 -1.3519  1.6220 -0.8193
  183SLPC   C1220954   4.268   0.632  10.663 -0.4671  0.7206 -0.2291
  183SLPC  H12A20955   4.278   0.545  10.600  0.2525  0.1620  0.6401
  183SLPC  H12B20956   4.367   0.676  10.674 -1.6875  3.6030  0.1651
  183SLPC   C1120957   4.191   0.727  10.571  0.3001 -1.2670 -0.3375
  183SLPC  H11A20958   4.086   0.701  10.548 -0.8459  1.5753  1.2681
  183SLPC  H11B20959   4.245   0.719  10.474 -0.5707  1.3973 -1.1060
  183SLPC     P20960   4.324   0.952  10.575 -0.1124  0.6618 -0.5521
  183SLPC   O1320961   4.331   1.073  10.664 -0.0646  0.6105 -0.3358
  183SLPC   O1420962   4.446   0.863  10.576 -0.0685 -0.4355  0.0103
  183SLPC   O1220963   4.204   0.862  10.628  0.4929 -0.0742 -0.0951
  183SLPC   O1120964   4.289   0.987  10.425  0.4037  0.2956 -0.1384
  183SLPC    C120965   4.153   1.010  10.399 -0.2001  0.1631  0.0483
  183SLPC    HA20966   4.094   0.925  10.440 -0.5011  0.3029 -0.0896
  183SLPC    HB20967   4.123   1.108  10.444 -0.0212  0.8010 -1.1844
  183SLPC    C220968   4.136   1.019  10.250 -0.5415  0.5713 -0.0729
  183SLPC    HS20969   4.035   1.059  10.224 -0.0911  2.4778  0.9813
  183SLPC   O2120970   4.160   0.883  10.196 -0.1534 -0.1096 -0.1887
  183SLPC   C2120971   4.058   0.802  10.202 -0.1395  0.0152 -0.8959
  183SLPC   O2220972   3.948   0.830  10.242 -0.5080 -0.1364  0.1374
  183SLPC   C2220973   4.094   0.671  10.143 -0.2844  0.2376  0.0113
  183SLPC   H2R20974   4.203   0.670  10.122 -0.0422  0.7891  1.1726
  183SLPC   H2S20975   4.067   0.602  10.227  2.1546  1.7124  2.1483
  183SLPC    C320976   4.235   1.126  10.192 -0.5784 -0.8262  0.1424
  183SLPC    HX20977   4.335   1.092  10.226 -1.3610 -2.1265  1.2289
  183SLPC    HY20978   4.216   1.220  10.249  0.9784 -0.7914  0.6548
  183SLPC   O3120979   4.205   1.132  10.050  0.2567  0.1804 -0.6062
  183SLPC   C3120980   4.306   1.100   9.965  0.3329 -1.2130 -0.4694
  183SLPC   O3220981   4.416   1.058   9.998  0.2182  0.2579  0.1076
  183SLPC   C3220982   4.252   1.127   9.823 -0.4644 -0.1842 -0.3293
  183SLPC   H2X20983   4.216   1.232   9.833 -1.7444 -0.7147  0.9287
  183SLPC   H2Y20984   4.162   1.065   9.803 -2.9410  3.0830 -0.1594
  183SLPC   C2320985   4.012   0.638  10.019  0.3222 -0.9993  0.0659
  183SLPC   H3R20986   3.908   0.617  10.050 -0.3173 -0.0051 -1.3044
  183SLPC   H3S20987   4.049   0.545   9.970  0.2135 -0.1454 -1.7083
  183SLPC   C2420988   4.014   0.742   9.904 -0.0858 -0.8779 -0.6376
  183SLPC   H4R20989   4.120   0.776   9.905  0.8838 -3.6555  0.2504
  183SLPC   H4S20990   3.957   0.835   9.926  0.9814 -0.3214 -0.1589
  183SLPC   C2520991   3.966   0.698   9.764  0.2382  0.1322 -0.7414
  183SLPC   H5R20992   3.855   0.695   9.764  0.2003  0.2053  1.7957
  183SLPC   H5S20993   4.013   0.603   9.730  1.3706  0.8626 -1.2735
  183SLPC   C2620994   4.010   0.802   9.659 -0.6781 -0.3202  0.0665
  183SLPC   H6R20995   4.120   0.802   9.676 -1.0779  0.2790  3.3038
  183SLPC   H6S20996   3.974   0.906   9.669 -0.3487 -0.2537  0.5992
  183SLPC   C2720997   3.967   0.765   9.515 -0.2656  0.8369 -0.1451
  183SLPC   H7R20998   3.858   0.779   9.497 -0.6566 -2.0521 -0.4416
  183SLPC   H7S20999   4.005   0.663   9.496  0.8901  1.2984 -0.4225
  183SLPC   C2821000   4.042   0.854   9.410  0.0624 -1.1217  0.2835
  183SLPC   H8R21001   4.029   0.816   9.306  0.1708 -1.8146  0.5184
  183SLPC   H8S21002   4.151   0.851   9.431 -0.1943  0.3202  1.9847
  183SLPC   C2921003   4.003   1.000   9.417 -0.2269 -0.2359  1.0260
  183SLPC   H9R21004   4.011   1.046   9.517 -1.1732 -0.3071  1.1436
  183SLPC  C21021005   3.943   1.070   9.316  0.1405  0.5880  0.4722
  183SLPC  H10R21006   3.918   1.176   9.332  1.0346  1.0580 -1.0296
  183SLPC  C21121007   3.915   1.031   9.172 -0.4632  0.0915  0.2895
  183SLPC  H11R21008   3.805   1.026   9.152 -0.6646 -2.2111  1.6407
  183SLPC  H11S21009   3.934   0.924   9.149 -2.8126 -0.0949 -1.1602
  183SLPC  C21221010   3.991   1.115   9.071  0.2134  0.5738  0.8239
  183SLPC  H12R21011   4.092   1.082   9.045  0.2333  2.7087 -2.3251
  183SLPC  C21321012   3.949   1.220   8.994  0.1264  0.0916 -0.6196
  183SLPC  H13R21013   4.009   1.281   8.925 -2.0121 -1.5305 -4.2984
  183SLPC  C21421014   3.805   1.266   9.002 -1.3293  0.6349 -0.1576
  183SLPC  H14R21015   3.808   1.373   9.031  1.5745  0.4292  0.5901
  183SLPC  H14S21016   3.752   1.206   9.080  4.1663 -4.6200  0.2168
  183SLPC  C21521017   3.728   1.243   8.868  0.3084  0.6783  0.2060
  183SLPC  H15R21018   3.622   1.267   8.890 -0.1648 -1.4546  0.4247
  183SLPC  H15S21019   3.748   1.134   8.860  0.2374  0.4973  1.9808
  183SLPC  C21621020   3.783   1.319   8.745 -0.0045  0.6677 -0.2411
  183SLPC  H16R21021   3.883   1.272   8.735 -0.9966 -2.4249  2.5968
  183SLPC  H16S21022   3.808   1.425   8.764  1.6358  0.2270  0.2174
  183SLPC  C21721023   3.706   1.307   8.612 -0.1274  0.0805 -0.5622
  183SLPC  H17R21024   3.613   1.366   8.628  1.2908  2.0615  1.0664
  183SLPC  H17S21025   3.671   1.203   8.595  0.1645 -0.0542 -0.3506
  183SLPC  C21821026   3.786   1.365   8.498 -0.5581  0.0573  0.0654
  183SLPC  H18R21027   3.812   1.473   8.498 -2.1808  0.4952 -1.7866
  183SLPC  H18S21028   3.720   1.351   8.409 -0.7352 -3.1812  0.5708
  183SLPC  H18T21029   3.877   1.302   8.487 -1.1251 -0.8052  0.2441
  183SLPC   C3321030   4.359   1.111   9.714  0.3664  0.1182  1.0280
  183SLPC   H3X21031   4.387   1.004   9.717 -0.0743 -0.0914 -0.8911
  183SLPC   H3Y21032   4.456   1.163   9.728  1.9196 -2.5268  0.7080
  183SLPC   C3421033   4.304   1.149   9.573 -0.4175 -0.0050 -0.5355
  183SLPC   H4X21034   4.264   1.252   9.574  0.2807  0.2919 -1.6376
  183SLPC   H4Y21035   4.218   1.087   9.540 -1.3581  1.5071 -0.9633
  183SLPC   C3521036   4.414   1.130   9.467  0.6329 -0.1145 -0.2638
  183SLPC   H5X21037   4.460   1.029   9.466 -0.5630 -0.8077  2.8876
  183SLPC   H5Y21038   4.488   1.208   9.494  0.1755  0.1929  0.1316
  183SLPC   C3621039   4.351   1.153   9.330  0.1586  0.1993  0.1803
  183SLPC   H6X21040   4.316   1.256   9.306 -0.3520 -0.5005 -2.4976
  183SLPC   H6Y21041   4.262   1.090   9.307 -1.9308  2.5329  1.3960
  183SLPC   C3721042   4.449   1.115   9.219 -0.1977  0.3279  0.0637
  183SLPC   H7X21043   4.496   1.018   9.247  0.0286  0.3685 -0.1707
  183SLPC   H7Y21044   4.514   1.205   9.214  0.2705 -0.0886 -2.1537
  183SLPC   C3821045   4.390   1.106   9.077 -0.5140  0.2383  0.5944
  183SLPC   H8X21046   4.334   1.198   9.051 -0.9857  0.2034  1.4583
  183SLPC   H8Y21047   4.315   1.024   9.089 -0.4197  0.5041  3.8993
  183SLPC   C3921048   4.505   1.083   8.968  0.6771  0.5177 -0.0784
  183SLPC   H9X21049   4.545   0.981   8.985  1.4474  0.2698 -2.8191
  183SLPC   H9Y21050   4.579   1.163   8.987  0.9576  0.8792 -2.3764
  183SLPC  C31021051   4.452   1.080   8.823 -0.3583 -0.0214  0.1348
  183SLPC  H10X21052   4.432   1.183   8.787  0.8291  0.0053 -0.4939
  183SLPC  H10Y21053   4.356   1.025   8.817 -0.8181  0.7252  0.5257
  183SLPC  C31121054   4.546   1.019   8.725  0.2655  0.1590  0.3647
  183SLPC  H11X21055   4.496   1.028   8.626 -1.8343  4.6509  1.5879
  183SLPC  H11Y21056   4.565   0.912   8.751  3.2452 -0.0302 -2.0407
  183SLPC  C31221057   4.685   1.097   8.714 -0.0101 -0.3689  0.4684
  183SLPC  H12X21058   4.733   1.099   8.814 -1.9933  0.0408  1.4715
  183SLPC  H12Y21059   4.658   1.202   8.692 -3.2276 -0.6978  2.1669
  183SLPC  C31321060   4.786   1.028   8.620  0.1292 -0.2684 -0.2746
  183SLPC  H13X21061   4.801   0.934   8.677 -1.5166  0.7804  2.0632
  183SLPC  H13Y21062   4.871   1.099   8.616  0.1472 -0.1029  1.8928
  183SLPC  C31421063   4.738   0.993   8.474 -0.4228  0.0609 -0.5966
  183SLPC  H14X21064   4.719   1.094   8.434  0.8446 -0.6504 -3.1905
  183SLPC  H14Y21065   4.638   0.944   8.477 -0.5182  0.2932  0.1038
  183SLPC  C31521066   4.847   0.912   8.400  0.4190 -0.0681  0.2417
  183SLPC  H15X21067   4.895   0.840   8.471  0.7876 -0.6176 -0.5468
  183SLPC  H15Y21068   4.929   0.978   8.366  2.1047 -2.1958 -0.1018
  183SLPC  C31621069   4.808   0.838   8.269  0.5125 -0.2093 -0.3408
  183SLPC  H16X21070   4.771   0.922   8.207  1.7742 -0.0458 -0.8869
  183SLPC  H16Y21071   4.734   0.761   8.301  1.4390 -0.9630  0.0159
  183SLPC  C31721072   4.921   0.769   8.200  0.0486  0.1673  0.5327
  183SLPC  H17X21073   4.964   0.690   8.265 -2.3396 -1.3680  0.3531
  183SLPC  H17Y21074   4.995   0.845   8.166  0.2829 -0.6318 -0.8299
  183SLPC  C31821075   4.880   0.681   8.082 -0.4490  0.0567 -0.5135
  183SLPC  H18X21076   4.784   0.631   8.107  0.8943 -2.4977 -0.1888
  183SLPC  H18Y21077   4.954   0.600   8.069  1.1667  1.7053 -2.3456
  183SLPC  H18Z21078   4.868   0.738   7.988 -0.3748 -2.7009 -2.3012
  184SLPC     N21079   0.387   6.161  10.791 -1.1481 -0.1632 -0.3567
  184SLPC   C1321080   0.245   6.198  10.791 -0.6102 -0.1377  0.5742
  184SLPC  H13A21081   0.185   6.121  10.743  1.2376  0.2039 -2.5940
  184SLPC  H13B21082   0.223   6.234  10.890  0.7504  1.4326  0.3475
  184SLPC  H13C21083   0.227   6.285  10.729  0.6489 -0.4863 -0.3270
  184SLPC   C1421084   0.466   6.282  10.833 -0.3507  0.2535 -0.6360
  184SLPC  H14A21085   0.572   6.261  10.830 -0.2540 -0.3195  2.6954
  184SLPC  H14B21086   0.463   6.368  10.768  1.5273  1.1362  0.3404
  184SLPC  H14C21087   0.439   6.308  10.935  1.4459  0.3509 -0.1525
  184SLPC   C1521088   0.426   6.133  10.653 -0.4463  0.3264  0.0385
  184SLPC  H15A21089   0.390   6.034  10.629  0.1593 -0.5527  2.5128
  184SLPC  H15B21090   0.389   6.208  10.584  2.6649  0.8803 -1.1920
  184SLPC  H15C21091   0.532   6.139  10.634 -0.4843 -0.3932 -0.4626
  184SLPC   C1221092   0.420   6.037  10.873 -0.4392 -0.2944 -0.2251
  184SLPC  H12A21093   0.437   6.057  10.978 -0.9313 -1.8753  0.1832
  184SLPC  H12B21094   0.515   5.999  10.839 -0.7592 -1.5879  0.2858
  184SLPC   C1121095   0.324   5.912  10.869  1.2806 -0.1355  0.2476
  184SLPC  H11A21096   0.233   5.940  10.927  0.9283 -0.9164  0.0849
  184SLPC  H11B21097   0.365   5.825  10.925 -0.5864 -0.4915  1.1315
  184SLPC     P21098   0.372   5.771  10.649  0.0333 -0.1731  0.6973
  184SLPC   O1321099   0.502   5.830  10.615 -0.0239  0.1990 -0.2782
  184SLPC   O1421100   0.372   5.635  10.712 -0.1868  0.1238 -0.1440
  184SLPC   O1221101   0.281   5.874  10.733  0.3226 -0.0789 -0.6321
  184SLPC   O1121102   0.282   5.752  10.514  0.4323  0.2928 -0.1777
  184SLPC    C121103   0.249   5.877  10.445  0.6774  0.3034  1.3319
  184SLPC    HA21104   0.152   5.911  10.488 -1.6497 -1.6918 -1.9691
  184SLPC    HB21105   0.332   5.949  10.468  0.0790  0.4848  3.1265
  184SLPC    C221106   0.240   5.864  10.289  0.2879  0.2830 -0.1849
  184SLPC    HS21107   0.190   5.956  10.251 -0.8932  0.3811  1.5032
  184SLPC   O2121108   0.163   5.751  10.256  0.3673 -0.1193 -0.2768
  184SLPC   C2121109   0.028   5.776  10.246 -0.7491  0.0533 -0.3635
  184SLPC   O2221110  -0.020   5.886  10.268  0.3287 -0.0354  0.1025
  184SLPC   C2221111  -0.050   5.658  10.197  0.6518  0.5132  0.0375
  184SLPC   H2R21112   0.013   5.572  10.164 -2.4543 -2.0066  0.2407
  184SLPC   H2S21113  -0.124   5.626  10.273 -1.3935  0.1891 -1.9924
  184SLPC    C321114   0.382   5.854  10.213  1.0470  0.4168 -0.3169
  184SLPC    HX21115   0.430   5.756  10.232 -0.9397 -0.8860 -1.7113
  184SLPC    HY21116   0.438   5.946  10.241 -0.8613  1.8054 -0.8583
  184SLPC   O3121117   0.363   5.874  10.070 -0.2364  0.4308 -0.1154
  184SLPC   C3121118   0.377   5.766   9.989  0.9340  0.1533 -0.0003
  184SLPC   O3221119   0.417   5.657  10.016  0.2323  0.1294 -0.1726
  184SLPC   C3221120   0.338   5.798   9.843  0.5745  0.1645  0.0527
  184SLPC   H2X21121   0.390   5.892   9.815 -0.5929  0.7208 -0.3104
  184SLPC   H2Y21122   0.230   5.825   9.849  0.7123  0.5071  1.3042
  184SLPC   C2321123  -0.136   5.720  10.083  0.1923 -0.1986 -0.4517
  184SLPC   H3R21124  -0.076   5.794  10.026  2.7209 -2.0352 -0.3759
  184SLPC   H3S21125  -0.223   5.775  10.123  3.3353  5.1032  0.0188
  184SLPC   C2421126  -0.184   5.611   9.985 -0.6274 -0.4243 -0.4918
  184SLPC   H4R21127  -0.290   5.627   9.953 -0.1038 -0.6706 -2.4908
  184SLPC   H4S21128  -0.187   5.517  10.044 -3.9470  0.6786  1.3594
  184SLPC   C2521129  -0.095   5.604   9.860  0.0517 -0.3878 -0.5036
  184SLPC   H5R21130   0.014   5.600   9.883  0.1349  0.1087 -0.7929
  184SLPC   H5S21131  -0.088   5.693   9.793  3.5588 -0.8897 -0.9916
  184SLPC   C2621132  -0.118   5.462   9.804  0.0253  0.7874 -0.2061
  184SLPC   H6R21133  -0.223   5.427   9.805 -0.8423  2.7722 -3.5955
  184SLPC   H6S21134  -0.073   5.385   9.870  1.7393  2.1938  0.3337
  184SLPC   C2721135  -0.065   5.457   9.657  0.4757  0.1938  0.3031
  184SLPC   H7R21136  -0.035   5.356   9.622 -0.6039 -0.3966  1.0309
  184SLPC   H7S21137   0.028   5.518   9.656 -0.0798  1.0707 -0.8732
  184SLPC   C2821138  -0.164   5.523   9.564  0.7527  0.0357 -0.0798
  184SLPC   H8R21139  -0.239   5.578   9.625 -0.7255  2.7282 -3.9337
  184SLPC   H8S21140  -0.219   5.444   9.508  2.6682 -0.9181 -0.7028
  184SLPC   C2921141  -0.099   5.604   9.458  0.3604 -0.2237  1.3860
  184SLPC   H9R21142  -0.036   5.682   9.503  1.7634 -0.7479  0.4104
  184SLPC  C21021143  -0.109   5.602   9.323  0.3168 -0.9131 -0.2844
  184SLPC  H10R21144  -0.040   5.672   9.274 -2.8389  2.0533 -0.9158
  184SLPC  C21121145  -0.196   5.528   9.225  0.4238 -0.1171  0.5057
  184SLPC  H11R21146  -0.252   5.600   9.162 -0.2107 -0.8604  0.1975
  184SLPC  H11S21147  -0.270   5.466   9.280  0.6532 -1.3575 -0.5217
  184SLPC  C21221148  -0.103   5.429   9.151 -0.0766 -0.2211 -0.7577
  184SLPC  H12R21149  -0.033   5.376   9.217  0.4775  0.3380 -0.8774
  184SLPC  C21321150  -0.108   5.411   9.018 -0.1896  1.0094 -0.0190
  184SLPC  H13R21151  -0.029   5.358   8.964  0.8389  1.6699  0.8113
  184SLPC  C21421152  -0.195   5.493   8.929  0.0441  0.0548  0.2501
  184SLPC  H14R21153  -0.170   5.601   8.931  1.9261 -0.2975 -1.0725
  184SLPC  H14S21154  -0.298   5.489   8.968 -0.0447  2.4364  0.4299
  184SLPC  C21521155  -0.192   5.441   8.782  0.3742  0.1456 -0.0759
  184SLPC  H15R21156  -0.251   5.500   8.708  0.1911  0.9507  0.6928
  184SLPC  H15S21157  -0.222   5.335   8.767 -1.6761  0.9494 -2.3025
  184SLPC  C21621158  -0.051   5.450   8.721  0.2117  0.2147  0.3156
  184SLPC  H16R21159   0.027   5.398   8.780  1.0596  2.5113  1.3634
  184SLPC  H16S21160  -0.024   5.558   8.724  1.1046 -0.0232  1.2468
  184SLPC  C21721161  -0.044   5.395   8.582 -0.6097  0.1432 -0.4406
  184SLPC  H17R21162   0.055   5.427   8.543 -0.8753  1.3961 -0.1359
  184SLPC  H17S21163  -0.122   5.420   8.507 -0.0105 -0.5933 -1.3281
  184SLPC  C21821164  -0.046   5.239   8.579  0.3678 -0.3657  0.1298
  184SLPC  H18R21165   0.046   5.200   8.627  1.5125  0.4814 -1.2616
  184SLPC  H18S21166  -0.031   5.207   8.473 -2.5305  3.0404 -1.5184
  184SLPC  H18T21167  -0.142   5.200   8.617 -0.4477  0.1603 -1.2960
  184SLPC   C3321168   0.322   5.680   9.740  0.0571 -0.3619 -0.2705
  184SLPC   H3X21169   0.240   5.608   9.759 -0.3390  0.2140  0.2475
  184SLPC   H3Y21170   0.417   5.622   9.743 -0.7648 -1.7258  1.6609
  184SLPC   C3421171   0.297   5.743   9.597 -0.1831 -0.4810 -0.4351
  184SLPC   H4X21172   0.376   5.814   9.564  0.1733 -0.9427 -0.5869
  184SLPC   H4Y21173   0.203   5.801   9.594 -0.3195 -0.6963 -0.3824
  184SLPC   C3521174   0.300   5.636   9.486  0.3050  0.1453  0.2870
  184SLPC   H5X21175   0.228   5.552   9.495 -1.9801  1.5349 -2.9996
  184SLPC   H5Y21176   0.400   5.587   9.485  0.8761  1.2478 -1.1388
  184SLPC   C3621177   0.295   5.698   9.341 -0.2873  0.9747  0.3386
  184SLPC   H6X21178   0.388   5.756   9.318 -0.7806  1.7630  0.2653
  184SLPC   H6Y21179   0.219   5.780   9.342 -0.5088  0.7830  2.1657
  184SLPC   C3721180   0.274   5.603   9.227  0.0476  0.3961 -0.4290
  184SLPC   H7X21181   0.177   5.548   9.232  1.5979 -2.4119  2.7620
  184SLPC   H7Y21182   0.342   5.517   9.248 -1.2312 -0.0057  2.7149
  184SLPC   C3821183   0.298   5.662   9.087 -0.6972 -0.0909  0.3878
  184SLPC   H8X21184   0.394   5.718   9.089  0.2301 -1.6585  1.5642
  184SLPC   H8Y21185   0.225   5.744   9.075 -0.5612 -0.1954 -1.4391
  184SLPC   C3921186   0.292   5.565   8.970 -0.4694  0.3813  0.0415
  184SLPC   H9X21187   0.185   5.550   8.945 -1.2179  1.4524  2.4003
  184SLPC   H9Y21188   0.346   5.474   9.005 -1.6572 -0.3313  0.0609
  184SLPC  C31021189   0.356   5.627   8.848 -0.6633  0.4195  0.5691
  184SLPC  H10X21190   0.456   5.659   8.883 -0.3778 -1.8507  1.9989
  184SLPC  H10Y21191   0.302   5.717   8.810 -0.4903  0.5951  0.7376
  184SLPC  C31121192   0.374   5.543   8.724 -0.9510  0.3969  0.0356
  184SLPC  H11X21193   0.277   5.508   8.683 -0.9667  0.6147 -0.1105
  184SLPC  H11Y21194   0.442   5.458   8.748 -0.7239  0.1734 -1.3513
  184SLPC  C31221195   0.450   5.625   8.621 -0.9140 -0.1441 -0.0835
  184SLPC  H12X21196   0.510   5.711   8.658  0.1975 -1.4535  1.3025
  184SLPC  H12Y21197   0.373   5.677   8.561  0.7483  2.0771 -0.4486
  184SLPC  C31321198   0.542   5.542   8.520 -0.0837  0.2148 -1.1338
  184SLPC  H13X21199   0.478   5.494   8.443 -0.8116 -2.0360  0.7516
  184SLPC  H13Y21200   0.583   5.452   8.571 -1.5254 -0.8444 -1.7745
  184SLPC  C31421201   0.658   5.622   8.466 -0.3571  0.7628 -1.0810
  184SLPC  H14X21202   0.628   5.718   8.420  0.4366  0.7127 -1.7334
  184SLPC  H14Y21203   0.697   5.563   8.380 -1.1143  0.9365 -1.5552
  184SLPC  C31521204   0.774   5.650   8.567  0.1888 -0.5821 -0.1675
  184SLPC  H15X21205   0.868   5.618   8.517 -0.3992 -1.4212 -0.7819
  184SLPC  H15Y21206   0.765   5.576   8.650  2.7907  1.8492  2.4693
  184SLPC  C31621207   0.780   5.804   8.591 -0.6528  0.0594  0.3621
  184SLPC  H16X21208   0.687   5.839   8.640 -0.3056  0.8538  0.4713
  184SLPC  H16Y21209   0.794   5.851   8.491  0.2552 -1.6394 -0.3528
  184SLPC  C31721210   0.901   5.849   8.676 -0.3504  0.3147 -0.2010
  184SLPC  H17X21211   0.903   5.960   8.664 -1.3532  0.3391 -0.2824
  184SLPC  H17Y21212   0.987   5.799   8.628 -0.2581  0.1115  0.1775
  184SLPC  C31821213   0.899   5.804   8.820  0.0324 -0.2548 -0.0812
  184SLPC  H18X21214   0.816   5.855   8.875 -0.2339  0.9890 -1.5649
  184SLPC  H18Y21215   0.990   5.837   8.875 -0.7527 -0.1925  1.2314
  184SLPC  H18Z21216   0.899   5.694   8.833  0.2031 -0.3038 -0.4812
  185SLPC     N21217   5.529   1.944   6.412 -0.2334 -0.2496  0.6932
  185SLPC   C1321218   5.449   1.960   6.285  0.0904  1.2832  0.3738
  185SLPC  H13A21219   5.507   1.943   6.196  0.7017 -0.9707  1.1438
  185SLPC  H13B21220   5.374   1.883   6.292  2.7376 -1.4675  0.4001
  185SLPC  H13C21221   5.386   2.048   6.287 -2.5181 -0.4115 -1.5337
  185SLPC   C1421222   5.564   1.803   6.432 -0.4228  0.5583  0.0163
  185SLPC  H14A21223   5.476   1.741   6.432 -0.1118  0.0351  2.4598
  185SLPC  H14B21224   5.637   1.771   6.358  0.0027  1.6694 -0.0697
  185SLPC  H14C21225   5.608   1.774   6.526 -1.1596  0.1179  0.2309
  185SLPC   C1521226   5.448   1.985   6.532 -0.0245  0.2777  0.2240
  185SLPC  H15A21227   5.353   1.934   6.537  0.2437 -0.9335 -3.7290
  185SLPC  H15B21228   5.503   1.963   6.622  1.7069 -1.9091 -1.2682
  185SLPC  H15C21229   5.440   2.092   6.519  1.9232  0.4497  0.2166
  185SLPC   C1221230   5.657   2.027   6.393 -0.4620 -1.0104  0.3078
  185SLPC  H12A21231   5.638   2.132   6.380  1.0421 -0.6175  1.1015
  185SLPC  H12B21232   5.707   1.996   6.303 -1.9960 -1.4423 -0.4342
  185SLPC   C1121233   5.754   2.025   6.512  0.2242  0.8698 -0.2782
  185SLPC  H11A21234   5.705   2.078   6.595 -3.2058 -1.9774 -0.2544
  185SLPC  H11B21235   5.837   2.092   6.481  1.6495 -1.0223 -0.8015
  185SLPC     P21236   5.949   1.852   6.477  0.1091 -0.0867 -0.3426
  185SLPC   O1321237   5.942   1.715   6.414  0.3456  0.1994 -0.2269
  185SLPC   O1421238   5.996   1.961   6.391  0.1862  0.0602 -0.0971
  185SLPC   O1221239   5.806   1.895   6.537  0.7395 -0.1308 -0.3969
  185SLPC   O1121240   6.044   1.852   6.599  0.2482  0.1110  0.0143
  185SLPC    C121241   6.111   1.737   6.652  0.4048 -0.5540  0.2632
  185SLPC    HA21242   6.139   1.667   6.571  0.1321  0.3089 -0.6027
  185SLPC    HB21243   6.196   1.772   6.715  0.6313  0.7063 -0.6963
  185SLPC    C221244   6.023   1.662   6.755  0.1900  0.4633  0.6388
  185SLPC    HS21245   5.925   1.643   6.706 -0.5683  0.9882  1.9074
  185SLPC   O2121246   6.008   1.740   6.872  0.4005  0.1226 -0.1305
  185SLPC   C2121247   5.901   1.713   6.941  0.1981  0.5798 -0.3540
  185SLPC   O2221248   5.824   1.622   6.920 -0.4910  0.5201  0.1376
  185SLPC   C2221249   5.881   1.816   7.049 -0.5005 -0.2164  0.1713
  185SLPC   H2R21250   5.983   1.856   7.068 -1.3950  2.0293  0.4754
  185SLPC   H2S21251   5.834   1.902   6.997 -0.7234 -0.3942  0.0780
  185SLPC    C321252   6.083   1.524   6.800 -0.1573 -0.5483 -0.0417
  185SLPC    HX21253   6.082   1.453   6.715  0.2044 -1.3515  0.6147
  185SLPC    HY21254   6.010   1.474   6.867 -2.5296 -0.2158 -2.2194
  185SLPC   O3121255   6.217   1.534   6.857 -0.2171  0.5670  0.3447
  185SLPC   C3121256   6.224   1.546   6.996 -0.2631 -0.4825  0.5454
  185SLPC   O3221257   6.147   1.508   7.080  0.5929  0.8978  0.4342
  185SLPC   C3221258   6.366   1.598   7.030  0.1574 -1.0290  0.3377
  185SLPC   H2X21259   6.434   1.546   6.960 -0.0586 -0.2328 -0.4761
  185SLPC   H2Y21260   6.381   1.561   7.134 -2.0037  0.4379  1.2647
  185SLPC   C2321261   5.802   1.768   7.170 -0.4928  0.2542  1.6301
  185SLPC   H3R21262   5.732   1.686   7.143  0.5792 -1.6946  4.2590
  185SLPC   H3S21263   5.736   1.850   7.205  0.8845  1.3191  1.8449
  185SLPC   C2421264   5.895   1.725   7.286  0.2074  0.7144 -0.6523
  185SLPC   H4R21265   5.954   1.815   7.315 -0.4313  0.5833  1.1857
  185SLPC   H4S21266   5.962   1.642   7.256  0.3826  0.4760  0.3624
  185SLPC   C2521267   5.822   1.667   7.411 -0.2029 -0.2644 -0.2867
  185SLPC   H5R21268   5.820   1.557   7.396 -1.1327 -0.0517 -1.9995
  185SLPC   H5S21269   5.734   1.732   7.429  2.1010  2.6666  1.2607
  185SLPC   C2621270   5.913   1.687   7.537  0.3072 -0.4536  0.2074
  185SLPC   H6R21271   6.014   1.647   7.513  1.1432  0.7933  1.4979
  185SLPC   H6S21272   5.865   1.619   7.611 -2.5315 -1.5591 -2.4335
  185SLPC   C2721273   5.923   1.831   7.593 -0.7287  0.2808  0.0027
  185SLPC   H7R21274   5.974   1.914   7.539 -2.5342  1.9069  0.6906
  185SLPC   H7S21275   5.982   1.815   7.686 -2.0530 -2.5929  0.4380
  185SLPC   C2821276   5.785   1.882   7.636  0.2716  0.8102 -0.0409
  185SLPC   H8R21277   5.738   1.793   7.683  0.6271  1.1118  0.9219
  185SLPC   H8S21278   5.716   1.901   7.551  0.7401  0.1885 -0.5724
  185SLPC   C2921279   5.791   1.998   7.732 -0.8528  0.0125 -0.1389
  185SLPC   H9R21280   5.823   2.093   7.686  0.7379  0.1586  1.2073
  185SLPC  C21021281   5.759   1.997   7.860 -0.2474 -0.1351 -0.2445
  185SLPC  H10R21282   5.780   2.093   7.908  0.3566  1.0564 -2.7003
  185SLPC  C21121283   5.709   1.890   7.936 -0.0847  0.2966  0.3012
  185SLPC  H11R21284   5.667   1.816   7.865 -0.7589  0.7756  0.1893
  185SLPC  H11S21285   5.628   1.926   8.003 -0.0884  2.6838 -0.8864
  185SLPC  C21221286   5.821   1.828   8.015  0.4456  0.0834  0.1447
  185SLPC  H12R21287   5.914   1.799   7.964  2.1034 -0.2857  3.1806
  185SLPC  C21321288   5.810   1.801   8.148 -0.4659 -0.0638  0.1241
  185SLPC  H13R21289   5.904   1.770   8.197 -1.2126  0.9091  2.2559
  185SLPC  C21421290   5.689   1.830   8.227  0.6764  0.2809 -0.3124
  185SLPC  H14R21291   5.597   1.782   8.188 -1.1885  3.6001 -0.3509
  185SLPC  H14S21292   5.664   1.938   8.226  1.1627  0.4455  1.4315
  185SLPC  C21521293   5.704   1.804   8.381  0.1167  0.2241 -0.2408
  185SLPC  H15R21294   5.770   1.718   8.405  0.3931  0.6100  0.4105
  185SLPC  H15S21295   5.605   1.787   8.429  1.4127 -0.8732  2.2570
  185SLPC  C21621296   5.767   1.931   8.442  0.1610 -0.4165  0.0717
  185SLPC  H16R21297   5.700   2.014   8.412 -3.9281 -3.7990 -1.1579
  185SLPC  H16S21298   5.864   1.943   8.390 -0.3178  0.6094 -0.5986
  185SLPC  C21721299   5.777   1.917   8.601 -0.2280  0.1331  0.1837
  185SLPC  H17R21300   5.821   1.818   8.627 -1.7244 -0.9943 -1.3833
  185SLPC  H17S21301   5.680   1.923   8.656  1.0826 -1.1137  2.8528
  185SLPC  C21821302   5.869   2.027   8.667  0.4701  0.0829  0.4091
  185SLPC  H18R21303   5.864   2.025   8.778 -2.8413  0.2728  0.3490
  185SLPC  H18S21304   5.820   2.121   8.633  0.3888 -0.2003 -0.2803
  185SLPC  H18T21305   5.972   2.021   8.626  0.3130  1.2015 -0.1926
  185SLPC   C3321306   6.368   1.757   7.029  1.0489  1.0618  0.2221
  185SLPC   H3X21307   6.327   1.788   7.127 -0.9200 -0.4230 -0.0605
  185SLPC   H3Y21308   6.303   1.791   6.946  0.2825 -0.9298 -0.0334
  185SLPC   C3421309   6.513   1.812   7.000  0.7569  0.0681 -0.4137
  185SLPC   H4X21310   6.533   1.830   6.893 -0.8661  1.2262 -0.5610
  185SLPC   H4Y21311   6.577   1.732   7.042 -0.3951 -0.2354  0.8705
  185SLPC   C3521312   6.539   1.936   7.088 -0.3733  0.1354  0.1373
  185SLPC   H5X21313   6.518   1.895   7.189  2.6014 -0.6836  0.5172
  185SLPC   H5Y21314   6.459   2.008   7.060  0.1232 -0.0828 -2.0645
  185SLPC   C3621315   6.679   2.002   7.079  0.2000 -0.1682 -0.9198
  185SLPC   H6X21316   6.707   2.020   6.973  2.2530 -0.3025 -0.4334
  185SLPC   H6Y21317   6.748   1.924   7.116  0.6108  0.7212  0.2697
  185SLPC   C3721318   6.692   2.128   7.172  0.2137 -0.3699  1.2512
  185SLPC   H7X21319   6.612   2.204   7.160  0.1405 -0.6711 -0.3420
  185SLPC   H7Y21320   6.782   2.179   7.131 -1.3574  1.1794 -0.4547
  185SLPC   C3821321   6.715   2.085   7.321 -0.3550  0.3558 -0.4943
  185SLPC   H8X21322   6.824   2.065   7.325 -0.3738  0.3903  0.4308
  185SLPC   H8Y21323   6.655   1.994   7.343 -0.4335  0.7260  0.9268
  185SLPC   C3921324   6.672   2.193   7.423  0.6466  0.1240 -0.1589
  185SLPC   H9X21325   6.561   2.187   7.424  0.6663 -0.5811 -1.1064
  185SLPC   H9Y21326   6.714   2.290   7.390  0.6558 -0.1178 -0.8630
  185SLPC  C31021327   6.712   2.167   7.564  0.2364 -0.9510 -0.6181
  185SLPC  H10X21328   6.822   2.159   7.577  0.1748 -2.9115 -0.9907
  185SLPC  H10Y21329   6.655   2.092   7.622 -1.6031  0.9927  0.2341
  185SLPC  C31121330   6.668   2.290   7.654 -0.3006  0.4592  0.0343
  185SLPC  H11X21331   6.557   2.299   7.659 -0.3910  1.4518 -2.2972
  185SLPC  H11Y21332   6.714   2.385   7.617 -0.3868  0.0586 -1.1354
  185SLPC  C31221333   6.707   2.278   7.809 -0.3954  0.6329  0.0065
  185SLPC  H12X21334   6.709   2.384   7.844  0.2130 -0.0197  2.0601
  185SLPC  H12Y21335   6.814   2.250   7.799  0.3202  3.0044  0.3574
  185SLPC  C31321336   6.620   2.173   7.889 -0.3824  0.0873  0.1670
  185SLPC  H13X21337   6.645   2.071   7.852  1.2892  1.0542 -1.5928
  185SLPC  H13Y21338   6.513   2.199   7.882 -0.3644  1.1355  2.7476
  185SLPC  C31421339   6.652   2.160   8.039 -0.3897 -0.4782  0.5857
  185SLPC  H14X21340   6.635   2.259   8.086 -2.4088  0.0068 -1.0562
  185SLPC  H14Y21341   6.757   2.123   8.044 -1.1226 -3.0981 -1.1998
  185SLPC  C31521342   6.563   2.056   8.104 -0.1036 -0.8264  0.3086
  185SLPC  H15X21343   6.583   1.953   8.066  1.1996 -0.5605  0.2341
  185SLPC  H15Y21344   6.459   2.095   8.099  0.1587 -0.2516 -2.6053
  185SLPC  C31621345   6.608   2.047   8.247 -0.7077  0.7228 -0.6261
  185SLPC  H16X21346   6.591   2.148   8.290  0.0912  0.7790 -0.4150
  185SLPC  H16Y21347   6.712   2.008   8.246 -1.3088 -0.9769 -0.4531
  185SLPC  C31721348   6.514   1.945   8.325 -0.6943  0.1634 -0.2078
  185SLPC  H17X21349   6.415   1.954   8.277 -1.8331 -0.6855  1.8517
  185SLPC  H17Y21350   6.499   1.983   8.429 -0.3662 -0.2858  0.0073
  185SLPC  C31821351   6.561   1.799   8.322  0.3144 -0.0018 -0.1943
  185SLPC  H18X21352   6.481   1.738   8.370  0.3395 -1.6126 -2.1009
  185SLPC  H18Y21353   6.651   1.793   8.387  1.3653  2.4909 -1.2935
  185SLPC  H18Z21354   6.588   1.768   8.219 -0.5960 -1.1236 -0.1114
  186SLPC     N21355   1.313   2.645   6.183  0.0200  0.3184 -0.0126
  186SLPC   C1321356   1.293   2.602   6.043  0.5832 -0.6628 -0.0530
  186SLPC  H13A21357   1.388   2.584   5.995  1.7907  2.1377  1.0199
  186SLPC  H13B21358   1.237   2.510   6.040 -2.4314  1.0578 -0.3661
  186SLPC  H13C21359   1.234   2.681   5.998 -0.6722 -0.5172  1.7510
  186SLPC   C1421360   1.187   2.650   6.263  0.7640 -0.3465  0.6533
  186SLPC  H14A21361   1.213   2.694   6.358  4.8717 -0.8288 -0.0636
  186SLPC  H14B21362   1.107   2.706   6.216  1.4469 -0.9623 -1.3007
  186SLPC  H14C21363   1.161   2.546   6.273  0.6530 -0.5476 -1.3253
  186SLPC   C1521364   1.371   2.784   6.169  0.1472 -0.0057  0.2926
  186SLPC  H15A21365   1.297   2.853   6.132  0.3822 -1.6070 -3.6727
  186SLPC  H15B21366   1.398   2.817   6.268  0.2892 -2.5288  1.1695
  186SLPC  H15C21367   1.458   2.793   6.106  0.7385 -1.1018  0.9240
  186SLPC   C1221368   1.418   2.557   6.248 -0.6145  0.3212  0.7319
  186SLPC  H12A21369   1.439   2.592   6.348 -0.0103 -1.5944  1.3303
  186SLPC  H12B21370   1.511   2.567   6.194 -1.1343  0.8633 -0.0810
  186SLPC   C1121371   1.391   2.411   6.261 -0.0963  0.0666  0.0718
  186SLPC  H11A21372   1.369   2.368   6.161 -0.2677  0.1695  0.0661
  186SLPC  H11B21373   1.304   2.399   6.328  1.2544 -0.4597  1.8151
  186SLPC     P21374   1.594   2.259   6.263 -0.2344 -0.1961  0.1708
  186SLPC   O1321375   1.527   2.130   6.231 -0.2879 -0.0212 -0.0456
  186SLPC   O1421376   1.659   2.334   6.153  0.0598  0.1789 -0.0481
  186SLPC   O1221377   1.497   2.356   6.335  0.1573 -0.4578 -0.0977
  186SLPC   O1121378   1.694   2.233   6.376 -0.9107 -0.1511  0.2371
  186SLPC    C121379   1.832   2.276   6.377 -0.0976 -0.6953  0.1496
  186SLPC    HA21380   1.880   2.280   6.276  0.1526  0.0710  0.2883
  186SLPC    HB21381   1.832   2.378   6.420  0.0860  0.7138 -2.8835
  186SLPC    C221382   1.934   2.194   6.458 -0.1297  0.6583  1.4969
  186SLPC    HS21383   1.950   2.097   6.405 -1.0306  2.4457 -2.3990
  186SLPC   O2121384   1.872   2.176   6.584  0.2363 -0.1097 -0.7311
  186SLPC   C2121385   1.883   2.062   6.646  0.3947  0.0377  1.1830
  186SLPC   O2221386   1.924   1.958   6.606  0.1976 -0.5664  0.2789
  186SLPC   C2221387   1.819   2.085   6.787  0.2273  0.0696  0.6013
  186SLPC   H2R21388   1.709   2.081   6.773  0.2470  0.1026  0.4371
  186SLPC   H2S21389   1.856   2.003   6.853  0.4086 -0.9057 -0.6778
  186SLPC    C321390   2.069   2.259   6.474  0.1556  0.6053  0.0800
  186SLPC    HX21391   2.064   2.362   6.517  0.1415 -0.2271  2.1873
  186SLPC    HY21392   2.128   2.273   6.381  2.3205 -1.6462  0.9868
  186SLPC   O3121393   2.145   2.187   6.573 -0.0191  0.1949 -0.7825
  186SLPC   C3121394   2.263   2.130   6.542  0.3846  0.3046  0.0404
  186SLPC   O3221395   2.301   2.105   6.429  0.4694 -0.1220  0.1123
  186SLPC   C3221396   2.339   2.107   6.667 -0.1011 -0.4383 -0.3466
  186SLPC   H2X21397   2.275   2.060   6.745  0.9368 -0.3223  0.6089
  186SLPC   H2Y21398   2.380   2.205   6.699  1.1648 -0.9347 -0.3682
  186SLPC   C2321399   1.868   2.210   6.857  0.3780 -0.4851  0.5058
  186SLPC   H3R21400   1.809   2.220   6.951  0.1807 -1.1663  0.4631
  186SLPC   H3S21401   1.847   2.303   6.800 -0.0623  1.5740  3.7936
  186SLPC   C2421402   2.016   2.217   6.904  0.4395 -0.5052 -0.3102
  186SLPC   H4R21403   2.029   2.302   6.975 -3.8275 -1.3682  1.8726
  186SLPC   H4S21404   2.073   2.235   6.811 -1.4333  1.1727 -1.2280
  186SLPC   C2521405   2.071   2.101   6.991  0.4789 -0.3889  0.6954
  186SLPC   H5R21406   2.180   2.117   7.003  0.1612  2.0060  0.8109
  186SLPC   H5S21407   2.068   2.007   6.931 -0.0593  0.4317 -0.6173
  186SLPC   C2621408   1.999   2.099   7.127 -0.0620 -1.2116 -0.3763
  186SLPC   H6R21409   1.914   2.027   7.129 -1.6442  0.5494  2.1954
  186SLPC   H6S21410   1.957   2.201   7.141 -0.9894 -1.6071 -0.2239
  186SLPC   C2721411   2.097   2.062   7.243 -0.1371  0.0708 -0.2979
  186SLPC   H7R21412   2.185   2.129   7.252  0.2347  0.0427 -2.9178
  186SLPC   H7S21413   2.137   1.962   7.218 -2.0265 -0.8094 -0.0126
  186SLPC   C2821414   2.035   2.052   7.378  0.3852  0.3778  0.2226
  186SLPC   H8R21415   2.125   2.031   7.440 -0.3841 -2.3731  0.5570
  186SLPC   H8S21416   1.971   1.962   7.389 -2.1502  2.1841  1.1038
  186SLPC   C2921417   1.970   2.179   7.416  0.5140 -0.4365 -0.7320
  186SLPC   H9R21418   1.877   2.197   7.360  0.9100 -0.4426 -1.4022
  186SLPC  C21021419   2.020   2.262   7.505 -0.7340  0.2576 -0.5051
  186SLPC  H10R21420   1.961   2.350   7.536 -0.7395 -0.4306  1.6170
  186SLPC  C21121421   2.145   2.250   7.587  0.1976  0.6974  0.0199
  186SLPC  H11R21422   2.207   2.336   7.554  0.6053 -0.0981 -1.3623
  186SLPC  H11S21423   2.214   2.166   7.567 -1.5330 -0.9616  0.6997
  186SLPC  C21221424   2.111   2.257   7.733 -0.1294  0.4466  0.7810
  186SLPC  H12R21425   2.006   2.273   7.761 -0.4208 -0.7166  0.3893
  186SLPC  C21321426   2.207   2.241   7.831 -0.1053 -0.0275 -0.0017
  186SLPC  H13R21427   2.182   2.239   7.938  2.5542  0.9068  0.7034
  186SLPC  C21421428   2.349   2.212   7.804 -1.1910 -0.4664 -0.1174
  186SLPC  H14R21429   2.417   2.273   7.868 -0.8267  0.3576 -1.2594
  186SLPC  H14S21430   2.380   2.227   7.698 -0.8357 -2.0622 -0.2712
  186SLPC  C21521431   2.389   2.069   7.846  0.1420  0.0161  0.0247
  186SLPC  H15R21432   2.350   2.001   7.767  1.8071  0.3494 -1.1363
  186SLPC  H15S21433   2.332   2.033   7.934  0.8399  0.3907  0.6397
  186SLPC  C21621434   2.538   2.049   7.872 -0.6708 -0.4019 -0.9141
  186SLPC  H16R21435   2.563   2.114   7.958 -2.5353  2.1332 -2.1354
  186SLPC  H16S21436   2.581   2.093   7.779  3.0093  0.5086  1.0376
  186SLPC  C21721437   2.592   1.906   7.889  0.2117 -0.6241 -0.4668
  186SLPC  H17R21438   2.573   1.863   7.788  0.7920 -1.1065 -0.3758
  186SLPC  H17S21439   2.531   1.860   7.969  2.3747  0.8051  2.1829
  186SLPC  C21821440   2.738   1.894   7.925  0.2008 -0.0678  0.3858
  186SLPC  H18R21441   2.780   1.791   7.934  0.5045 -0.4286 -3.4446
  186SLPC  H18S21442   2.775   1.956   8.010 -0.1620 -1.1992  1.4072
  186SLPC  H18T21443   2.794   1.939   7.840  0.6586  2.6283  1.9824
  186SLPC   C3321444   2.453   2.005   6.656 -0.2721  0.5653  0.3262
  186SLPC   H3X21445   2.516   2.029   6.744  0.1639 -1.5079  0.6220
  186SLPC   H3Y21446   2.505   2.020   6.559 -0.7815 -2.2262 -0.4777
  186SLPC   C3421447   2.417   1.859   6.668  0.5301 -0.0398  0.0515
  186SLPC   H4X21448   2.512   1.807   6.646  0.2309 -0.3451 -0.5700
  186SLPC   H4Y21449   2.350   1.826   6.585 -0.0680 -0.0259  0.5187
  186SLPC   C3521450   2.361   1.824   6.808  0.1509  0.5437  0.2793
  186SLPC   H5X21451   2.274   1.887   6.835 -0.2001 -0.5276  1.7486
  186SLPC   H5Y21452   2.445   1.835   6.881  1.5062 -0.8982 -0.9771
  186SLPC   C3621453   2.307   1.677   6.799 -1.0574 -0.8254 -0.2268
  186SLPC   H6X21454   2.394   1.618   6.764 -0.3885  0.3356 -0.5863
  186SLPC   H6Y21455   2.219   1.669   6.732 -1.2440 -0.5549 -0.0169
  186SLPC   C3721456   2.263   1.634   6.943  0.2031 -0.2508 -0.1576
  186SLPC   H7X21457   2.324   1.663   7.032  0.6812 -0.3738 -0.4435
  186SLPC   H7Y21458   2.250   1.524   6.928 -1.3074  0.1685 -2.4079
  186SLPC   C3821459   2.111   1.671   6.959 -0.0035  0.6298 -0.1269
  186SLPC   H8X21460   2.063   1.658   6.860 -1.2490  1.5925  0.3232
  186SLPC   H8Y21461   2.092   1.775   6.994  0.7356  0.5005  0.7016
  186SLPC   C3921462   2.048   1.570   7.063  0.4399 -0.5687 -0.5485
  186SLPC   H9X21463   2.112   1.573   7.154 -1.2367  0.7928  0.6641
  186SLPC   H9Y21464   2.049   1.467   7.020  2.0793 -1.1752  0.8085
  186SLPC  C31021465   1.913   1.616   7.107  0.3104  0.2654  0.2788
  186SLPC  H10X21466   1.840   1.616   7.023 -0.4290 -1.2931  0.8753
  186SLPC  H10Y21467   1.909   1.718   7.151  2.4285 -0.0635  1.3268
  186SLPC  C31121468   1.855   1.534   7.219  0.3569 -0.5370  0.1447
  186SLPC  H11X21469   1.931   1.547   7.298  1.4488  0.0801 -0.9659
  186SLPC  H11Y21470   1.862   1.427   7.191  0.3414 -0.0171 -2.0447
  186SLPC  C31221471   1.715   1.581   7.262  0.0651  0.3986  0.1401
  186SLPC  H12X21472   1.649   1.579   7.173 -3.5049 -1.9064  2.5660
  186SLPC  H12Y21473   1.711   1.685   7.301  0.1443  0.6820 -0.5826
  186SLPC  C31321474   1.649   1.485   7.363  0.0167 -0.0181 -0.3143
  186SLPC  H13X21475   1.667   1.376   7.350 -2.6336 -0.6194  0.5018
  186SLPC  H13Y21476   1.543   1.514   7.347 -0.2914  0.6014  2.3206
  186SLPC  C31421477   1.681   1.526   7.511 -0.9422 -0.1691 -0.7551
  186SLPC  H14X21478   1.666   1.636   7.514  4.5303  0.8553 -0.4626
  186SLPC  H14Y21479   1.791   1.525   7.528 -0.6753  3.9466 -1.2695
  186SLPC  C31521480   1.601   1.441   7.619  0.0869  0.2817 -0.1642
  186SLPC  H15X21481   1.635   1.336   7.614  0.3163  0.4137 -2.0433
  186SLPC  H15Y21482   1.494   1.447   7.590  0.0472  0.6482  0.0482
  186SLPC  C31621483   1.617   1.505   7.758  0.0583  0.3185  0.2043
  186SLPC  H16X21484   1.549   1.589   7.783  0.1915  0.5863 -0.3264
  186SLPC  H16Y21485   1.720   1.542   7.777  0.4975  0.5585 -2.3493
  186SLPC  C31721486   1.582   1.399   7.862  0.7204  0.9168  0.4266
  186SLPC  H17X21487   1.652   1.313   7.853 -1.5693 -1.1300  0.8533
  186SLPC  H17Y21488   1.484   1.353   7.834  1.0814 -0.8234  1.8545
  186SLPC  C31821489   1.574   1.450   8.005  0.2513 -0.1661  0.0731
  186SLPC  H18X21490   1.555   1.376   8.086 -2.9634  0.2749 -0.1673
  186SLPC  H18Y21491   1.495   1.528   8.007 -1.3527 -1.5172 -3.3452
  186SLPC  H18Z21492   1.673   1.494   8.027  0.2745 -0.8408  1.4919
  187SLPC     N21493   6.504   1.337   6.134  0.5495 -0.4592 -0.2305
  187SLPC   C1321494   6.606   1.404   6.053 -0.4935 -0.6509 -0.2635
  187SLPC  H13A21495   6.595   1.511   6.052  2.1166 -0.2656  1.8872
  187SLPC  H13B21496   6.706   1.397   6.095 -0.2160  0.1669 -0.7788
  187SLPC  H13C21497   6.600   1.374   5.949 -2.0350 -0.7273 -0.1783
  187SLPC   C1421498   6.503   1.182   6.108 -0.4229 -0.5483 -0.4450
  187SLPC  H14A21499   6.487   1.171   6.002  1.0824 -0.4363 -0.7067
  187SLPC  H14B21500   6.602   1.146   6.133 -1.7305 -2.6205  2.1990
  187SLPC  H14C21501   6.428   1.138   6.171 -0.6662  0.6953  0.1729
  187SLPC   C1521502   6.371   1.393   6.084  0.0910 -0.5040 -0.6042
  187SLPC  H15A21503   6.281   1.336   6.102 -1.0849  1.9584  1.8982
  187SLPC  H15B21504   6.356   1.498   6.103 -3.3060 -0.7427 -1.3743
  187SLPC  H15C21505   6.370   1.389   5.976 -2.8441  0.4703 -0.7018
  187SLPC   C1221506   6.516   1.369   6.280  0.4380 -0.3728  0.1417
  187SLPC  H12A21507   6.430   1.328   6.330  0.1367  1.2226  0.9988
  187SLPC  H12B21508   6.517   1.475   6.301 -1.9289 -0.1471 -0.5379
  187SLPC   C1121509   6.640   1.311   6.352  0.2323  0.7556  0.2274
  187SLPC  H11A21510   6.635   1.335   6.461  0.3380  0.7262  0.2392
  187SLPC  H11B21511   6.724   1.363   6.301 -1.9446  1.9930 -2.2821
  187SLPC     P21512   6.723   1.057   6.398 -0.2172 -0.2117 -0.1475
  187SLPC   O1321513   6.653   0.928   6.378 -0.4028 -0.4213 -0.0244
  187SLPC   O1421514   6.858   1.070   6.336  0.0476 -0.0707  0.1238
  187SLPC   O1221515   6.633   1.168   6.340  0.2187  0.2259 -0.5546
  187SLPC   O1121516   6.730   1.093   6.553  0.3458  0.1267 -0.6142
  187SLPC    C121517   6.604   1.122   6.623 -0.1194  0.3257 -0.2250
  187SLPC    HA21518   6.627   1.209   6.688 -0.1818  0.5348 -0.4843
  187SLPC    HB21519   6.518   1.149   6.559 -1.6793 -1.1635  1.1328
  187SLPC    C221520   6.568   1.007   6.720  0.4216 -0.4579  0.6685
  187SLPC    HS21521   6.487   1.055   6.781  0.9779  1.9381 -0.3824
  187SLPC   O2121522   6.687   0.966   6.790 -0.1607 -0.7408  0.2945
  187SLPC   C2121523   6.670   0.957   6.921  0.6181 -0.1180 -0.5469
  187SLPC   O2221524   6.567   0.976   6.980 -0.0356 -0.8411 -0.5291
  187SLPC   C2221525   6.800   0.922   6.989 -0.5838  0.7587 -0.3393
  187SLPC   H2R21526   6.827   0.819   6.958  1.5076  2.1583 -3.6915
  187SLPC   H2S21527   6.880   0.992   6.960  3.0528 -1.9078  2.3343
  187SLPC    C321528   6.492   0.890   6.649 -0.4692 -0.5501  0.2625
  187SLPC    HX21529   6.555   0.839   6.573 -1.5305 -0.3450 -0.7833
  187SLPC    HY21530   6.414   0.934   6.584  2.6061  1.6538 -2.2634
  187SLPC   O3121531   6.457   0.784   6.741 -0.6163  0.2635 -0.6022
  187SLPC   C3121532   6.332   0.757   6.751  0.5572  0.7821 -0.2218
  187SLPC   O3221533   6.239   0.821   6.705  0.5850  0.4186  0.4142
  187SLPC   C3221534   6.320   0.638   6.835  0.0543 -0.1450 -0.3378
  187SLPC   H2X21535   6.375   0.651   6.931  0.6823  0.3729 -0.7586
  187SLPC   H2Y21536   6.363   0.545   6.793 -0.4639 -0.2559 -0.6368
  187SLPC   C2321537   6.786   0.905   7.134 -0.3738  0.1886 -0.1142
  187SLPC   H3R21538   6.700   0.840   7.164  0.4562 -1.1541 -0.5629
  187SLPC   H3S21539   6.761   1.005   7.177 -3.0573 -1.2610  2.0549
  187SLPC   C2421540   6.895   0.833   7.204 -0.4605  0.1706 -0.3852
  187SLPC   H4R21541   6.994   0.880   7.188  0.6001 -1.9106 -0.2992
  187SLPC   H4S21542   6.914   0.732   7.162  0.9864  0.8471 -1.4454
  187SLPC   C2521543   6.858   0.815   7.354  0.3436  0.5438  0.7305
  187SLPC   H5R21544   6.921   0.733   7.394  0.8482  0.4523 -0.2370
  187SLPC   H5S21545   6.755   0.774   7.361 -0.5552  2.7777  1.7194
  187SLPC   C2621546   6.860   0.937   7.443  0.1649  0.4526  0.9317
  187SLPC   H6R21547   6.779   0.995   7.395 -0.3477 -1.0735 -0.1248
  187SLPC   H6S21548   6.957   0.993   7.440  1.3711 -1.4616 -3.0210
  187SLPC   C2721549   6.819   0.908   7.582  0.0754  0.0858 -0.0072
  187SLPC   H7R21550   6.920   0.904   7.629  1.6352  1.6458 -2.9223
  187SLPC   H7S21551   6.771   0.808   7.585 -0.7579  0.5035  1.6849
  187SLPC   C2821552   6.738   1.016   7.657  0.2912  0.6324  0.1504
  187SLPC   H8R21553   6.672   1.044   7.573  0.0809 -2.1629 -0.7105
  187SLPC   H8S21554   6.810   1.096   7.685 -0.0246  0.1004  2.7686
  187SLPC   C2921555   6.653   0.973   7.777  0.3479 -0.1977  0.1684
  187SLPC   H9R21556   6.622   0.868   7.784  3.1607 -1.1519 -0.4527
  187SLPC  C21021557   6.620   1.052   7.874 -0.1138 -0.2480 -0.1809
  187SLPC  H10R21558   6.587   1.005   7.968  1.6371 -0.2181  0.4713
  187SLPC  C21121559   6.655   1.198   7.897  0.0761  0.9090 -0.0364
  187SLPC  H11R21560   6.755   1.222   7.854  0.1581 -2.0090 -1.7645
  187SLPC  H11S21561   6.666   1.202   8.007 -4.5774 -1.3242  0.7888
  187SLPC  C21221562   6.550   1.294   7.849  0.5590  0.3833  0.2830
  187SLPC  H12R21563   6.504   1.277   7.751  0.0390  1.9629  0.2308
  187SLPC  C21321564   6.523   1.408   7.918 -0.1410 -0.2863  0.3639
  187SLPC  H13R21565   6.445   1.475   7.878 -1.1849 -1.6202  0.0691
  187SLPC  C21421566   6.592   1.458   8.048  0.9615  0.2741  0.1080
  187SLPC  H14R21567   6.600   1.569   8.046  0.0470  0.3528 -1.1211
  187SLPC  H14S21568   6.691   1.408   8.054  0.6516 -0.6136 -1.4729
  187SLPC  C21521569   6.522   1.408   8.182 -0.1822 -0.7136  0.1536
  187SLPC  H15R21570   6.508   1.299   8.166 -0.2599 -0.4492 -1.8161
  187SLPC  H15S21571   6.426   1.459   8.202  0.8990  0.8836  1.5756
  187SLPC  C21621572   6.627   1.426   8.298 -0.3814  0.2045 -0.9146
  187SLPC  H16R21573   6.563   1.439   8.388 -1.1269  2.5309 -1.6982
  187SLPC  H16S21574   6.668   1.529   8.284 -3.1589  1.4801 -0.3869
  187SLPC  C21721575   6.738   1.324   8.318  0.2519 -0.8500 -0.3376
  187SLPC  H17R21576   6.805   1.338   8.231 -2.4858  2.6176 -2.1516
  187SLPC  H17S21577   6.697   1.222   8.304 -1.7241  0.1287 -2.1554
  187SLPC  C21821578   6.814   1.325   8.453  0.3974 -0.5221 -0.2322
  187SLPC  H18R21579   6.835   1.431   8.476 -3.1404 -0.3441  3.4527
  187SLPC  H18S21580   6.901   1.256   8.453 -0.6245 -1.8735  0.8532
  187SLPC  H18T21581   6.758   1.286   8.541  0.7225  0.6736  0.5199
  187SLPC   C3321582   6.177   0.593   6.863 -0.3477 -0.4752 -0.1122
  187SLPC   H3X21583   6.138   0.533   6.778  1.6693 -1.3515 -0.4856
  187SLPC   H3Y21584   6.111   0.682   6.872 -1.3825 -1.1038 -1.0739
  187SLPC   C3421585   6.165   0.504   6.989  0.0106  0.0874 -0.4730
  187SLPC   H4X21586   6.222   0.548   7.074 -2.2312  0.2767  1.0223
  187SLPC   H4Y21587   6.203   0.401   6.971  3.1320  0.9666  0.4248
  187SLPC   C3521588   6.016   0.506   7.039 -0.0435 -0.5376  1.0404
  187SLPC   H5X21589   5.959   0.432   6.980 -0.2298  0.5006 -0.1251
  187SLPC   H5Y21590   5.982   0.611   7.024  0.8003 -0.5371 -1.3134
  187SLPC   C3621591   5.985   0.461   7.180 -0.1218  0.0492 -0.7103
  187SLPC   H6X21592   6.020   0.359   7.205  1.4930  1.3509  2.8604
  187SLPC   H6Y21593   5.877   0.460   7.209 -0.1834 -1.1968 -0.9164
  187SLPC   C3721594   6.052   0.547   7.282  0.4554  0.9266 -0.6173
  187SLPC   H7X21595   6.163   0.547   7.286  0.4911  0.5190 -1.3273
  187SLPC   H7Y21596   6.027   0.653   7.261 -1.0389  0.7614  0.2464
  187SLPC   C3821597   6.010   0.517   7.428  0.5711 -0.9163 -0.3389
  187SLPC   H8X21598   6.036   0.417   7.468  0.1822 -0.3412  1.4237
  187SLPC   H8Y21599   5.900   0.506   7.424  0.5446 -0.3460 -1.8858
  187SLPC   C3921600   6.043   0.634   7.530 -0.1221  0.1040  0.1479
  187SLPC   H9X21601   6.004   0.726   7.480  1.2022  0.2881 -0.6067
  187SLPC   H9Y21602   6.154   0.641   7.537 -0.0893 -1.8410  2.2524
  187SLPC  C31021603   5.990   0.601   7.665  0.1134 -0.0402  0.0439
  187SLPC  H10X21604   6.034   0.512   7.714 -1.7154 -0.4104  1.0975
  187SLPC  H10Y21605   5.884   0.576   7.642  0.3417 -1.2775  0.2509
  187SLPC  C31121606   5.992   0.715   7.763  0.0907 -0.6141 -0.0376
  187SLPC  H11X21607   5.947   0.802   7.710 -2.1149  0.7380  3.6344
  187SLPC  H11Y21608   6.095   0.739   7.798  0.6772 -2.8954 -0.0855
  187SLPC  C31221609   5.928   0.671   7.899 -0.4330  0.1146 -0.1326
  187SLPC  H12X21610   5.992   0.585   7.930 -0.9719 -0.6658 -1.1108
  187SLPC  H12Y21611   5.825   0.640   7.867 -0.3039 -0.5034  0.0341
  187SLPC  C31321612   5.919   0.783   8.002  0.3054  0.1038  0.4439
  187SLPC  H13X21613   5.936   0.881   7.953  0.0499 -0.8242 -1.5902
  187SLPC  H13Y21614   5.994   0.748   8.077 -0.5669 -2.4837  0.2148
  187SLPC  C31421615   5.784   0.789   8.078 -0.0396 -0.1218  0.0711
  187SLPC  H14X21616   5.771   0.702   8.147  1.0748  1.5153  2.4736
  187SLPC  H14Y21617   5.698   0.785   8.007 -1.6261  0.9221  1.8532
  187SLPC  C31521618   5.766   0.920   8.166 -0.0812 -0.0855 -0.0144
  187SLPC  H15X21619   5.763   0.999   8.089  1.5200 -1.3395 -1.4540
  187SLPC  H15Y21620   5.865   0.929   8.217 -0.5959 -0.0327  0.9881
  187SLPC  C31621621   5.656   0.909   8.275  0.0324  0.4690 -0.6765
  187SLPC  H16X21622   5.660   0.805   8.315  3.1040  0.6475 -0.2442
  187SLPC  H16Y21623   5.561   0.939   8.225  0.4731  1.3749 -0.9986
  187SLPC  C31721624   5.681   0.995   8.389  0.1788  0.0305  0.1960
  187SLPC  H17X21625   5.688   1.099   8.351  1.2528 -0.3527 -0.7364
  187SLPC  H17Y21626   5.778   0.975   8.439  0.3943  1.1975  0.2785
  187SLPC  C31821627   5.573   0.982   8.498 -0.2592 -0.5853  0.6018
  187SLPC  H18X21628   5.534   0.878   8.505  0.0087 -0.6642  0.9826
  187SLPC  H18Y21629   5.496   1.062   8.487 -0.8996 -1.1095  1.0971
  187SLPC  H18Z21630   5.622   1.005   8.595 -0.5755 -0.6781  0.7857
  188SLPC     N21631   2.037   1.394   6.297  0.0750  0.4560 -0.1137
  188SLPC   C1321632   2.009   1.471   6.427  0.2802 -0.4165  0.2529
  188SLPC  H13A21633   2.057   1.421   6.510 -1.5189  0.4588  1.9158
  188SLPC  H13B21634   2.031   1.576   6.425  0.5992 -0.4528  1.1601
  188SLPC  H13C21635   1.906   1.466   6.458  0.5893  0.9709  1.6323
  188SLPC   C1421636   1.943   1.445   6.187  0.1745  0.1688 -0.0657
  188SLPC  H14A21637   1.967   1.547   6.162  0.4626  0.7663  2.3589
  188SLPC  H14B21638   1.963   1.391   6.096 -0.6874 -0.3379  0.0281
  188SLPC  H14C21639   1.844   1.430   6.228 -0.0236  1.1967 -0.1431
  188SLPC   C1521640   2.003   1.252   6.307 -0.8354 -0.3513 -0.3180
  188SLPC  H15A21641   1.982   1.217   6.207  2.0466 -1.4646 -0.6158
  188SLPC  H15B21642   2.084   1.200   6.356 -0.7708  1.1369  1.2355
  188SLPC  H15C21643   1.917   1.227   6.367 -1.6955  0.6100 -1.1103
  188SLPC   C1221644   2.178   1.414   6.256 -0.4023  0.1791  0.1202
  188SLPC  H12A21645   2.192   1.506   6.199  0.4447  0.3413  0.5725
  188SLPC  H12B21646   2.193   1.340   6.179 -0.3121 -0.4432  0.7308
  188SLPC   C1121647   2.296   1.406   6.363  0.3162  0.1763 -0.3079
  188SLPC  H11A21648   2.276   1.477   6.446 -2.7842 -0.7382 -0.1303
  188SLPC  H11B21649   2.383   1.453   6.313 -0.6797 -0.2296 -2.5740
  188SLPC     P21650   2.378   1.154   6.340  0.0222 -0.1992 -0.0820
  188SLPC   O1321651   2.277   1.047   6.335 -0.3691  0.2437 -0.2091
  188SLPC   O1421652   2.440   1.208   6.216 -0.2131  0.6478 -0.0092
  188SLPC   O1221653   2.323   1.277   6.422  0.4927 -0.5691  0.3144
  188SLPC   O1121654   2.499   1.111   6.437 -0.2471 -0.5156  0.4397
  188SLPC    C121655   2.583   1.222   6.474 -0.6277  0.2193 -0.4833
  188SLPC    HA21656   2.692   1.203   6.463 -0.1181  2.8867 -0.6558
  188SLPC    HB21657   2.567   1.318   6.420 -0.4749 -0.0689 -1.0537
  188SLPC    C221658   2.565   1.255   6.627  0.2475  0.0203 -0.0197
  188SLPC    HS21659   2.471   1.313   6.630 -0.5421 -1.2325 -0.0174
  188SLPC   O2121660   2.680   1.316   6.680 -0.1977  0.1705 -0.2894
  188SLPC   C2121661   2.686   1.443   6.641 -0.1976  0.4317  0.2045
  188SLPC   O2221662   2.601   1.502   6.575 -0.6827 -0.1768 -0.0020
  188SLPC   C2221663   2.808   1.505   6.694 -1.0873 -0.1150  0.3637
  188SLPC   H2R21664   2.845   1.436   6.774 -1.7400  0.9916  1.6558
  188SLPC   H2S21665   2.884   1.496   6.614 -1.0343 -3.9851  0.6517
  188SLPC    C321666   2.536   1.130   6.704  0.3934  0.3770  0.1863
  188SLPC    HX21667   2.633   1.077   6.690  0.8282  0.4463  2.6340
  188SLPC    HY21668   2.457   1.069   6.654 -0.9704  2.5617 -0.4631
  188SLPC   O3121669   2.518   1.157   6.845  0.2434  0.3878  0.5341
  188SLPC   C3121670   2.401   1.190   6.884  0.4561  0.3744  0.5251
  188SLPC   O3221671   2.296   1.177   6.820  0.1475  0.4330 -0.0031
  188SLPC   C3221672   2.413   1.227   7.030  0.2439 -0.4298 -0.0006
  188SLPC   H2X21673   2.456   1.329   7.038 -0.5012 -0.0928 -0.1720
  188SLPC   H2Y21674   2.478   1.148   7.072  1.7748 -0.5944 -2.4777
  188SLPC   C2321675   2.790   1.652   6.738 -0.7705 -0.3829 -0.1017
  188SLPC   H3R21676   2.737   1.709   6.659  1.0201 -1.1860 -1.9485
  188SLPC   H3S21677   2.886   1.699   6.765 -1.8842  0.1550  3.5371
  188SLPC   C2421678   2.705   1.663   6.866  0.7343  0.1620  0.3082
  188SLPC   H4R21679   2.605   1.619   6.848  0.5830  0.3121  0.7587
  188SLPC   H4S21680   2.691   1.771   6.890 -2.3468 -0.4383  1.6506
  188SLPC   C2521681   2.753   1.593   6.995 -0.5915 -0.0569 -0.4932
  188SLPC   H5R21682   2.847   1.643   7.026  0.4084 -1.5439 -0.9761
  188SLPC   H5S21683   2.788   1.491   6.968  0.3655 -0.5878  2.4352
  188SLPC   C2621684   2.666   1.593   7.119  0.3916  0.2835 -0.1159
  188SLPC   H6R21685   2.721   1.525   7.187  0.5521 -0.1371 -0.6485
  188SLPC   H6S21686   2.571   1.536   7.110  1.2458 -1.1401 -0.4343
  188SLPC   C2721687   2.638   1.726   7.195  0.6142 -0.3883  0.4220
  188SLPC   H7R21688   2.545   1.762   7.146  0.5122 -0.0601  0.8522
  188SLPC   H7S21689   2.723   1.796   7.190  0.8348 -0.6925 -0.2447
  188SLPC   C2821690   2.599   1.700   7.346 -0.3381  0.5955 -0.0588
  188SLPC   H8R21691   2.691   1.659   7.394  0.2204  1.8995  0.0414
  188SLPC   H8S21692   2.516   1.629   7.367 -2.0599  2.1454 -1.3054
  188SLPC   C2921693   2.578   1.833   7.421 -0.1346 -0.5688 -0.5082
  188SLPC   H9R21694   2.663   1.903   7.432 -0.0340 -0.9249  1.2544
  188SLPC  C21021695   2.459   1.865   7.474 -0.0785  0.0782  0.1857
  188SLPC  H10R21696   2.442   1.964   7.517 -0.2388  1.1178 -2.1400
  188SLPC  C21121697   2.336   1.780   7.467 -0.4965 -0.6071 -0.1753
  188SLPC  H11R21698   2.333   1.723   7.372 -0.2316 -0.3221 -0.3571
  188SLPC  H11S21699   2.249   1.849   7.461 -1.7963 -2.2334 -1.0308
  188SLPC  C21221700   2.320   1.681   7.586  0.1738  0.1625 -0.5208
  188SLPC  H12R21701   2.415   1.636   7.620  0.5194  0.9114 -0.4691
  188SLPC  C21321702   2.213   1.651   7.661  0.3322 -0.2724 -0.1655
  188SLPC  H13R21703   2.215   1.590   7.752  1.8103  0.0296  0.0182
  188SLPC  C21421704   2.073   1.702   7.636 -0.2543 -0.7392 -0.0594
  188SLPC  H14R21705   2.001   1.617   7.630  1.2847 -2.0119 -2.0096
  188SLPC  H14S21706   2.068   1.753   7.537  0.6740  0.3049  0.4097
  188SLPC  C21521707   2.038   1.802   7.746  0.4898 -0.5812 -0.3202
  188SLPC  H15R21708   2.109   1.887   7.754  0.6975 -0.7328 -0.5077
  188SLPC  H15S21709   2.048   1.745   7.841  0.6830 -3.2362 -1.8350
  188SLPC  C21621710   1.893   1.867   7.742  0.2192 -0.2801  0.2756
  188SLPC  H16R21711   1.818   1.785   7.747 -0.5448  0.1782 -2.0881
  188SLPC  H16S21712   1.887   1.904   7.637  2.5322 -1.1631 -0.2091
  188SLPC  C21721713   1.871   1.974   7.843 -0.3164 -0.0113 -0.3945
  188SLPC  H17R21714   1.772   2.023   7.834 -1.2378 -1.4803  1.0754
  188SLPC  H17S21715   1.936   2.062   7.821 -0.7308 -0.2419 -2.7138
  188SLPC  C21821716   1.878   1.918   7.984 -0.4672 -0.3450 -0.1185
  188SLPC  H18R21717   1.979   1.886   8.017  0.3509  2.8362  0.8564
  188SLPC  H18S21718   1.814   1.827   7.989 -0.9574 -0.1424 -1.8143
  188SLPC  H18T21719   1.842   1.984   8.066 -0.4822  1.6098 -1.5959
  188SLPC   C3321720   2.280   1.224   7.089  0.5108  0.1743 -0.3846
  188SLPC   H3X21721   2.236   1.123   7.104 -0.2025  0.4624 -0.5232
  188SLPC   H3Y21722   2.203   1.272   7.025 -0.5018 -1.9178 -0.8423
  188SLPC   C3421723   2.281   1.299   7.227  0.0881 -0.2191 -0.1560
  188SLPC   H4X21724   2.298   1.407   7.212  0.7231 -0.6476 -3.1197
  188SLPC   H4Y21725   2.377   1.272   7.277  1.1404  1.0820 -1.3964
  188SLPC   C3521726   2.166   1.261   7.320  0.7650 -0.1240 -0.5149
  188SLPC   H5X21727   2.157   1.150   7.325 -0.9555 -0.0163 -0.8442
  188SLPC   H5Y21728   2.079   1.300   7.263  1.0051 -2.9622 -3.1184
  188SLPC   C3621729   2.169   1.310   7.472  0.2280 -0.5389  0.5176
  188SLPC   H6X21730   2.187   1.420   7.477 -0.6888 -0.3295 -0.3814
  188SLPC   H6Y21731   2.246   1.247   7.521 -1.9631 -2.9704  1.0232
  188SLPC   C3721732   2.041   1.272   7.550 -0.2287  0.5068 -0.2383
  188SLPC   H7X21733   2.009   1.166   7.536  2.2408 -0.4170  0.5215
  188SLPC   H7Y21734   1.961   1.335   7.507 -0.7641 -0.3080 -0.4590
  188SLPC   C3821735   2.049   1.284   7.700 -0.6874 -0.8456  0.3428
  188SLPC   H8X21736   2.113   1.371   7.728  0.4466 -0.9906 -1.5896
  188SLPC   H8Y21737   2.114   1.197   7.726  0.4780 -0.4097 -0.9458
  188SLPC   C3921738   1.918   1.299   7.774 -0.0863 -0.8450 -0.2418
  188SLPC   H9X21739   1.865   1.205   7.746 -0.1246  0.0303 -3.5079
  188SLPC   H9Y21740   1.871   1.388   7.729  1.3967 -0.2479 -0.6567
  188SLPC  C31021741   1.932   1.305   7.927  0.3454  0.3317 -0.4479
  188SLPC  H10X21742   1.989   1.217   7.964 -2.1687 -1.4342 -0.5306
  188SLPC  H10Y21743   1.834   1.290   7.977  0.7885  0.4341  0.4809
  188SLPC  C31121744   1.992   1.432   7.993 -0.5101  0.0579  0.2280
  188SLPC  H11X21745   1.928   1.513   7.951  1.2612  0.1061 -2.6904
  188SLPC  H11Y21746   2.098   1.437   7.960 -1.2195  0.3648 -2.2158
  188SLPC  C31221747   1.979   1.431   8.145 -0.3412 -0.8977 -0.1859
  188SLPC  H12X21748   2.042   1.343   8.169  0.9802 -0.4985 -1.9536
  188SLPC  H12Y21749   1.869   1.427   8.160 -0.1982 -0.6871  0.9553
  188SLPC  C31321750   2.025   1.564   8.198  0.3077  0.2727  0.8225
  188SLPC  H13X21751   1.963   1.646   8.157  1.1205  0.7072  0.4296
  188SLPC  H13Y21752   2.133   1.568   8.172  0.1658 -2.1312 -0.4545
  188SLPC  C31421753   1.994   1.573   8.348  0.6794 -0.6901  0.1031
  188SLPC  H14X21754   2.056   1.506   8.411  1.1863  0.4423  0.8415
  188SLPC  H14Y21755   1.883   1.576   8.344  0.7006  1.5202 -0.3963
  188SLPC  C31521756   2.024   1.719   8.404 -0.7810  0.0074 -0.6559
  188SLPC  H15X21757   1.970   1.792   8.339  0.1607 -0.3428 -1.8579
  188SLPC  H15Y21758   2.134   1.736   8.409 -0.9251  1.9038 -2.4143
  188SLPC  C31621759   1.953   1.739   8.537  0.3689  0.0108 -0.2137
  188SLPC  H16X21760   1.851   1.697   8.530  0.3107 -0.1704  1.2693
  188SLPC  H16Y21761   1.933   1.846   8.560 -2.5226 -0.5135  0.0648
  188SLPC  C31721762   2.023   1.675   8.654  0.0426 -0.2672  0.3509
  188SLPC  H17X21763   2.132   1.699   8.657 -0.5697  3.0091  3.3104
  188SLPC  H17Y21764   2.027   1.567   8.629  0.6548  0.5073 -3.4680
  188SLPC  C31821765   1.964   1.705   8.796 -0.2601 -0.0846  0.1841
  188SLPC  H18X21766   1.955   1.814   8.813 -0.3186  0.1133 -1.0377
  188SLPC  H18Y21767   2.031   1.663   8.874 -0.5781  1.4155  1.3138
  188SLPC  H18Z21768   1.861   1.662   8.794 -0.6605  0.8569 -1.4532
  189SLPC     N21769   3.448   4.628   5.896  0.4907  0.4467  0.3900
  189SLPC   C1321770   3.545   4.741   5.856  0.3598  0.2030 -0.9165
  189SLPC  H13A21771   3.634   4.709   5.803  0.6374 -0.3436 -0.1414
  189SLPC  H13B21772   3.497   4.824   5.806 -0.1497  0.1467 -0.5295
  189SLPC  H13C21773   3.578   4.778   5.951  1.4118 -0.2444 -1.0926
  189SLPC   C1421774   3.532   4.524   5.974 -0.3439 -0.3803 -0.0561
  189SLPC  H14A21775   3.629   4.505   5.930 -0.1061 -0.5317  0.5270
  189SLPC  H14B21776   3.546   4.555   6.076  0.7341 -1.9234  0.3078
  189SLPC  H14C21777   3.482   4.428   5.970  0.2322 -0.8572  2.5064
  189SLPC   C1521778   3.402   4.564   5.767  0.0488  0.2037 -0.6553
  189SLPC  H15A21779   3.368   4.639   5.696  0.3928  0.4327 -0.5772
  189SLPC  H15B21780   3.484   4.522   5.711  1.6383  1.6441  0.4680
  189SLPC  H15C21781   3.323   4.491   5.779  1.0562 -0.6248  1.3169
  189SLPC   C1221782   3.331   4.684   5.978  0.2338  1.2192 -0.0148
  189SLPC  H12A21783   3.268   4.597   5.988  2.9329 -1.0135 -1.1486
  189SLPC  H12B21784   3.273   4.759   5.926  1.0292  1.7691 -0.1322
  189SLPC   C1121785   3.360   4.733   6.121 -0.1851  0.0866 -0.2057
  189SLPC  H11A21786   3.413   4.654   6.179  0.7421  0.1282 -0.9766
  189SLPC  H11B21787   3.258   4.742   6.164 -1.0373 -2.0934 -1.5901
  189SLPC     P21788   3.396   4.996   6.110 -0.1164  0.0129 -0.2857
  189SLPC   O1321789   3.517   5.080   6.127  0.8635 -0.2699 -0.2990
  189SLPC   O1421790   3.318   5.008   5.986  0.0478 -0.2457 -0.4083
  189SLPC   O1221791   3.443   4.846   6.128  0.1416  0.2818 -0.4286
  189SLPC   O1121792   3.307   5.021   6.240  0.0933 -0.3333  0.1901
  189SLPC    C121793   3.381   5.017   6.365 -0.2735 -0.7049 -0.3519
  189SLPC    HA21794   3.442   4.925   6.373  0.6429 -0.0502  0.3191
  189SLPC    HB21795   3.446   5.107   6.376  0.1593 -1.1230  0.5640
  189SLPC    C221796   3.281   5.020   6.478  0.2663  0.1559  0.6612
  189SLPC    HS21797   3.216   5.110   6.475  0.5381  0.3207 -0.6075
  189SLPC   O2121798   3.350   5.025   6.607 -0.0670 -0.3777 -0.5291
  189SLPC   C2121799   3.413   5.139   6.635 -0.3741 -0.0247 -0.0459
  189SLPC   O2221800   3.420   5.238   6.564  0.6120  0.1518  0.6300
  189SLPC   C2221801   3.473   5.131   6.779 -0.1419 -0.2919 -0.3713
  189SLPC   H2R21802   3.560   5.062   6.780 -0.8533 -1.2028  0.2211
  189SLPC   H2S21803   3.496   5.232   6.820  0.5713 -1.7832  3.2126
  189SLPC    C321804   3.179   4.902   6.470 -0.4087 -0.0164 -0.6158
  189SLPC    HX21805   3.243   4.812   6.454  1.3344  1.2454 -0.9537
  189SLPC    HY21806   3.120   4.905   6.376  0.8151  0.8488 -1.3857
  189SLPC   O3121807   3.092   4.883   6.581 -0.2147  0.1071 -0.1449
  189SLPC   C3121808   3.124   4.807   6.684  0.2520 -0.4601  0.4249
  189SLPC   O3221809   3.216   4.733   6.691 -0.1946  0.0365 -0.3128
  189SLPC   C3221810   3.020   4.845   6.788  0.0984  0.3975 -0.2499
  189SLPC   H2X21811   2.921   4.815   6.748 -0.1493  0.0794  0.5628
  189SLPC   H2Y21812   3.014   4.955   6.804 -0.8576  0.2544  0.5190
  189SLPC   C2321813   3.383   5.056   6.891 -0.3545 -0.0022 -1.0398
  189SLPC   H3R21814   3.384   4.951   6.855  0.9781  0.4181 -2.3269
  189SLPC   H3S21815   3.279   5.092   6.877 -0.2801  0.0745 -1.4293
  189SLPC   C2421816   3.434   5.055   7.034 -0.2448  0.4601  0.0168
  189SLPC   H4R21817   3.545   5.067   7.029 -0.4247  3.2843  1.0203
  189SLPC   H4S21818   3.414   4.951   7.068  2.4664 -1.4733 -3.5428
  189SLPC   C2521819   3.358   5.161   7.118 -0.0163 -0.5431  0.9728
  189SLPC   H5R21820   3.253   5.124   7.120 -0.1414 -0.1756  1.0887
  189SLPC   H5S21821   3.376   5.261   7.073  0.0420 -0.6217  0.8195
  189SLPC   C2621822   3.406   5.170   7.267  0.2201 -0.5963  0.1752
  189SLPC   H6R21823   3.331   5.233   7.319  1.3311 -0.2018  1.3577
  189SLPC   H6S21824   3.494   5.237   7.262 -0.1566 -0.1500 -0.6894
  189SLPC   C2721825   3.417   5.039   7.340 -0.6671 -0.7208 -0.3526
  189SLPC   H7R21826   3.498   4.982   7.290  1.3828  0.4748  1.4179
  189SLPC   H7S21827   3.319   4.989   7.326 -0.7552  0.0434 -3.0724
  189SLPC   C2821828   3.452   5.043   7.488  0.1251 -0.2666  1.0258
  189SLPC   H8R21829   3.442   4.939   7.527  0.4936  0.1381  2.2491
  189SLPC   H8S21830   3.370   5.105   7.531  0.5397 -0.5410  2.2489
  189SLPC   C2921831   3.585   5.109   7.526 -0.4066  0.4076 -0.9914
  189SLPC   H9R21832   3.665   5.097   7.451  1.6577 -1.5712  1.3121
  189SLPC  C21021833   3.622   5.167   7.642  0.0719  0.8791  0.3364
  189SLPC  H10R21834   3.728   5.195   7.651  0.2175  0.1165  1.2349
  189SLPC  C21121835   3.538   5.193   7.765 -0.5793  0.5686  0.6972
  189SLPC  H11R21836   3.432   5.189   7.733 -0.5220  1.9705  0.2970
  189SLPC  H11S21837   3.562   5.295   7.800  0.0429 -0.5485  3.9276
  189SLPC  C21221838   3.580   5.095   7.875 -0.1072 -0.2510 -0.5101
  189SLPC  H12R21839   3.629   5.001   7.845  1.6693  0.1122  1.0355
  189SLPC  C21321840   3.549   5.115   8.009  0.0534  0.0644  0.5426
  189SLPC  H13R21841   3.583   5.030   8.070  1.4787 -0.7020 -1.2187
  189SLPC  C21421842   3.473   5.229   8.075 -0.0238 -0.9248 -0.5267
  189SLPC  H14R21843   3.387   5.198   8.138 -0.5794 -0.3267 -0.9700
  189SLPC  H14S21844   3.428   5.296   7.998 -2.1428  1.1598  2.3107
  189SLPC  C21521845   3.566   5.328   8.154  0.4092  0.2263 -0.1020
  189SLPC  H15R21846   3.495   5.403   8.195 -0.8234 -1.5464  1.1378
  189SLPC  H15S21847   3.635   5.371   8.078 -0.1149  0.6048 -0.3743
  189SLPC  C21621848   3.652   5.271   8.266 -0.0890  0.3752 -0.0462
  189SLPC  H16R21849   3.724   5.202   8.217 -0.0125  0.0384  0.5328
  189SLPC  H16S21850   3.595   5.207   8.337  0.8822  0.5092  0.8905
  189SLPC  C21721851   3.711   5.392   8.345 -0.2676  0.0850 -1.0351
  189SLPC  H17R21852   3.628   5.464   8.364  0.7043  0.9738 -0.0761
  189SLPC  H17S21853   3.782   5.447   8.280 -1.2077  2.2723 -0.3020
  189SLPC  C21821854   3.779   5.356   8.480 -0.9791  1.1296 -0.4534
  189SLPC  H18R21855   3.821   5.440   8.538 -0.8063 -0.2847  1.5613
  189SLPC  H18S21856   3.856   5.281   8.450 -1.6798  0.1253  0.1909
  189SLPC  H18T21857   3.713   5.300   8.549  1.6981 -1.2885  0.3441
  189SLPC   C3321858   3.066   4.772   6.913  1.0605  0.1599 -0.3058
  189SLPC   H3X21859   3.170   4.797   6.940  1.0989 -1.8598  1.7474
  189SLPC   H3Y21860   3.067   4.661   6.907  1.1874  0.2135 -1.3363
  189SLPC   C3421861   2.984   4.811   7.042 -0.5571 -0.3730  0.1587
  189SLPC   H4X21862   2.876   4.785   7.035 -0.4122 -0.9631  0.0686
  189SLPC   H4Y21863   2.980   4.922   7.047  2.3761 -0.2028  0.7282
  189SLPC   C3521864   3.038   4.729   7.160  0.1627  0.1903 -0.2834
  189SLPC   H5X21865   3.063   4.625   7.129 -0.2081 -0.0619  0.2513
  189SLPC   H5Y21866   2.959   4.721   7.238  1.5919  1.2689  1.3430
  189SLPC   C3621867   3.164   4.792   7.218 -0.2527 -0.2247 -0.0938
  189SLPC   H6X21868   3.144   4.901   7.225  1.2017  0.0189  0.6584
  189SLPC   H6Y21869   3.248   4.766   7.150 -0.2879  2.3104 -1.2563
  189SLPC   C3721870   3.222   4.731   7.344 -0.4040  0.0616  0.5529
  189SLPC   H7X21871   3.331   4.751   7.353 -0.7469  2.2003  0.6047
  189SLPC   H7Y21872   3.206   4.621   7.341  0.6049 -0.0834 -1.6979
  189SLPC   C3821873   3.164   4.788   7.472  0.4381 -0.2709 -0.6748
  189SLPC   H8X21874   3.057   4.759   7.479  1.0162 -3.1796 -2.1673
  189SLPC   H8Y21875   3.169   4.899   7.481 -0.5201 -0.2847  0.3296
  189SLPC   C3921876   3.241   4.731   7.598  0.4399 -0.2974  0.1251
  189SLPC   H9X21877   3.349   4.724   7.573  1.0412 -0.4913  2.5264
  189SLPC   H9Y21878   3.201   4.629   7.617  0.5807 -0.0288  1.9840
  189SLPC  C31021879   3.218   4.817   7.723  0.1649  0.3296 -0.8034
  189SLPC  H10X21880   3.111   4.840   7.741 -0.2413 -0.8982 -1.5296
  189SLPC  H10Y21881   3.264   4.918   7.723 -1.7195  1.2156 -0.8364
  189SLPC  C31121882   3.289   4.752   7.837 -0.1118  0.1062 -0.5965
  189SLPC  H11X21883   3.390   4.728   7.798 -0.6523  1.2422 -2.9045
  189SLPC  H11Y21884   3.233   4.659   7.857  1.1848 -0.0774  2.7272
  189SLPC  C31221885   3.291   4.835   7.964 -0.3088 -0.2932  0.0812
  189SLPC  H12X21886   3.189   4.874   7.984 -1.0494 -1.5114 -1.1292
  189SLPC  H12Y21887   3.362   4.920   7.966 -0.6677  0.1726 -2.7669
  189SLPC  C31321888   3.351   4.761   8.079 -0.0991 -0.2198 -0.8939
  189SLPC  H13X21889   3.449   4.713   8.056 -0.1891 -0.0775 -1.5705
  189SLPC  H13Y21890   3.286   4.671   8.085 -0.2460 -0.1936 -1.9637
  189SLPC  C31421891   3.339   4.829   8.216  0.5479  0.3868 -0.0361
  189SLPC  H14X21892   3.234   4.834   8.251  0.7358 -0.9830  0.7906
  189SLPC  H14Y21893   3.370   4.934   8.195  0.0198  0.2767 -1.4816
  189SLPC  C31521894   3.432   4.783   8.330  0.1120  0.6757  0.3991
  189SLPC  H15X21895   3.408   4.677   8.352 -1.4500  0.9468  0.1353
  189SLPC  H15Y21896   3.398   4.838   8.420  1.1181  1.0025  0.5858
  189SLPC  C31621897   3.576   4.830   8.314  0.4824  0.6960 -0.3920
  189SLPC  H16X21898   3.601   4.891   8.404  1.1650 -1.4671  0.9463
  189SLPC  H16Y21899   3.581   4.883   8.216 -2.6201 -0.1637 -1.1025
  189SLPC  C31721900   3.664   4.699   8.305 -0.6327  0.8523 -0.6782
  189SLPC  H17X21901   3.645   4.647   8.209  2.6989 -0.6431 -0.6584
  189SLPC  H17Y21902   3.632   4.628   8.384  1.2007  2.4489  1.6652
  189SLPC  C31821903   3.815   4.720   8.330  0.0314 -0.0497  0.0190
  189SLPC  H18X21904   3.872   4.630   8.300 -1.9403 -1.4996  0.4027
  189SLPC  H18Y21905   3.825   4.738   8.440 -1.0513  3.2486 -0.2961
  189SLPC  H18Z21906   3.856   4.815   8.288  0.2419  0.0735  0.4909
  190SLPC     N21907   4.420   3.692   6.030  1.1829 -0.0446  0.1417
  190SLPC   C1321908   4.294   3.608   6.018 -0.2198 -0.1974  0.3828
  190SLPC  H13A21909   4.241   3.608   5.925 -0.1957 -0.3992  0.3691
  190SLPC  H13B21910   4.329   3.506   6.027 -0.1548 -0.2997 -0.9049
  190SLPC  H13C21911   4.223   3.633   6.096  0.3776 -0.6229  1.0808
  190SLPC   C1421912   4.379   3.839   6.006  0.2670  0.1927 -0.3640
  190SLPC  H14A21913   4.318   3.845   5.917 -0.2026 -2.0115 -0.2524
  190SLPC  H14B21914   4.311   3.866   6.086  2.0097  1.4755  0.7666
  190SLPC  H14C21915   4.465   3.904   6.009  1.4900 -1.1558 -2.9549
  190SLPC   C1521916   4.509   3.646   5.920  0.3900  0.0263 -0.0294
  190SLPC  H15A21917   4.584   3.723   5.907  0.4637  0.3333  1.9386
  190SLPC  H15B21918   4.556   3.554   5.949  0.5718  0.0715 -0.1809
  190SLPC  H15C21919   4.448   3.642   5.831  0.9383 -1.7159 -0.3693
  190SLPC   C1221920   4.492   3.685   6.162  0.5701  0.1818  0.0646
  190SLPC  H12A21921   4.576   3.752   6.154 -0.0524  1.0731  0.7925
  190SLPC  H12B21922   4.527   3.583   6.174  0.5542  0.3135  1.4595
  190SLPC   C1121923   4.402   3.717   6.292  0.2430  0.7240  0.2301
  190SLPC  H11A21924   4.358   3.818   6.278 -1.3946 -0.1904 -1.9501
  190SLPC  H11B21925   4.460   3.711   6.387 -0.9839 -2.7041  0.9155
  190SLPC     P21926   4.316   3.484   6.356 -0.3558 -0.0190 -0.0568
  190SLPC   O1321927   4.198   3.406   6.308 -0.1890  0.4867 -0.0834
  190SLPC   O1421928   4.448   3.427   6.318 -0.2418  0.0742  0.1719
  190SLPC   O1221929   4.287   3.632   6.297  0.4153  0.6765  0.3793
  190SLPC   O1121930   4.305   3.498   6.506 -0.0056 -0.2361  0.0930
  190SLPC    C121931   4.195   3.578   6.563  0.0054 -1.1503 -0.6436
  190SLPC    HA21932   4.233   3.670   6.614 -2.6036  0.6205 -1.6870
  190SLPC    HB21933   4.128   3.624   6.487 -0.0101 -0.8033 -0.4240
  190SLPC    C221934   4.114   3.508   6.672  0.3908  0.3740  0.0379
  190SLPC    HS21935   4.013   3.555   6.665  0.0077 -0.4920 -0.3468
  190SLPC   O2121936   4.171   3.528   6.802 -0.4857 -0.1272 -0.0418
  190SLPC   C2121937   4.088   3.530   6.900 -0.2407 -0.1254  0.0118
  190SLPC   O2221938   3.961   3.543   6.887 -0.5822 -0.4184  0.0856
  190SLPC   C2221939   4.165   3.538   7.037 -0.5680  0.1078 -0.0508
  190SLPC   H2R21940   4.241   3.457   7.038  0.8706  1.3438 -1.6146
  190SLPC   H2S21941   4.221   3.633   7.029  0.3579 -0.4068  0.1585
  190SLPC    C321942   4.093   3.357   6.646 -0.1089 -0.4161 -0.1831
  190SLPC    HX21943   4.198   3.321   6.657  0.1010  0.2635  0.1200
  190SLPC    HY21944   4.060   3.337   6.542  2.3315 -0.4080 -1.0308
  190SLPC   O3121945   4.016   3.291   6.750 -0.7517  0.1670 -0.1047
  190SLPC   C3121946   3.885   3.286   6.735 -0.6322  0.0572 -0.3755
  190SLPC   O3221947   3.820   3.328   6.638 -0.1704  0.0236 -0.2787
  190SLPC   C3221948   3.824   3.214   6.863 -0.3988  0.4489 -0.0892
  190SLPC   H2X21949   3.901   3.232   6.942  0.7202 -0.2981 -0.9707
  190SLPC   H2Y21950   3.816   3.104   6.847  0.2520  0.0901  1.8054
  190SLPC   C2321951   4.072   3.536   7.158  0.0840 -0.4149 -0.4613
  190SLPC   H3R21952   3.989   3.463   7.144 -1.0133  0.4170  1.2505
  190SLPC   H3S21953   4.021   3.635   7.162  0.5890 -0.1652 -0.0796
  190SLPC   C2421954   4.134   3.517   7.292 -0.8770  0.2471 -0.0577
  190SLPC   H4R21955   4.213   3.594   7.309  1.0011 -1.5740 -0.0747
  190SLPC   H4S21956   4.184   3.418   7.298  2.3123  1.5807 -1.9407
  190SLPC   C2521957   4.037   3.523   7.410  0.1090  0.3180  0.0099
  190SLPC   H5R21958   4.099   3.509   7.501  0.5794  1.0711 -0.1807
  190SLPC   H5S21959   3.965   3.439   7.417 -1.5198  1.7085  0.3364
  190SLPC   C2621960   3.953   3.653   7.421 -0.0005 -0.2970  0.2356
  190SLPC   H6R21961   3.867   3.639   7.352 -0.3520  0.0939  0.5831
  190SLPC   H6S21962   4.011   3.741   7.386  1.9639 -1.4533  0.4537
  190SLPC   C2721963   3.886   3.695   7.555  0.0844  0.4538 -0.2613
  190SLPC   H7R21964   3.816   3.612   7.580  0.2940 -0.0218 -1.2051
  190SLPC   H7S21965   3.819   3.782   7.537 -0.9250 -0.0563  0.9091
  190SLPC   C2821966   3.974   3.725   7.679  0.2142  0.6434  0.4451
  190SLPC   H8R21967   4.042   3.808   7.650  0.2557  0.3047 -0.4670
  190SLPC   H8S21968   4.049   3.645   7.694  1.0873  1.7177  2.1761
  190SLPC   C2921969   3.916   3.765   7.811  0.1051  0.5793  0.2648
  190SLPC   H9R21970   3.934   3.867   7.848 -2.5594  0.7576  1.3215
  190SLPC  C21021971   3.828   3.690   7.878  0.6631  0.1810 -0.4842
  190SLPC  H10R21972   3.791   3.729   7.974 -3.4947 -1.5268 -1.2037
  190SLPC  C21121973   3.773   3.552   7.850  0.5509 -0.0244  0.5597
  190SLPC  H11R21974   3.821   3.495   7.767 -2.2658 -1.2690 -0.3172
  190SLPC  H11S21975   3.669   3.574   7.820  0.8500  0.3669 -0.2406
  190SLPC  C21221976   3.775   3.468   7.977 -0.4147  0.4429  0.3236
  190SLPC  H12R21977   3.857   3.400   8.006  0.7783  3.1175  3.9294
  190SLPC  C21321978   3.688   3.478   8.079 -0.9007 -0.1605  0.0693
  190SLPC  H13R21979   3.708   3.402   8.156  0.7802 -1.1446 -1.2523
  190SLPC  C21421980   3.571   3.572   8.097  1.0881 -0.3126 -0.9419
  190SLPC  H14R21981   3.481   3.510   8.119  2.5196 -1.2882  2.9809
  190SLPC  H14S21982   3.545   3.624   8.002  1.4532  1.4067 -0.1447
  190SLPC  C21521983   3.599   3.661   8.214  0.6875 -0.2408 -0.2696
  190SLPC  H15R21984   3.502   3.715   8.227  0.5092 -0.4431 -0.7491
  190SLPC  H15S21985   3.690   3.721   8.196  1.2497 -1.1654 -0.5351
  190SLPC  C21621986   3.627   3.593   8.353 -0.1719 -0.7465  0.0094
  190SLPC  H16R21987   3.727   3.546   8.348  0.9473  1.6175 -2.2454
  190SLPC  H16S21988   3.548   3.516   8.366 -1.8970  0.5977 -1.8391
  190SLPC  C21721989   3.633   3.680   8.475 -0.2218  0.3910 -0.1171
  190SLPC  H17R21990   3.538   3.736   8.491  0.7976  1.7116  1.7954
  190SLPC  H17S21991   3.709   3.758   8.452 -0.9552  1.0361 -0.4040
  190SLPC  C21821992   3.649   3.598   8.603  0.4061  0.3221 -0.1689
  190SLPC  H18R21993   3.635   3.670   8.687 -1.9056 -0.1225 -0.1028
  190SLPC  H18S21994   3.742   3.537   8.611  0.2606  0.2344  1.1375
  190SLPC  H18T21995   3.559   3.534   8.604  1.9507 -1.9776  1.4195
  190SLPC   C3321996   3.683   3.268   6.893  0.2825  0.1007 -0.0630
  190SLPC   H3X21997   3.622   3.244   6.803 -1.0125 -0.9129  1.0556
  190SLPC   H3Y21998   3.687   3.378   6.911 -2.2339  0.9186 -3.3272
  190SLPC   C3421999   3.620   3.191   7.009  0.3550  0.0103 -0.2229
  190SLPC   H4X22000   3.660   3.238   7.101  0.5766 -0.8234  0.1112
  190SLPC   H4Y22001   3.637   3.081   7.012  1.3149  0.1557 -0.2209
  190SLPC   C3522002   3.466   3.198   7.022 -0.6364  0.0742  0.0892
  190SLPC   H5X22003   3.412   3.211   6.926  0.3182  3.3775 -0.1031
  190SLPC   H5Y22004   3.446   3.292   7.076 -0.7884 -0.1160  0.3688
  190SLPC   C3622005   3.404   3.078   7.096  0.5061  0.1604 -0.6720
  190SLPC   H6X22006   3.431   2.977   7.058  1.6778  0.2345 -0.0758
  190SLPC   H6Y22007   3.295   3.087   7.073  0.5007  1.1271 -0.2961
  190SLPC   C3722008   3.408   3.071   7.252 -0.1175 -0.1391  0.2962
  190SLPC   H7X22009   3.396   3.171   7.299 -0.6221  0.6952 -1.5167
  190SLPC   H7Y22010   3.507   3.029   7.280 -0.8672 -2.2566 -0.0537
  190SLPC   C3822011   3.286   3.001   7.299  0.5033  0.8176  0.3180
  190SLPC   H8X22012   3.290   2.893   7.272 -3.3649  0.2004  1.5553
  190SLPC   H8Y22013   3.189   3.034   7.255 -0.1523 -0.1336  0.9912
  190SLPC   C3922014   3.298   2.997   7.451  1.0347  0.1625  0.6038
  190SLPC   H9X22015   3.286   3.096   7.499 -0.4662  0.8014 -0.9838
  190SLPC   H9Y22016   3.404   2.969   7.471  0.4680 -1.4649  1.5007
  190SLPC  C31022017   3.220   2.882   7.524  0.6561  0.2982 -0.2093
  190SLPC  H10X22018   3.273   2.795   7.479 -0.3416  0.6373 -2.1756
  190SLPC  H10Y22019   3.109   2.878   7.515  0.6140 -2.6885  0.6000
  190SLPC  C31122020   3.250   2.890   7.674  0.1771  0.1831  0.6615
  190SLPC  H11X22021   3.233   2.995   7.708 -1.2151  0.2946 -0.3081
  190SLPC  H11Y22022   3.359   2.874   7.689  0.5222  0.3388 -1.3780
  190SLPC  C31222023   3.165   2.789   7.752  0.7072 -0.1041 -0.0025
  190SLPC  H12X22024   3.194   2.685   7.727 -0.6257 -0.0068 -2.2432
  190SLPC  H12Y22025   3.062   2.808   7.714  1.1355  1.5799 -0.4516
  190SLPC  C31322026   3.172   2.818   7.908  0.1434  0.0938 -0.8994
  190SLPC  H13X22027   3.128   2.918   7.925 -2.0505 -0.8655 -0.6983
  190SLPC  H13Y22028   3.274   2.803   7.950 -0.0122 -0.5923 -0.7573
  190SLPC  C31422029   3.075   2.735   7.995  0.5861  0.0374  0.0235
  190SLPC  H14X22030   3.097   2.626   7.987  0.5443  0.0040  0.3249
  190SLPC  H14Y22031   2.972   2.771   7.976  1.1484  1.5678 -0.2206
  190SLPC  C31522032   3.101   2.750   8.148 -0.8488  0.1825 -0.2328
  190SLPC  H15X22033   3.207   2.719   8.156 -1.0036 -1.2212 -2.7742
  190SLPC  H15Y22034   3.039   2.673   8.200 -1.3809  0.4146 -0.5160
  190SLPC  C31622035   3.090   2.891   8.202 -0.5675 -0.1302  0.2584
  190SLPC  H16X22036   2.986   2.922   8.179 -1.7368 -2.2451  2.2044
  190SLPC  H16Y22037   3.154   2.956   8.139  0.6409 -1.2878  0.2571
  190SLPC  C31722038   3.123   2.902   8.351 -0.5429  0.3022  0.0579
  190SLPC  H17X22039   3.230   2.898   8.378 -1.3950  0.4977  4.1446
  190SLPC  H17Y22040   3.082   2.810   8.399  0.3335  0.3504  0.9459
  190SLPC  C31822041   3.056   3.031   8.406  0.3286 -0.5502  0.0661
  190SLPC  H18X22042   3.069   3.036   8.516  2.1012 -0.3158 -0.1306
  190SLPC  H18Y22043   2.949   3.044   8.378  0.1810  1.9880  1.4935
  190SLPC  H18Z22044   3.113   3.120   8.370  1.4674 -1.0024  0.6980
  191SLPC     N22045   3.754   5.772   5.843 -0.3185 -0.4210 -0.1355
  191SLPC   C1322046   3.870   5.790   5.924 -0.1930  0.3144 -0.4654
  191SLPC  H13A22047   3.834   5.806   6.025  0.3766 -0.8316 -0.0592
  191SLPC  H13B22048   3.929   5.700   5.931 -0.8565 -0.0507  0.7513
  191SLPC  H13C22049   3.929   5.880   5.915 -1.6292  1.4645  0.9320
  191SLPC   C1422050   3.703   5.636   5.866 -0.6284  0.0031 -0.4574
  191SLPC  H14A22051   3.610   5.626   5.812  0.4558 -0.1888 -2.3461
  191SLPC  H14B22052   3.773   5.562   5.831  0.1115  0.4453  0.0709
  191SLPC  H14C22053   3.691   5.626   5.973  1.5382  3.9151  0.3343
  191SLPC   C1522054   3.787   5.793   5.704 -0.8547 -0.7061  0.2823
  191SLPC  H15A22055   3.694   5.791   5.648 -0.6268  0.4431 -0.1584
  191SLPC  H15B22056   3.837   5.887   5.691  1.1846 -1.7836  0.0128
  191SLPC  H15C22057   3.842   5.710   5.662 -0.0922 -1.2695  2.2676
  191SLPC   C1222058   3.645   5.871   5.878 -0.3441 -0.1853 -0.0991
  191SLPC  H12A22059   3.686   5.970   5.883 -1.6467  0.3179  1.4402
  191SLPC  H12B22060   3.610   5.858   5.979  1.4029  0.2972  0.5984
  191SLPC   C1122061   3.527   5.882   5.785 -0.2188  0.1576 -0.7148
  191SLPC  H11A22062   3.558   5.920   5.685 -0.0926  0.9255 -0.3874
  191SLPC  H11B22063   3.462   5.961   5.827 -1.4628 -1.1220 -0.1476
  191SLPC     P22064   3.331   5.718   5.850  0.1802 -0.1283 -0.3106
  191SLPC   O1322065   3.241   5.834   5.868  0.3685 -0.2367  0.5906
  191SLPC   O1422066   3.275   5.597   5.784 -0.1974  0.0077  0.4530
  191SLPC   O1222067   3.454   5.760   5.771 -0.0018  0.1778  0.0937
  191SLPC   O1122068   3.391   5.676   5.993  0.5903  0.3531 -0.1203
  191SLPC    C122069   3.336   5.705   6.123 -0.1407  0.4161  0.2406
  191SLPC    HA22070   3.230   5.737   6.122 -0.7981 -1.3331  3.2097
  191SLPC    HB22071   3.331   5.611   6.183  0.4185  0.4891  0.4083
  191SLPC    C222072   3.415   5.816   6.193 -0.3153 -0.0055  0.6816
  191SLPC    HS22073   3.522   5.799   6.167 -0.8892  0.5009 -2.3324
  191SLPC   O2122074   3.381   5.800   6.334 -0.0639  0.4560 -0.0453
  191SLPC   C2122075   3.472   5.857   6.421 -0.2950  0.0037  0.4793
  191SLPC   O2222076   3.580   5.898   6.386  0.1162  0.4016 -0.2988
  191SLPC   C2222077   3.410   5.852   6.561 -0.5907  0.5861 -0.2349
  191SLPC   H2R22078   3.332   5.931   6.571 -0.8732  0.1274  1.6028
  191SLPC   H2S22079   3.367   5.750   6.564 -3.2837  1.6512  0.6616
  191SLPC    C322080   3.373   5.958   6.159 -0.5989  0.1539 -0.0884
  191SLPC    HX22081   3.335   5.966   6.055 -0.3387  1.0254 -0.1235
  191SLPC    HY22082   3.460   6.026   6.173 -0.4876  0.1695 -0.8256
  191SLPC   O3122083   3.260   5.997   6.236  0.0318  0.3355 -0.1867
  191SLPC   C3122084   3.281   6.088   6.328 -0.0992  0.3659  0.7331
  191SLPC   O3222085   3.388   6.147   6.351 -0.1340 -0.4918 -1.1866
  191SLPC   C3222086   3.156   6.104   6.402 -0.3409  0.2692  0.6451
  191SLPC   H2X22087   3.149   6.016   6.471 -1.8023 -0.2456 -0.1176
  191SLPC   H2Y22088   3.065   6.096   6.339  0.3162  0.9431 -0.4109
  191SLPC   C2322089   3.518   5.861   6.669  0.8624  0.5428 -0.4703
  191SLPC   H3R22090   3.604   5.799   6.638  0.4771 -1.2041  1.6865
  191SLPC   H3S22091   3.485   5.821   6.767  0.8069  2.3235  0.2603
  191SLPC   C2422092   3.567   6.001   6.679 -0.0986 -0.0326  0.2372
  191SLPC   H4R22093   3.492   6.071   6.637  0.6789 -0.1183 -1.3570
  191SLPC   H4S22094   3.647   6.028   6.607  1.2971  0.2851  1.8374
  191SLPC   C2522095   3.596   6.044   6.824 -0.0035 -0.8209  0.1621
  191SLPC   H5R22096   3.503   6.035   6.884 -0.1415  0.1932  0.1130
  191SLPC   H5S22097   3.622   6.151   6.839  0.7882 -1.0142  0.1972
  191SLPC   C2622098   3.713   5.974   6.895 -0.0494 -0.0390  0.5018
  191SLPC   H6R22099   3.811   5.994   6.846 -1.4800  1.3816 -2.0096
  191SLPC   H6S22100   3.697   5.864   6.892 -0.1116 -0.0194 -1.0915
  191SLPC   C2722101   3.714   6.014   7.046  0.1617 -0.1847 -0.4082
  191SLPC   H7R22102   3.622   5.976   7.096 -0.3255  0.7798 -0.5427
  191SLPC   H7S22103   3.725   6.124   7.056  1.1285 -0.2210 -0.9180
  191SLPC   C2822104   3.838   5.956   7.126 -0.2666  0.0137  0.1548
  191SLPC   H8R22105   3.849   5.847   7.104 -0.8845 -0.1411  0.5788
  191SLPC   H8S22106   3.807   5.949   7.232 -0.7092 -0.4462 -0.0008
  191SLPC   C2922107   3.966   6.032   7.100  0.3140  0.3149  0.2825
  191SLPC   H9R22108   4.001   6.019   6.996 -1.5526  2.0020 -0.6098
  191SLPC  C21022109   4.029   6.113   7.188 -0.1529 -0.3299  0.1415
  191SLPC  H10R22110   4.121   6.160   7.151 -1.8132  1.8734 -1.3885
  191SLPC  C21122111   3.978   6.138   7.329  0.2104 -0.6590 -0.3643
  191SLPC  H11R22112   4.074   6.110   7.378 -0.1150 -3.5368 -1.1791
  191SLPC  H11S22113   3.903   6.067   7.370  1.2009 -0.3943  2.1190
  191SLPC  C21222114   3.936   6.281   7.349 -0.5282  0.2320  0.5054
  191SLPC  H12R22115   3.880   6.337   7.272 -1.3427  0.2344  1.0914
  191SLPC  C21322116   3.955   6.349   7.464  0.6150 -0.2198  0.5832
  191SLPC  H13R22117   3.919   6.451   7.482 -1.5544 -0.9966  1.0477
  191SLPC  C21422118   4.025   6.284   7.584 -0.2603  0.2560  0.5234
  191SLPC  H14R22119   4.114   6.344   7.611  0.0625 -0.4378  1.0276
  191SLPC  H14S22120   4.067   6.184   7.561  1.4453  0.9201  0.6000
  191SLPC  C21522121   3.946   6.281   7.712 -0.1964 -0.3910  0.3628
  191SLPC  H15R22122   3.912   6.384   7.734 -0.2094 -0.2398 -0.3424
  191SLPC  H15S22123   4.012   6.239   7.791 -0.5714 -0.0292  0.8708
  191SLPC  C21622124   3.815   6.199   7.705  0.3974  0.0371  0.3089
  191SLPC  H16R22125   3.843   6.112   7.641 -2.7399  0.9320 -2.6028
  191SLPC  H16S22126   3.737   6.247   7.641  1.0159  2.3527  1.1999
  191SLPC  C21722127   3.759   6.158   7.836  0.1743 -0.0993 -0.1116
  191SLPC  H17R22128   3.727   6.256   7.876 -2.5586  0.0713 -2.3736
  191SLPC  H17S22129   3.836   6.102   7.893 -1.1222 -2.2203 -0.3113
  191SLPC  C21822130   3.643   6.054   7.831  0.4228  0.2221 -0.3169
  191SLPC  H18R22131   3.572   6.091   7.754  0.5102 -0.5622 -0.7886
  191SLPC  H18S22132   3.594   6.046   7.930  0.8559 -4.1239 -0.2777
  191SLPC  H18T22133   3.683   5.953   7.805  0.9854 -0.0043  1.2864
  191SLPC   C3322134   3.146   6.249   6.458 -0.0414  0.4222  0.4190
  191SLPC   H3X22135   3.039   6.274   6.474 -0.0820  0.5795 -0.0833
  191SLPC   H3Y22136   3.171   6.320   6.376  2.7420  0.6735  1.3667
  191SLPC   C3422137   3.233   6.297   6.573  0.3307  0.3146 -0.0543
  191SLPC   H4X22138   3.227   6.408   6.566 -2.1335  0.1352 -2.6134
  191SLPC   H4Y22139   3.337   6.259   6.579  0.8771  1.8570  0.6965
  191SLPC   C3522140   3.174   6.254   6.707  0.3811 -0.3293  0.3939
  191SLPC   H5X22141   3.193   6.146   6.720  1.6285 -0.1171  0.4828
  191SLPC   H5Y22142   3.064   6.269   6.706  0.3742 -0.2542  1.2639
  191SLPC   C3622143   3.235   6.325   6.832  0.2510  0.5823  0.0968
  191SLPC   H6X22144   3.268   6.431   6.824  2.2964  0.0496  0.8692
  191SLPC   H6Y22145   3.330   6.276   6.861  0.2365 -0.3659 -1.3857
  191SLPC   C3722146   3.124   6.302   6.938 -0.1405 -0.0401 -0.2136
  191SLPC   H7X22147   3.094   6.195   6.939  1.2158 -0.4298  0.0300
  191SLPC   H7Y22148   3.034   6.364   6.917 -1.0722  0.2662  3.7874
  191SLPC   C3822149   3.178   6.329   7.079  0.1049 -0.0742 -0.3989
  191SLPC   H8X22150   3.235   6.424   7.075  1.4594 -0.7859  1.1783
  191SLPC   H8Y22151   3.257   6.255   7.106  0.4139  0.0340 -1.0045
  191SLPC   C3922152   3.066   6.323   7.189 -0.1989 -0.5127  0.2481
  191SLPC   H9X22153   2.997   6.240   7.163 -0.0063 -0.8118  0.6714
  191SLPC   H9Y22154   3.010   6.419   7.200  0.1539 -0.3845  0.9737
  191SLPC  C31022155   3.125   6.290   7.329  0.1491  0.2127  0.7778
  191SLPC  H10X22156   3.187   6.379   7.354  0.8494  0.0034 -0.1642
  191SLPC  H10Y22157   3.195   6.204   7.321 -1.3080 -0.9903  0.5225
  191SLPC  C31122158   3.028   6.279   7.436  0.0916  0.8643  0.5202
  191SLPC  H11X22159   3.071   6.251   7.535 -1.4428 -0.6439  0.7912
  191SLPC  H11Y22160   2.957   6.199   7.407  0.3760  1.2827 -1.5018
  191SLPC  C31222161   2.945   6.402   7.467  0.1951  0.2687  0.9565
  191SLPC  H12X22162   2.889   6.429   7.375  0.0578 -3.2003 -0.1398
  191SLPC  H12Y22163   3.016   6.484   7.486 -1.6821  2.3232 -0.3701
  191SLPC  C31322164   2.853   6.393   7.588 -0.4936 -0.1399  0.5168
  191SLPC  H13X22165   2.789   6.303   7.580 -0.3629 -0.1553 -0.3584
  191SLPC  H13Y22166   2.785   6.481   7.591  1.5950  1.5631  2.1340
  191SLPC  C31422167   2.911   6.385   7.724 -0.6556  0.2716  0.7400
  191SLPC  H14X22168   2.977   6.474   7.741 -0.4170  0.8876 -2.7509
  191SLPC  H14Y22169   2.967   6.289   7.724  1.2010  1.2791 -0.3875
  191SLPC  C31522170   2.811   6.390   7.838 -0.2959 -1.1680 -0.9380
  191SLPC  H15X22171   2.748   6.304   7.868 -0.5278 -1.0910 -1.1960
  191SLPC  H15Y22172   2.737   6.468   7.809  1.2215 -0.4544 -3.1064
  191SLPC  C31622173   2.874   6.446   7.966 -0.2576  0.2685  0.0193
  191SLPC  H16X22174   2.914   6.547   7.941 -1.3242  0.3747 -1.3555
  191SLPC  H16Y22175   2.949   6.372   8.000 -0.9151 -0.5750 -0.3465
  191SLPC  C31722176   2.775   6.463   8.086 -0.5423  0.1590  0.3198
  191SLPC  H17X22177   2.759   6.374   8.151  3.5060 -0.5390  0.6019
  191SLPC  H17Y22178   2.673   6.494   8.054 -0.2279 -0.8407 -1.8770
  191SLPC  C31822179   2.838   6.557   8.187  0.0484  0.4524  0.4095
  191SLPC  H18X22180   2.940   6.526   8.217 -0.8031 -1.3157  1.6881
  191SLPC  H18Y22181   2.772   6.573   8.275  0.4796 -0.9867  1.0254
  191SLPC  H18Z22182   2.842   6.658   8.142  2.6482  0.6561  0.9454
  192SLPC     N22183   4.936   6.656   6.372  0.2251 -0.0145 -0.4000
  192SLPC   C1322184   4.892   6.752   6.483  0.1618 -0.0928 -1.1330
  192SLPC  H13A22185   4.866   6.845   6.434 -0.5552 -0.3348 -1.2132
  192SLPC  H13B22186   4.806   6.714   6.537 -1.0077  0.7147 -2.3638
  192SLPC  H13C22187   4.962   6.777   6.562 -1.4660  0.3538  0.2341
  192SLPC   C1422188   4.817   6.617   6.291  0.1904 -0.3496 -0.0781
  192SLPC  H14A22189   4.845   6.541   6.220 -0.7522  1.6712 -2.8360
  192SLPC  H14B22190   4.736   6.589   6.356 -0.4786 -1.2923 -1.2720
  192SLPC  H14C22191   4.767   6.698   6.239  1.1110  0.6318  0.5334
  192SLPC   C1522192   4.982   6.531   6.444  0.1712 -0.4174 -0.0068
  192SLPC  H15A22193   5.007   6.453   6.374 -0.8946 -1.5027  0.7820
  192SLPC  H15B22194   5.066   6.541   6.512 -2.3722  1.1140  3.1888
  192SLPC  H15C22195   4.900   6.498   6.506  0.7150  0.1587  1.0693
  192SLPC   C1222196   5.047   6.704   6.282  0.8832 -0.2418  0.4886
  192SLPC  H12A22197   5.068   6.624   6.214  1.2318  0.6680 -0.5105
  192SLPC  H12B22198   5.130   6.714   6.351  0.6558 -0.6636  0.8289
  192SLPC   C1122199   5.019   6.832   6.194 -0.2758  0.4218 -0.1092
  192SLPC  H11A22200   4.929   6.804   6.135 -0.4982 -0.8034  0.7496
  192SLPC  H11B22201   5.098   6.842   6.117  0.1909  0.3620  0.3537
  192SLPC     P22202   5.136   7.034   6.298  0.0439  0.5415 -0.0315
  192SLPC   O1322203   5.263   6.965   6.248  0.6764 -0.1314  0.0529
  192SLPC   O1422204   5.115   7.165   6.245 -0.1002  0.0604  0.2393
  192SLPC   O1222205   5.005   6.948   6.265 -0.2182  0.2170  0.2874
  192SLPC   O1122206   5.135   7.028   6.454 -0.0347 -0.2481  0.0739
  192SLPC    C122207   5.209   6.936   6.523 -0.2737  0.6071  0.3570
  192SLPC    HA22208   5.157   6.837   6.526  0.2437  0.2609 -1.2943
  192SLPC    HB22209   5.312   6.917   6.487 -0.7098 -1.9630  0.2795
  192SLPC    C222210   5.239   6.985   6.671 -0.2929  0.5613 -0.3713
  192SLPC    HS22211   5.261   6.896   6.733 -0.0962  0.6037 -0.3818
  192SLPC   O2122212   5.124   7.047   6.721 -0.4131  0.4660  0.1278
  192SLPC   C2122213   5.017   6.966   6.747  0.2042  0.1947 -0.1484
  192SLPC   O2222214   5.021   6.846   6.756  0.2724  0.1712  0.2179
  192SLPC   C2222215   4.893   7.045   6.788  0.0773 -0.3338 -0.0999
  192SLPC   H2R22216   4.902   7.106   6.881 -0.7090 -1.1596  0.5356
  192SLPC   H2S22217   4.879   7.124   6.712 -1.0310 -0.2829  0.1525
  192SLPC    C322218   5.359   7.083   6.674  0.1253  0.0320  0.0097
  192SLPC    HX22219   5.342   7.160   6.596  2.2394  1.9761  1.3450
  192SLPC    HY22220   5.453   7.029   6.651 -0.0580 -0.0634 -0.5175
  192SLPC   O3122221   5.361   7.153   6.803 -0.4019 -0.3241 -0.0092
  192SLPC   C3122222   5.407   7.282   6.802 -0.2394  0.6281 -0.0939
  192SLPC   O3222223   5.459   7.337   6.708  0.0874  0.3299  0.5053
  192SLPC   C3222224   5.374   7.359   6.938  0.2340  0.3042  0.3722
  192SLPC   H2X22225   5.286   7.315   6.989  1.1080 -0.1061  1.5701
  192SLPC   H2Y22226   5.350   7.463   6.907  0.9102  0.4901  0.4610
  192SLPC   C2322227   4.766   6.962   6.821 -0.0187  0.1391 -0.4645
  192SLPC   H3R22228   4.770   6.877   6.750  1.3912 -2.2508  2.2761
  192SLPC   H3S22229   4.670   7.017   6.808  1.0877  2.3744  0.3298
  192SLPC   C2422230   4.781   6.909   6.965  0.2432 -0.0911 -0.2774
  192SLPC   H4R22231   4.798   6.993   7.036 -0.5262 -0.4799  0.3969
  192SLPC   H4S22232   4.877   6.854   6.955  1.1732  1.2001  1.0322
  192SLPC   C2522233   4.662   6.820   7.008 -0.3370 -0.3177 -0.6280
  192SLPC   H5R22234   4.646   6.734   6.940 -0.6661 -0.8682  0.1260
  192SLPC   H5S22235   4.568   6.878   7.023 -1.0449 -1.6946  0.5951
  192SLPC   C2622236   4.679   6.746   7.141  0.0769  0.2282 -0.4679
  192SLPC   H6R22237   4.774   6.691   7.123  0.9484  0.9547  1.5981
  192SLPC   H6S22238   4.594   6.676   7.160  0.6668 -0.8369 -1.6036
  192SLPC   C2722239   4.685   6.840   7.261 -0.3619  0.7651 -0.1374
  192SLPC   H7R22240   4.616   6.923   7.237 -2.2225 -0.7655 -0.3304
  192SLPC   H7S22241   4.790   6.876   7.261  0.3530 -1.2036 -0.2317
  192SLPC   C2822242   4.652   6.770   7.395 -0.2651 -0.3862 -0.4918
  192SLPC   H8R22243   4.554   6.720   7.386 -0.0586 -1.0562  0.6779
  192SLPC   H8S22244   4.653   6.854   7.469 -0.1174 -1.1275  0.3625
  192SLPC   C2922245   4.752   6.664   7.420 -0.6853  0.2480 -0.1243
  192SLPC   H9R22246   4.749   6.580   7.348  1.7316  0.4676 -0.5747
  192SLPC  C21022247   4.842   6.661   7.519 -0.2608 -0.1554  0.6911
  192SLPC  H10R22248   4.919   6.582   7.518  0.3726  0.4526  0.7858
  192SLPC  C21122249   4.861   6.781   7.610 -0.4243 -0.4826  0.1142
  192SLPC  H11R22250   4.778   6.789   7.684  0.3854  1.4717  0.8815
  192SLPC  H11S22251   4.875   6.873   7.550  1.9716 -0.3109  0.8296
  192SLPC  C21222252   4.986   6.756   7.681 -0.6942 -0.0866 -0.1705
  192SLPC  H12R22253   5.073   6.810   7.642 -0.8606  0.4320  0.1730
  192SLPC  C21322254   5.000   6.672   7.780  0.0019 -0.2665 -0.3824
  192SLPC  H13R22255   5.103   6.662   7.820 -0.0003  0.8808 -0.0406
  192SLPC  C21422256   4.883   6.593   7.843 -0.3451  0.0061  0.1489
  192SLPC  H14R22257   4.912   6.498   7.893 -0.1476 -0.0130 -0.0006
  192SLPC  H14S22258   4.827   6.557   7.755  1.2318 -1.2340 -0.3879
  192SLPC  C21522259   4.797   6.670   7.946  0.0180  0.5809  0.3532
  192SLPC  H15R22260   4.707   6.607   7.967 -0.6525  1.4862  0.2608
  192SLPC  H15S22261   4.751   6.763   7.907 -0.9007 -0.3073 -0.7555
  192SLPC  C21622262   4.864   6.704   8.082  0.1452 -0.0094  1.1507
  192SLPC  H16R22263   4.908   6.804   8.063 -0.6265  0.2125  0.4481
  192SLPC  H16S22264   4.948   6.637   8.109 -0.2157 -0.7058  0.5989
  192SLPC  C21722265   4.763   6.751   8.189  0.8957 -0.2241  0.1177
  192SLPC  H17R22266   4.829   6.770   8.277  0.3919 -0.4908  0.5556
  192SLPC  H17S22267   4.713   6.846   8.161  1.9068  0.1126 -0.5919
  192SLPC  C21822268   4.657   6.653   8.246  0.0626  0.1517  0.0614
  192SLPC  H18R22269   4.566   6.680   8.189  1.1376 -0.5478 -2.1012
  192SLPC  H18S22270   4.640   6.665   8.355 -1.4733 -1.6560  0.0725
  192SLPC  H18T22271   4.677   6.550   8.208 -1.4962 -0.9628  2.0546
  192SLPC   C3322272   5.499   7.375   7.029  0.0269 -0.1580 -0.3437
  192SLPC   H3X22273   5.587   7.382   6.962 -2.4203  3.5891 -3.6267
  192SLPC   H3Y22274   5.494   7.283   7.092 -2.6624 -0.0036 -0.1967
  192SLPC   C3422275   5.501   7.498   7.128  0.8905  0.0668 -0.1728
  192SLPC   H4X22276   5.408   7.496   7.188  0.6818  0.2716 -0.4844
  192SLPC   H4Y22277   5.495   7.593   7.071 -1.4939  0.3931  0.5175
  192SLPC   C3522278   5.619   7.496   7.217  0.0859  0.2970 -0.5392
  192SLPC   H5X22279   5.703   7.546   7.165  0.3916 -0.3945 -0.7205
  192SLPC   H5Y22280   5.651   7.400   7.263  1.0160  1.7146  1.9453
  192SLPC   C3622281   5.584   7.590   7.342  0.5433 -0.3923 -0.0540
  192SLPC   H6X22282   5.528   7.527   7.415  0.3634 -1.1050 -0.8037
  192SLPC   H6Y22283   5.521   7.674   7.306  3.0651  1.4139 -0.4922
  192SLPC   C3722284   5.705   7.656   7.396  0.7032  0.2786  0.4024
  192SLPC   H7X22285   5.760   7.718   7.322 -1.0500  0.0893 -1.1312
  192SLPC   H7Y22286   5.783   7.580   7.423  2.3113  1.9848  0.7555
  192SLPC   C3822287   5.688   7.713   7.537 -0.1169 -0.0833  0.1730
  192SLPC   H8X22288   5.783   7.753   7.579 -0.1933 -0.3182  0.5718
  192SLPC   H8Y22289   5.664   7.626   7.601  0.9408  0.4985  1.4132
  192SLPC   C3922290   5.592   7.827   7.550  1.0495  0.1628  0.3329
  192SLPC   H9X22291   5.495   7.815   7.497  0.0619  1.0131  1.8438
  192SLPC   H9Y22292   5.631   7.914   7.493  2.4479  0.0919  1.1425
  192SLPC  C31022293   5.555   7.850   7.700 -1.3837  0.1645  0.0422
  192SLPC  H10X22294   5.654   7.868   7.747 -0.4606 -2.1966 -0.8772
  192SLPC  H10Y22295   5.513   7.760   7.749 -0.6296 -0.0950  0.2267
  192SLPC  C31122296   5.459   7.967   7.721  0.4899  0.0246 -0.0500
  192SLPC  H11X22297   5.406   7.954   7.818 -1.1247 -2.4036 -1.1706
  192SLPC  H11Y22298   5.379   7.965   7.644  0.8604 -0.4580 -0.4198
  192SLPC  C31222299   5.524   8.110   7.739  0.6631 -0.8787  0.8430
  192SLPC  H12X22300   5.435   8.175   7.728 -0.5542 -2.5147  0.6009
  192SLPC  H12Y22301   5.594   8.143   7.659 -0.8281 -1.2660 -0.6639
  192SLPC  C31322302   5.578   8.144   7.875 -0.4569 -0.3167  0.0498
  192SLPC  H13X22303   5.681   8.185   7.861  0.1372 -1.4733  0.8616
  192SLPC  H13Y22304   5.590   8.050   7.933 -0.9422  0.2568  1.1132
  192SLPC  C31422305   5.502   8.251   7.948  1.1753  0.2437  0.0935
  192SLPC  H14X22306   5.402   8.203   7.955  0.2375  2.1241  0.2343
  192SLPC  H14Y22307   5.501   8.344   7.888  1.6955  0.0714 -0.1846
  192SLPC  C31522308   5.567   8.283   8.087 -0.1505 -0.0758  0.4931
  192SLPC  H15X22309   5.673   8.314   8.077 -0.5962  1.9453  1.5040
  192SLPC  H15Y22310   5.578   8.189   8.145 -0.3948  0.7453  1.9324
  192SLPC  C31622311   5.503   8.384   8.175  0.6528  0.2968 -0.5843
  192SLPC  H16X22312   5.490   8.482   8.123  1.5025  0.7035 -0.0533
  192SLPC  H16Y22313   5.569   8.390   8.264  0.4528 -0.5943 -0.3700
  192SLPC  C31722314   5.365   8.341   8.226  0.0404  0.2941 -0.9351
  192SLPC  H17X22315   5.368   8.239   8.269 -1.6876  0.3660 -0.5867
  192SLPC  H17Y22316   5.294   8.331   8.141  1.3118 -2.6286 -1.7748
  192SLPC  C31822317   5.302   8.440   8.322 -0.6375  0.6950  0.0315
  192SLPC  H18X22318   5.317   8.544   8.285 -1.3925  0.8482  0.1349
  192SLPC  H18Y22319   5.351   8.429   8.421  0.4566  2.1957 -0.3070
  192SLPC  H18Z22320   5.193   8.421   8.332 -0.2904 -3.1869 -1.8821
  193SOD    SOD22321   1.623   1.158  11.250  0.2443 -0.4504 -0.0863
  194SOD    SOD22322   1.304   4.460  17.137 -0.3821  0.3042 -0.3883
  195SOD    SOD22323   2.176   4.188   2.920  0.0277  0.3641  0.1563
  196SOD    SOD22324   6.101   2.291  12.095  0.1158 -0.4683  0.6375
  197SOD    SOD22325   2.076   0.947   2.209  0.4817 -0.0264 -0.7366
  198SOD    SOD22326   0.045   4.299   1.681  0.4908 -0.4607 -0.2004
  199SOD    SOD22327   5.137   4.784  15.561  0.1356 -0.2631  0.0868
  200SOD    SOD22328   4.393   1.082   0.090  0.5147  0.2997  0.0225
  201SOD    SOD22329   6.367   4.154  12.993 -0.1588  0.3639 -0.2123
  202SOD    SOD22330   5.110   3.101   1.240  0.4945  0.2024 -0.3436
  203SOD    SOD22331   2.286   2.692  11.523  0.4024  0.0806  0.3951
  204SOD    SOD22332   5.680   0.177   4.519 -0.2510 -0.4304 -0.5145
  205SOD    SOD22333   4.808   2.778   0.126  0.0902 -0.2362 -0.1823
  206SOD    SOD22334   3.156   2.143   2.449  0.0086  0.0119  0.4177
  207SOD    SOD22335   2.238   1.532  12.777 -0.1998  0.1040  0.2226
  208SOD    SOD22336   3.943   2.698  13.521  0.3404 -0.0695 -0.1289
  209SOD    SOD22337   0.083   4.941   3.335  0.3096  0.4961  0.3438
  210SOD    SOD22338   5.605   1.692   5.907  0.0405 -0.1264  0.3134
  211SOD    SOD22339   0.224   6.813   5.814  0.1138 -0.7783  0.6161
  212SOD    SOD22340   0.151   3.967  11.797 -0.3856 -0.1838  0.0037
  213SOD    SOD22341   3.329   6.155   3.118  0.3118 -0.3467 -0.0400
  214SOD    SOD22342   0.365   5.439   1.343 -0.3569 -0.0903  0.2714
  215SOD    SOD22343   5.867   1.231  16.601 -0.2826  0.4229  0.3266
  216SOD    SOD22344   3.344   5.673  15.531  0.5424 -0.6795 -0.3237
  217SOD    SOD22345   3.975   3.924   5.693  0.7043 -0.1490  0.5183
  218SOD    SOD22346   4.279   0.801  15.342 -0.0503 -0.1911 -0.1297
  219SOD    SOD22347   5.259   3.391   6.060  0.0541 -0.3536  0.5988
  220SOD    SOD22348   0.231   2.880  15.616  0.0196  0.1577  0.0312
  221SOD    SOD22349   2.864   0.144   6.243 -0.3161  0.1296 -0.2062
  222SOD    SOD22350   2.555   0.199  14.851  0.1608  0.3572 -0.2730
  223SOD    SOD22351   5.517   4.849  13.771  0.3536  0.1815 -0.3259
  224SOD    SOD22352   2.512   5.497   2.846 -0.4837  0.1624 -0.0143
  225SOD    SOD22353   0.750   0.346   6.479 -0.0122 -0.5903 -0.1937
  226SOD    SOD22354   4.421   3.930  14.585  0.0620 -0.2444  0.5138
  227SOD    SOD22355   0.782   4.160  10.395  0.2728 -0.7062  0.2113
  228SOD    SOD22356   2.138   2.309  14.692 -0.1364  0.6002 -0.2644
  229SOD    SOD22357   3.919   2.076  11.101  0.2376  0.2927  0.3700
  230SOD    SOD22358   2.727   3.409  12.287 -0.5290 -0.1792 -0.7218
  231SOD    SOD22359   6.102   1.685   0.786 -0.1345 -0.3984  0.2473
  232SOD    SOD22360   5.977   2.349   4.232  0.1536 -0.7942 -0.3938
  233SOD    SOD22361   0.781   1.170  16.240  0.4965  0.1522 -0.2294
  234SOD    SOD22362   1.752   4.396  16.369 -0.3659 -0.1397  0.3571
  235SOD    SOD22363   2.722   4.367  11.827  0.2480  0.0308 -0.5837
  236SOD    SOD22364   4.209   6.399  15.399 -0.1998  0.3996 -0.3289
  237SOD    SOD22365   1.353   0.521   2.728  0.1246 -0.1732  0.3193
  238SOD    SOD22366   5.764   5.637  15.261  0.3469  0.2259  0.9877
  239SOD    SOD22367   1.390   0.163   3.744 -0.6850 -0.1283 -0.1042
  240SOD    SOD22368   6.742   5.926   5.399  0.1428 -0.2879 -0.0678
  241SOD    SOD22369   5.763   2.556  10.449  0.0299 -0.1002  0.0548
  242SOD    SOD22370   2.341   4.394  15.653 -0.1715  0.2011  0.3316
  243SOD    SOD22371   6.281   1.559  16.886 -0.0749 -0.1151 -0.2247
  244SOD    SOD22372   5.993   6.573  11.116  0.3016  0.3336 -0.2407
  245SOD    SOD22373   4.338   3.845  11.432  0.0018 -0.1526 -0.4861
  246SOD    SOD22374   6.416   1.287  14.358 -0.1957 -0.1830  0.6540
  247SOD    SOD22375   2.499   6.531   4.247  0.4501 -0.0299 -0.5401
  248SOD    SOD22376   3.274   6.527   5.460  0.4343 -0.1444 -0.1475
  249SOD    SOD22377   5.079   4.904  14.185  0.2993 -0.3028  0.0704
  250SOD    SOD22378   2.008   4.433   6.055 -0.2826 -0.4071 -0.3958
  251SOD    SOD22379   6.357   6.839   1.540  0.0558 -0.1823  0.1138
  252SOD    SOD22380   2.729   4.730   5.111  0.2380  0.0970  0.3382
  253SOD    SOD22381   6.765   2.722   4.824 -0.0255 -0.0276  0.1740
  254SOD    SOD22382   5.436   5.925   6.488  0.1072 -0.3450  0.4076
  255SOD    SOD22383   3.948   0.802   0.433  0.2265 -0.2898  0.0853
  256SOD    SOD22384   0.221   4.376   4.515 -0.4982 -0.2229 -0.4966
  257SOD    SOD22385   5.602   4.580  11.341  0.4699 -0.2419 -0.0382
  258SOD    SOD22386   6.193   6.279  12.806  0.1467 -0.0789 -0.1046
  259SOD    SOD22387   1.219   6.681   1.302 -0.3398 -0.1846  0.6099
  260SOD    SOD22388   1.588   2.969  16.115 -0.5376  0.1270  0.0810
  261SOD    SOD22389   4.495   5.494  16.218  0.1466 -0.0734  0.0513
  262SOD    SOD22390   1.425   3.687  12.057  0.1845 -0.0728 -0.3320
  263SOD    SOD22391   6.498   2.580   6.617 -0.0967  0.5106  0.3667
  264SOD    SOD22392   0.153   4.976  10.626  0.0937  0.0058  0.6046
  265SOD    SOD22393   2.621   3.440  13.077  0.4301 -0.0515  0.6238
  266CLA    CLA22394   1.400   0.698   3.134 -0.1016 -0.0969 -0.4202
  267CLA    CLA22395   0.478   4.032  12.353  0.3138  0.0394  0.2443
  268CLA    CLA22396   2.706   0.843  14.932 -0.4299 -0.2778  0.6230
  269CLA    CLA22397   1.205   6.741  11.729 -0.2821  0.3537 -0.4132
  270CLA    CLA22398   0.493   6.812   5.211 -0.1116  0.1396  0.1857
  271CLA    CLA22399   5.284   2.046   0.072 -0.6015  0.0360  0.6080
  272CLA    CLA22400   5.733   5.697  13.185  0.0209  0.2488  0.3145
  273CLA    CLA22401   4.574   2.500  15.968 -0.1180 -0.2053 -0.0413
  274CLA    CLA22402   4.373   5.638   5.036  0.0403  0.0221  0.1036
  275CLA    CLA22403   3.972   2.549  11.589  0.5331 -0.0148 -0.0311
  276CLA    CLA22404   4.609   0.082  13.699  0.1581  0.0269 -0.2289
  277CLA    CLA22405   6.507   6.016   2.563  0.1910  0.8257 -0.6039
  278CLA    CLA22406   1.233   1.816  16.219  0.1768 -0.4004  0.2473
  279CLA    CLA22407   5.721   3.672   2.955  0.3920  0.1058  0.2393
  280CLA    CLA22408   1.828   3.854  15.368 -0.0030 -0.2507  0.1461
  281CLA    CLA22409   1.577   5.683  12.747  0.0201  0.0884 -0.2235
  282CLA    CLA22410   3.678   2.457   1.101 -0.3665 -0.5308 -0.1261
  283CLA    CLA22411   4.024   2.757   3.369  0.3126 -0.2739  0.0947
  284CLA    CLA22412   0.623   0.841   2.396  0.0253  0.2100 -0.1961
  285CLA    CLA22413   1.481   0.832   0.173  0.3536  0.1518 -0.1240
  286CLA    CLA22414   4.001   4.943   0.906 -0.6527  0.2109 -0.2073
  287CLA    CLA22415   1.237   3.683   3.273  0.4104  0.0668  0.1799
  288CLA    CLA22416   2.418   5.811  12.151 -0.4430 -0.0839  0.2004
  289CLA    CLA22417   6.149   2.518   4.652  0.3247  0.2610 -0.1529
  290CLA    CLA22418   4.824   5.279  15.299 -0.2923  0.4550 -0.4624
  291CLA    CLA22419   5.162   5.799   0.540  0.0410 -0.1687 -0.0527
  292CLA    CLA22420   4.126   1.413   4.608  0.0062  0.0988  0.0285
  293CLA    CLA22421   5.518   2.396   1.316  0.3411 -0.2814  0.0479
  294CLA    CLA22422   3.075   3.424  14.222 -0.5776 -0.4224 -0.2212
  295CLA    CLA22423   2.659   6.242   3.001  0.0592 -0.0203  0.4716
  296CLA    CLA22424   0.784   6.263   1.465  0.0338  0.2824 -0.3404
  297CLA    CLA22425   1.949   3.926  12.119 -0.0560  0.0755 -0.5558
  298CLA    CLA22426   3.410   1.424  16.777  0.1825 -0.0882  0.1729
  299CLA    CLA22427   4.643   0.034   1.665  0.0752  0.1569  0.2207
  300CLA    CLA22428   6.848   4.494  11.326  0.2433 -0.0554  0.0384
  301CLA    CLA22429   5.281   5.629  16.646  0.2300  0.2262  0.0365
  302CLA    CLA22430   5.832   4.548  15.576  0.0231 -0.2973  0.0881
  303CLA    CLA22431   2.196   1.005  14.773 -0.2151 -0.0879 -0.2298
  304CLA    CLA22432   3.420   0.056  15.325 -0.2041 -0.3112  0.1482
  305CLA    CLA22433   3.955   3.441  12.127  0.1170  0.0262  0.3031
  306CLA    CLA22434   2.622   6.689  15.207  0.1044  0.2777  0.1894
  307CLA    CLA22435   6.793   1.080   2.093 -0.3778 -0.0914  0.1289
  308CLA    CLA22436   5.753   4.353   4.290 -0.4029  0.1002  0.5175
  309CLA    CLA22437   6.031   0.787  16.895 -0.1437 -0.3241  0.6447
  310CLA    CLA22438   4.099   0.933  16.069  0.4285 -0.2457  0.1170
  311CLA    CLA22439   5.585   1.162  13.833  0.2835 -0.1477  0.0665
  312CLA    CLA22440   5.177   3.140  16.307 -0.2494 -0.1306 -0.1592
  313CLA    CLA22441   1.668   4.877  15.355  0.1509 -0.2649 -0.2213
  314CLA    CLA22442   6.109   0.219  13.600 -0.0482  0.3029 -0.0492
  315CLA    CLA22443   2.776   2.145  13.732 -0.0036  0.0172  0.0097
  316CLA    CLA22444   6.051   0.423   4.237 -0.1224  0.0537 -0.0221
  317CLA    CLA22445   5.997   5.505   5.523 -0.0823  0.0700 -0.0979
  318CLA    CLA22446   1.697   2.673   3.590 -0.1917 -0.2942  0.1086
  319TIP3   OH222447   1.715   1.010   2.479  1.0584  0.5887  0.0859
  319TIP3    H122448   1.707   0.929   2.530  0.2153  0.3613 -0.4006
  319TIP3    H222449   1.677   0.989   2.394  1.4920  1.2863 -0.2854
  320TIP3   OH222450   2.518   1.108  15.549  0.0168 -0.1537  0.2522
  320TIP3    H122451   2.550   1.185  15.502 -3.4651  0.3997 -1.4944
  320TIP3    H222452   2.530   1.036  15.488 -1.1887 -0.0734 -0.1072
  321TIP3   OH222453   2.900   4.691   6.290 -0.3198  0.1165  0.7134
  321TIP3    H122454   2.946   4.607   6.293  0.0969  0.2831 -0.3566
  321TIP3    H222455   2.808   4.668   6.295 -0.1712 -0.2717  2.1780
  322TIP3   OH222456   4.856   5.125   3.826 -0.4023  0.8578  0.4609
  322TIP3    H122457   4.833   5.131   3.733  0.0532  0.1050  0.2918
  322TIP3    H222458   4.805   5.051   3.859 -0.1256  0.7560  0.6671
  323TIP3   OH222459   4.687   3.026  12.991 -0.3130  0.2033  0.5294
  323TIP3    H122460   4.632   3.032  13.069 -2.7898  1.1507 -1.1836
  323TIP3    H222461   4.699   3.116  12.963 -1.3816 -0.2046 -1.4130
  324TIP3   OH222462   0.681   0.081  14.135  0.5889 -0.9782 -0.2781
  324TIP3    H122463   0.656   0.101  14.044  1.0194 -1.9998 -0.6285
  324TIP3    H222464   0.754   0.140  14.153  0.2324 -0.4715 -0.4380
  325TIP3   OH222465   4.098   4.609  13.621 -0.6780 -0.3358 -0.1098
  325TIP3    H122466   4.026   4.582  13.679 -0.3230  1.3876  1.2297
  325TIP3    H222467   4.177   4.593  13.673 -0.2112 -0.5803 -0.8919
  326TIP3   OH222468   6.254   5.917   4.043  0.3273 -0.2099  0.1281
  326TIP3    H122469   6.279   5.911   3.951 -0.8850 -1.5762 -0.1602
  326TIP3    H222470   6.159   5.900   4.043  0.1374  0.6803  1.5419
  327TIP3   OH222471   3.118   6.323   1.674  0.1535  0.4670 -0.4589
  327TIP3    H122472   3.180   6.285   1.611 -0.0010  1.9461 -1.5810
  327TIP3    H222473   3.048   6.259   1.680  1.0971 -0.5814 -0.2817
  328TIP3   OH222474   5.410   2.583   1.927  0.6086  0.0081  0.2436
  328TIP3    H122475   5.458   2.523   1.983  0.9777  0.7405  0.7283
  328TIP3    H222476   5.405   2.539   1.843  1.0378 -0.6158  0.5394
  329TIP3   OH222477   5.830   5.131   4.598 -0.6562  0.0237 -0.3210
  329TIP3    H122478   5.759   5.187   4.567  0.3772  1.8491  0.4642
  329TIP3    H222479   5.787   5.067   4.655 -2.1044 -1.1982 -2.6274
  330TIP3   OH222480   3.396   4.654   3.040  0.0928 -0.2988  0.1540
  330TIP3    H122481   3.406   4.560   3.059  2.1073  0.0159  0.9653
  330TIP3    H222482   3.445   4.666   2.958 -0.1212  0.0493  0.0787
  331TIP3   OH222483   4.991   2.705  15.455  0.5076  0.1998  0.4032
  331TIP3    H122484   4.925   2.653  15.409 -1.6973  1.5372  1.8659
  331TIP3    H222485   5.012   2.652  15.532  1.6381 -0.4982 -0.3648
  332TIP3   OH222486   3.301   1.392  15.100 -0.0129 -0.6683 -0.2554
  332TIP3    H122487   3.377   1.443  15.071 -0.5227  0.0501 -0.3564
  332TIP3    H222488   3.232   1.414  15.038  0.2447 -2.9211 -1.4340
  333TIP3   OH222489   1.741   1.318   1.104 -0.3640 -0.2999 -0.6926
  333TIP3    H122490   1.833   1.342   1.095  0.5041 -3.6151 -2.2000
  333TIP3    H222491   1.710   1.307   1.014 -1.4353 -1.7394 -0.1963
  334TIP3   OH222492   1.617   3.775  10.359  0.0315  0.2755 -0.4406
  334TIP3    H122493   1.531   3.789  10.399  0.7391  2.5025  0.4440
  334TIP3    H222494   1.611   3.687  10.321 -3.2713  1.0257 -2.0912
  335TIP3   OH222495   2.217   6.562  12.204 -0.1773  0.3305  0.0445
  335TIP3    H122496   2.199   6.610  12.285  2.1225 -0.3154  1.0162
  335TIP3    H222497   2.174   6.478  12.216  1.8585 -0.5844  1.6253
  336TIP3   OH222498   2.638   3.775   4.067 -0.1467 -0.3718 -0.1900
  336TIP3    H122499   2.698   3.703   4.087  0.9706  0.7063  0.4689
  336TIP3    H222500   2.551   3.735   4.072  0.4683 -1.8423 -0.6067
  337TIP3   OH222501   1.421   4.196   4.078 -0.0344  0.1093  0.6268
  337TIP3    H122502   1.449   4.287   4.089 -0.5879  0.2339  1.0363
  337TIP3    H222503   1.436   4.155   4.163  1.9084 -0.6763 -0.0330
  338TIP3   OH222504   5.697   1.460   1.674  0.4158  0.6064  0.1058
  338TIP3    H122505   5.786   1.428   1.668 -0.0071 -0.3365 -1.8404
  338TIP3    H222506   5.653   1.400   1.734  1.0533  1.0513  1.0334
  339TIP3   OH222507   5.802   3.655  14.480  0.4774  0.1412 -0.1580
  339TIP3    H122508   5.827   3.579  14.532  2.2801  1.2826  0.7420
  339TIP3    H222509   5.810   3.729  14.540 -2.2410  1.0021 -0.6912
  340TIP3   OH222510   4.183   2.207   4.045 -0.1919 -0.4821 -0.5036
  340TIP3    H122511   4.193   2.285   4.099  0.9444 -0.1841 -1.1255
  340TIP3    H222512   4.142   2.143   4.103 -1.3670  0.6387 -0.0612
  341TIP3   OH222513   2.552   4.320  15.749 -0.3278 -0.6140  0.1334
  341TIP3    H122514   2.632   4.321  15.696 -0.2105  0.6226  0.2912
  341TIP3    H222515   2.557   4.401  15.801 -2.8105  0.7499 -1.5663
  342TIP3   OH222516   4.108   1.537  11.910  0.0483 -0.6680  0.0699
  342TIP3    H122517   4.128   1.559  12.001  1.0967 -1.3620  0.0297
  342TIP3    H222518   4.187   1.562  11.861 -0.1114 -1.2121 -0.4911
  343TIP3   OH222519   1.421   3.922  12.891  0.3304  0.0028  0.5255
  343TIP3    H122520   1.448   3.862  12.960 -0.1159 -1.5173 -0.5794
  343TIP3    H222521   1.331   3.945  12.912  0.6643  0.7173  1.2252
  344TIP3   OH222522   0.102   2.862   5.251  0.2638  0.0026 -0.0583
  344TIP3    H122523   0.107   2.920   5.327 -0.7706 -1.1590  0.9395
  344TIP3    H222524   0.104   2.921   5.176 -1.3087  1.4132  0.9294
  345TIP3   OH222525   4.832   0.801   0.038  0.0870  0.0756  0.3760
  345TIP3    H122526   4.921   0.789   0.005 -0.7168 -2.3383 -1.2325
  345TIP3    H222527   4.811   0.718   0.080 -1.6162  0.3607  0.1704
  346TIP3   OH222528   4.616   0.690   2.722 -0.7554 -0.3630 -0.4834
  346TIP3    H122529   4.667   0.704   2.802 -0.5220  0.1149 -0.7071
  346TIP3    H222530   4.633   0.600   2.697 -1.3865 -0.7351  0.3918
  347TIP3   OH222531   6.182   5.822   5.924 -0.5495  0.2447  0.4759
  347TIP3    H122532   6.210   5.898   5.975  1.4433  0.3567 -0.6727
  347TIP3    H222533   6.149   5.860   5.842 -2.1114 -0.0179  0.9583
  348TIP3   OH222534   3.862   6.305   1.400  0.0463 -0.9533 -0.2918
  348TIP3    H122535   3.859   6.390   1.356  0.8532 -1.1545 -0.7524
  348TIP3    H222536   3.830   6.243   1.335  0.3350 -1.1220 -0.2756
  349TIP3   OH222537   0.631   4.628  12.471 -0.1675  0.6314  0.2712
  349TIP3    H122538   0.536   4.623  12.457 -0.0239 -0.1032 -0.5555
  349TIP3    H222539   0.648   4.722  12.483 -1.0503  0.7263  0.8545
  350TIP3   OH222540   1.809   6.217   3.313 -0.1049  0.2284 -0.5198
  350TIP3    H122541   1.716   6.220   3.336 -0.2480  1.1095 -1.1372
  350TIP3    H222542   1.846   6.152   3.372 -1.4003 -1.3031 -1.3300
  351TIP3   OH222543   6.738   1.043   5.610 -0.0449  0.5268 -1.3162
  351TIP3    H122544   6.757   0.965   5.663 -0.8042  0.0423 -1.7412
  351TIP3    H222545   6.806   1.106   5.635 -0.1573  0.1762 -0.0414
  352TIP3   OH222546   0.653   2.043   0.540  0.2415 -0.2945 -0.2017
  352TIP3    H122547   0.653   2.090   0.457 -1.0605  0.5787  0.2627
  352TIP3    H222548   0.610   2.102   0.602  1.8559 -0.6011  1.2971
  353TIP3   OH222549   2.767   2.025  10.935 -0.2983  0.7046 -0.4041
  353TIP3    H122550   2.857   2.050  10.913 -0.1307  0.3033 -0.1822
  353TIP3    H222551   2.723   2.108  10.954  0.2892  0.8239  0.4797
  354TIP3   OH222552   0.471   6.204   0.459 -0.4683  0.1349  0.3735
  354TIP3    H122553   0.451   6.226   0.550  0.4645  0.9415  0.3995
  354TIP3    H222554   0.566   6.204   0.455 -0.4472 -1.8280 -0.1598
  355TIP3   OH222555   2.048   5.483   0.500  0.0527 -0.0394  0.7086
  355TIP3    H122556   2.046   5.578   0.492 -1.8168 -0.0091  0.9970
  355TIP3    H222557   2.046   5.466   0.594  1.3474 -0.3785  0.6879
  356TIP3   OH222558   0.213   3.358   0.698  0.3091 -0.4196  0.0045
  356TIP3    H122559   0.269   3.336   0.773 -0.1984 -2.2809 -0.1165
  356TIP3    H222560   0.144   3.293   0.700  0.5704 -0.8360 -2.3833
  357TIP3   OH222561   2.667   1.245  15.755  0.1211  0.0245  0.1676
  357TIP3    H122562   2.732   1.301  15.713  1.0848 -0.6982  0.6780
  357TIP3    H222563   2.640   1.184  15.686  3.5058 -2.7871  1.0576
  358TIP3   OH222564   3.495   1.072  12.370 -0.7238  0.0601  0.3795
  358TIP3    H122565   3.516   0.985  12.403 -1.1054 -0.5539 -0.9323
  358TIP3    H222566   3.569   1.127  12.397  0.7349 -1.2088 -0.8260
  359TIP3   OH222567   6.770   5.216   1.026 -0.2475 -0.3954  0.5685
  359TIP3    H122568   6.713   5.204   0.950  2.7102 -0.0525 -1.9296
  359TIP3    H222569   6.734   5.291   1.072 -1.8480 -0.2651 -0.8192
  360TIP3   OH222570   3.990   2.445   6.374 -0.4038 -0.1907 -0.2738
  360TIP3    H122571   4.070   2.397   6.396  0.3219  0.9192 -0.4347
  360TIP3    H222572   3.964   2.409   6.289  0.1824 -0.2300 -0.4398
  361TIP3   OH222573   2.431   1.015  16.434  0.3633  0.5383  0.1074
  361TIP3    H122574   2.423   1.033  16.528  0.0007  1.3788 -0.0802
  361TIP3    H222575   2.405   1.096  16.392  0.8387  0.2626 -0.7239
  362TIP3   OH222576   3.402   3.739   6.338  0.0563 -0.3162 -0.5628
  362TIP3    H122577   3.312   3.721   6.309 -0.7797 -2.0069  2.6543
  362TIP3    H222578   3.395   3.821   6.386  0.4118 -0.0598 -0.9455
  363TIP3   OH222579   1.601   2.019   0.350  0.3950  0.2161  0.5009
  363TIP3    H122580   1.610   1.926   0.331  0.0659  0.3617 -0.4176
  363TIP3    H222581   1.533   2.023   0.417  0.7392 -0.2305  0.8883
  364TIP3   OH222582   0.421   0.375   4.402  0.1389 -0.3586  0.4793
  364TIP3    H122583   0.361   0.399   4.332 -0.3699 -1.3501  0.5670
  364TIP3    H222584   0.465   0.457   4.424  0.2253 -0.0061 -0.9113
  365TIP3   OH222585   1.152   5.745   5.048  0.1638  0.2912 -0.2733
  365TIP3    H122586   1.228   5.736   5.107 -1.7983 -2.3347  2.0955
  365TIP3    H222587   1.168   5.682   4.978  1.4433  1.8498 -1.4821
  366TIP3   OH222588   0.014   2.746   3.217 -0.4581  0.5134  0.3336
  366TIP3    H122589   0.079   2.741   3.147 -0.3189  1.7982  0.3528
  366TIP3    H222590   0.065   2.735   3.297 -0.3941  0.6120  0.3066
  367TIP3   OH222591   3.491   0.898   5.275  0.2262  0.2933 -0.2679
  367TIP3    H122592   3.403   0.880   5.307 -1.3882  2.7796 -2.7997
  367TIP3    H222593   3.530   0.956   5.340 -0.1471 -0.4112  0.6096
  368TIP3   OH222594   3.486   5.224   0.243  0.2737 -0.2677  0.1873
  368TIP3    H122595   3.536   5.248   0.164 -0.1466  1.4139  0.4021
  368TIP3    H222596   3.530   5.271   0.314 -0.1906 -0.6771  0.7521
  369TIP3   OH222597   4.655   5.176  15.853 -0.1459 -0.2704 -0.4999
  369TIP3    H122598   4.637   5.269  15.837  0.7535 -0.1099 -0.6728
  369TIP3    H222599   4.591   5.129  15.800 -0.1110  0.2606 -1.0265
  370TIP3   OH222600   1.485   0.876  12.947 -0.0231  0.3273  0.0862
  370TIP3    H122601   1.542   0.836  12.882  2.8790  2.3929  1.1765
  370TIP3    H222602   1.447   0.802  12.995  1.1979 -1.1445 -1.1472
  371TIP3   OH222603   6.264   1.875   2.036  0.1338 -0.1342  0.3398
  371TIP3    H122604   6.312   1.949   2.000 -1.4507  0.8143  0.0784
  371TIP3    H222605   6.254   1.896   2.129 -0.5795  0.1343  0.2046
  372TIP3   OH222606   5.746   0.285  13.936 -0.1574 -0.1467  0.1445
  372TIP3    H122607   5.835   0.313  13.911  0.2630 -1.6775 -0.1938
  372TIP3    H222608   5.715   0.236  13.860  0.1765 -2.7749  1.5983
  373TIP3   OH222609   0.762   6.006   0.011 -0.1160  0.1430 -0.4517
  373TIP3    H122610   0.816   5.975   0.084 -2.7850 -1.2010  1.1366
  373TIP3    H222611   0.769   5.938  -0.055  1.9623  1.1468 -1.3268
  374TIP3   OH222612   0.191   6.778   1.991 -0.3202 -0.3164 -0.4127
  374TIP3    H122613   0.124   6.833   1.952  1.2084  1.7998 -0.2459
  374TIP3    H222614   0.269   6.795   1.938  0.9149 -0.0940  1.4043
  375TIP3   OH222615   6.507   3.645  15.194 -0.3450 -0.2085 -0.5169
  375TIP3    H122616   6.592   3.688  15.203 -0.6846  0.7789 -1.7821
  375TIP3    H222617   6.451   3.686  15.260 -0.3359  0.4335 -0.9093
  376TIP3   OH222618   0.902   2.149  15.292  0.3787  0.1829 -0.2721
  376TIP3    H122619   0.822   2.145  15.240 -0.0922 -1.4106  0.5115
  376TIP3    H222620   0.919   2.058  15.317  1.7626  0.6465  0.5857
  377TIP3   OH222621   0.009   5.265  15.853 -0.2188  0.3035 -0.1540
  377TIP3    H122622  -0.014   5.193  15.911 -0.9729 -0.5355 -1.4437
  377TIP3    H222623   0.105   5.265  15.852 -0.2087 -0.7759 -0.2412
  378TIP3   OH222624   2.349   4.219  13.333 -0.1583  0.1478  0.1357
  378TIP3    H122625   2.340   4.130  13.300  0.0745  0.2723 -0.2699
  378TIP3    H222626   2.438   4.245  13.307  0.0400  0.2382  0.8782
  379TIP3   OH222627   6.052   2.785   1.979  0.3249 -0.8129 -0.2810
  379TIP3    H122628   6.128   2.841   1.965  1.0295 -1.1642  1.8238
  379TIP3    H222629   5.987   2.817   1.916  0.9829  1.8254  0.2573
  380TIP3   OH222630   5.953   5.879  14.726 -0.0461 -0.0263 -0.3679
  380TIP3    H122631   6.025   5.880  14.663 -1.3281  0.1309 -1.8875
  380TIP3    H222632   5.878   5.910  14.676 -1.1706 -0.1598  1.1900
  381TIP3   OH222633   5.207   3.025  12.415 -0.2052 -0.5103 -0.2760
  381TIP3    H122634   5.113   3.030  12.433 -0.3020  1.3491 -1.0704
  381TIP3    H222635   5.248   3.061  12.493 -0.2156 -0.2334 -0.3975
  382TIP3   OH222636   2.101   1.052  11.409  0.5846 -0.5368  0.1252
  382TIP3    H122637   2.169   1.119  11.401  2.1436 -1.8333  1.6375
  382TIP3    H222638   2.053   1.075  11.488 -0.9561  0.5024 -1.0634
  383TIP3   OH222639   0.541   6.586  16.722  0.3457 -0.6210 -0.1835
  383TIP3    H122640   0.601   6.578  16.797 -0.3941 -1.3525  0.3409
  383TIP3    H222641   0.553   6.506  16.672 -0.8994 -1.2334  0.4629
  384TIP3   OH222642   1.890   1.417  13.169  0.2210  0.3002  0.3574
  384TIP3    H122643   1.834   1.475  13.118 -2.0325 -1.5141  0.5662
  384TIP3    H222644   1.865   1.434  13.260 -0.4947 -0.9362  0.4209
  385TIP3   OH222645   4.095   2.307  12.516 -0.4987  0.4715 -0.0593
  385TIP3    H122646   4.159   2.342  12.453  1.0397 -0.4128  0.9356
  385TIP3    H222647   4.055   2.233  12.470  0.5141 -0.0884 -0.0671
  386TIP3   OH222648   1.737   5.164  16.825 -0.4365  0.0393  0.2440
  386TIP3    H122649   1.751   5.079  16.784 -1.2630  0.2423 -0.4969
  386TIP3    H222650   1.642   5.169  16.837 -0.3638  0.7273  0.5682
  387TIP3   OH222651   2.803   5.483   0.424  1.0280  0.4132 -0.0807
  387TIP3    H122652   2.894   5.509   0.415  1.2869 -0.2519  0.4676
  387TIP3    H222653   2.807   5.392   0.453  0.1705  0.0314 -1.1171
  388TIP3   OH222654   4.927   5.860  13.580  0.1797  0.8174 -0.5075
  388TIP3    H122655   4.854   5.912  13.614 -0.1219 -0.4121  0.8486
  388TIP3    H222656   5.005   5.910  13.604 -0.0874  0.5391  1.0362
  389TIP3   OH222657   0.946   6.155  15.521  0.2533  0.3261 -0.0453
  389TIP3    H122658   0.883   6.213  15.563  1.7764  1.5081  0.6775
  389TIP3    H222659   0.939   6.175  15.428 -0.8601  0.0051 -0.0381
  390TIP3   OH222660   0.984   1.814  17.064 -1.1093  0.3381 -0.0575
  390TIP3    H122661   1.067   1.767  17.054 -1.0978 -0.3048  2.3458
  390TIP3    H222662   1.009   1.899  17.100 -1.5127 -0.2608  1.7147
  391TIP3   OH222663   5.972   1.492  12.712  0.2854 -0.2161 -0.5637
  391TIP3    H122664   5.937   1.510  12.625 -1.6432 -0.0838  0.1828
  391TIP3    H222665   6.052   1.443  12.696  0.6977  0.9338 -2.4281
  392TIP3   OH222666   0.430   6.439   4.021 -0.5084  0.0219  0.6215
  392TIP3    H122667   0.405   6.531   4.025 -1.9207 -0.3796  2.3764
  392TIP3    H222668   0.347   6.391   4.027  0.1263 -1.3791 -1.0822
  393TIP3   OH222669   1.113   4.714   2.760 -0.0856  0.1154 -0.3334
  393TIP3    H122670   1.128   4.682   2.671  1.7667 -0.9145  0.2850
  393TIP3    H222671   1.053   4.650   2.799  1.9952 -1.6019  0.2481
  394TIP3   OH222672   4.553   0.711  13.695  0.1545  0.0837  0.4021
  394TIP3    H122673   4.639   0.668  13.698  0.1987  0.2237  1.3641
  394TIP3    H222674   4.498   0.659  13.753  0.0055  0.8786  0.9773
  395TIP3   OH222675   5.877   5.496  13.401 -0.0762 -0.0878  0.0550
  395TIP3    H122676   5.816   5.500  13.327 -0.0110  1.5105  0.0671
  395TIP3    H222677   5.964   5.496  13.360  0.0194  2.5682  0.1042
  396TIP3   OH222678   3.044   5.394  11.382  0.7142  0.1238 -0.0749
  396TIP3    H122679   3.017   5.486  11.388 -0.3356  0.0238 -2.3951
  396TIP3    H222680   2.963   5.345  11.373  1.2930 -1.0296  0.6713
  397TIP3   OH222681   2.491   1.717  14.306 -0.5099 -0.0224  0.1551
  397TIP3    H122682   2.462   1.765  14.384 -2.5112 -0.9007  0.0125
  397TIP3    H222683   2.544   1.781  14.257 -2.2661  1.7410  0.4340
  398TIP3   OH222684   0.795   1.227  11.233  0.0192 -0.2450 -0.0918
  398TIP3    H122685   0.826   1.207  11.145  1.4764 -2.0596  0.7633
  398TIP3    H222686   0.802   1.145  11.281 -2.1129  0.3319  1.3707
  399TIP3   OH222687   3.289   4.127  12.294 -0.3294  0.4002 -0.4151
  399TIP3    H122688   3.224   4.195  12.311 -0.6932 -0.5393  2.6122
  399TIP3    H222689   3.295   4.079  12.377  3.0818 -0.5383 -1.0541
  400TIP3   OH222690   5.235   6.294  12.898  0.2426 -0.0189  0.2721
  400TIP3    H122691   5.323   6.270  12.869  0.7097  0.0137  1.6220
  400TIP3    H222692   5.181   6.218  12.878  0.3140  0.3713 -1.6004
  401TIP3   OH222693   6.142   6.751  16.105  0.4692  0.3362 -0.0987
  401TIP3    H122694   6.159   6.841  16.077 -1.7499  0.5808 -0.8278
  401TIP3    H222695   6.195   6.740  16.184  0.6272  2.3543  0.1171
  402TIP3   OH222696   4.294   5.153  15.976 -0.3395 -0.3896 -0.2188
  402TIP3    H122697   4.207   5.125  16.005 -1.2821  0.8360 -1.7363
  402TIP3    H222698   4.281   5.183  15.886  1.3833  1.1150 -0.0164
  403TIP3   OH222699   0.439   4.501  16.497  0.3814 -0.8121 -0.3535
  403TIP3    H122700   0.385   4.579  16.509  0.9909  0.0711 -2.6980
  403TIP3    H222701   0.474   4.482  16.584 -1.3550  0.3154  0.6563
  404TIP3   OH222702   4.044   6.136  17.135  0.0587  0.3928 -0.5968
  404TIP3    H122703   3.972   6.089  17.092  0.5254 -0.5848 -0.3222
  404TIP3    H222704   4.016   6.228  17.132 -1.4286 -0.0057 -0.0648
  405TIP3   OH222705   3.315   1.991   1.601  0.0419  0.0082 -0.5374
  405TIP3    H122706   3.256   2.066   1.616  0.4504  0.0092  1.3321
  405TIP3    H222707   3.346   2.003   1.512  1.0360  2.7811  0.0740
  406TIP3   OH222708   2.980   4.015  13.433 -0.1082 -0.6391 -0.1754
  406TIP3    H122709   2.953   4.107  13.435 -2.0086 -1.1022  3.6942
  406TIP3    H222710   3.062   4.013  13.483 -0.8886 -1.2213  1.1038
  407TIP3   OH222711   5.423   4.637   3.341 -0.1050  0.2472  0.0237
  407TIP3    H122712   5.422   4.715   3.396 -1.3435  1.9467 -2.2194
  407TIP3    H222713   5.443   4.565   3.401 -0.8797  1.9993  2.5422
  408TIP3   OH222714   0.673   2.703  12.156  0.2290  0.2766 -0.4284
  408TIP3    H122715   0.717   2.787  12.169 -0.0371  0.3469  0.0583
  408TIP3    H222716   0.597   2.723  12.101  0.6376  0.2052 -1.0236
  409TIP3   OH222717   1.376   0.657  13.098 -0.0165 -1.0030  0.1277
  409TIP3    H122718   1.425   0.582  13.064  1.4638  0.2898 -0.6685
  409TIP3    H222719   1.416   0.676  13.183  1.0047  0.1449 -0.5874
  410TIP3   OH222720   2.018   4.466  13.574 -1.0112  0.4596  0.2904
  410TIP3    H122721   2.042   4.534  13.511  1.4292  0.4472  1.0834
  410TIP3    H222722   2.036   4.506  13.660 -2.3792 -0.1993  0.9094
  411TIP3   OH222723   3.374   0.938  15.132 -0.2038  0.2581 -0.6791
  411TIP3    H122724   3.450   0.920  15.187 -0.1403 -0.1030 -0.8813
  411TIP3    H222725   3.409   0.952  15.044 -0.4663 -1.3762 -1.0843
  412TIP3   OH222726   2.043   2.452  12.666  0.1600 -0.2302  0.2451
  412TIP3    H122727   2.003   2.524  12.715  0.4231  0.5640 -0.6799
  412TIP3    H222728   2.078   2.393  12.733 -0.3852  0.3135  1.0165
  413TIP3   OH222729   0.751   5.718   0.158 -0.1270  0.5748 -0.6160
  413TIP3    H122730   0.685   5.649   0.155 -1.7238  1.8961  1.4030
  413TIP3    H222731   0.799   5.702   0.239 -0.5835  1.8326 -0.0725
  414TIP3   OH222732   0.968   0.571   0.012 -0.2486  0.0993  0.2527
  414TIP3    H122733   0.939   0.637  -0.051  1.2007  0.2000 -0.3377
  414TIP3    H222734   1.036   0.614   0.063  0.3660 -0.7771  0.1891
  415TIP3   OH222735   6.131   2.583   3.528 -0.0964 -0.3682 -0.2314
  415TIP3    H122736   6.077   2.571   3.449 -1.0137  0.6833  0.2158
  415TIP3    H222737   6.216   2.545   3.504 -0.2169  0.2891 -1.8888
  416TIP3   OH222738   1.665   2.167  15.462 -0.4804 -0.2597  0.8945
  416TIP3    H122739   1.570   2.181  15.461 -0.5030 -0.3427 -0.6685
  416TIP3    H222740   1.680   2.108  15.536 -1.4997  0.6322  1.8530
  417TIP3   OH222741   4.267   0.139   0.994 -0.2251 -0.5231 -0.0153
  417TIP3    H122742   4.177   0.120   0.966 -0.3977 -1.5995  1.1810
  417TIP3    H222743   4.264   0.132   1.089  0.9646  0.2471  0.0966
  418TIP3   OH222744   1.012   0.988  13.351 -0.6071  0.1138  0.0418
  418TIP3    H122745   1.099   0.980  13.390 -0.8110 -1.4273  0.2440
  418TIP3    H222746   1.024   0.961  13.260 -1.1063 -1.4935  0.4232
  419TIP3   OH222747   0.342   3.190  11.227  0.1956 -0.2295 -0.3428
  419TIP3    H122748   0.424   3.222  11.265  0.4617 -0.9064 -0.3317
  419TIP3    H222749   0.300   3.268  11.192  0.4637  0.2429  0.3695
  420TIP3   OH222750   2.547   4.487   2.171 -0.0615 -0.0411  0.6403
  420TIP3    H122751   2.456   4.489   2.144  0.1415 -0.8191 -0.1225
  420TIP3    H222752   2.562   4.573   2.212 -0.9923  0.2674  0.3456
  421TIP3   OH222753   6.689   4.119   2.488  0.1275 -0.0011  0.0157
  421TIP3    H122754   6.625   4.173   2.441 -2.3101 -2.0790  0.7529
  421TIP3    H222755   6.726   4.178   2.554 -1.2307  1.2186 -0.2591
  422TIP3   OH222756   4.797   3.824   2.758  0.4448 -0.5320  0.2283
  422TIP3    H122757   4.878   3.845   2.712  0.3582 -0.1511  0.2437
  422TIP3    H222758   4.806   3.732   2.781  0.5213 -0.7032 -0.4750
  423TIP3   OH222759   3.277   1.913  12.491  0.9787 -0.3680 -0.0292
  423TIP3    H122760   3.198   1.863  12.511 -0.1746  0.7535 -1.5793
  423TIP3    H222761   3.259   1.953  12.406  1.9475  2.4669  0.9923
  424TIP3   OH222762   3.544   3.739   5.738  0.4701 -0.1720  0.0932
  424TIP3    H122763   3.468   3.766   5.686  0.2708  0.5001  0.7240
  424TIP3    H222764   3.521   3.762   5.828  2.1746  1.7737  0.0916
  425TIP3   OH222765   1.146   2.646  11.255 -0.8490 -1.1390  0.6010
  425TIP3    H122766   1.088   2.716  11.287  0.5975 -0.9468  3.0900
  425TIP3    H222767   1.144   2.580  11.325  0.9209 -1.7222  0.1580
  426TIP3   OH222768   5.498   3.596  13.758 -0.8364  0.2399 -0.5166
  426TIP3    H122769   5.583   3.587  13.801 -0.5777  1.5853 -0.7291
  426TIP3    H222770   5.463   3.679  13.789 -2.2091 -0.3975 -0.2391
  427TIP3   OH222771   0.191   0.983  15.093 -0.8409 -0.1953  0.6866
  427TIP3    H122772   0.139   1.063  15.099  1.3652  1.3561  0.1741
  427TIP3    H222773   0.163   0.931  15.169 -3.1323  0.4978  0.3985
  428TIP3   OH222774   0.876   4.370   1.450  0.0446 -0.5128  0.0115
  428TIP3    H122775   0.820   4.394   1.376  0.3669 -0.3284 -0.1720
  428TIP3    H222776   0.845   4.283   1.476 -0.0235 -0.6056 -0.3835
  429TIP3   OH222777   6.187   4.170  11.477 -0.0984 -0.3909 -0.1476
  429TIP3    H122778   6.255   4.224  11.519 -1.5141  0.8206  0.6795
  429TIP3    H222779   6.170   4.100  11.540  0.1401 -0.4938 -0.1973
  430TIP3   OH222780   1.338   6.705  14.815  0.3221 -0.3722  0.1134
  430TIP3    H122781   1.292   6.706  14.731 -0.4004 -1.2356  0.4872
  430TIP3    H222782   1.409   6.768  14.804 -2.2650  2.8443  0.2427
  431TIP3   OH222783   2.017   2.214  14.854  0.5201 -0.2245 -0.1376
  431TIP3    H122784   2.021   2.130  14.899 -0.6595  0.9145  2.2319
  431TIP3    H222785   1.953   2.266  14.903  3.1847  3.0688  0.2577
  432TIP3   OH222786   6.566   5.081  11.667  0.5389 -0.0864 -0.1707
  432TIP3    H122787   6.566   5.138  11.744 -0.4661 -0.3905  0.0572
  432TIP3    H222788   6.475   5.079  11.638  0.7972 -0.4977 -0.9845
  433TIP3   OH222789   1.219   1.925   4.416  0.1981  0.3953  0.3058
  433TIP3    H122790   1.308   1.895   4.396 -0.9410 -2.8997 -0.4195
  433TIP3    H222791   1.204   1.898   4.507  0.0702  1.4884  0.6372
  434TIP3   OH222792   5.982   4.051  13.211  1.2518  0.3965  0.0418
  434TIP3    H122793   5.952   4.116  13.148 -0.2336 -1.2610 -1.0491
  434TIP3    H222794   6.035   3.990  13.159 -0.0480 -1.0291  0.3004
  435TIP3   OH222795   5.708   3.808   1.552  0.1573 -0.1915 -0.0142
  435TIP3    H122796   5.676   3.798   1.462  0.5737  0.4611 -0.2405
  435TIP3    H222797   5.804   3.804   1.544  0.2138  0.3958  0.3331
  436TIP3   OH222798   0.397   2.361  12.416 -0.0669  0.1132  0.0057
  436TIP3    H122799   0.348   2.365  12.334 -0.8531 -0.8054  0.4105
  436TIP3    H222800   0.487   2.340  12.390 -0.5400 -1.2987 -0.5726
  437TIP3   OH222801   5.568   6.632   3.860  0.3132  0.1657  0.0514
  437TIP3    H122802   5.614   6.593   3.786  1.0804 -1.4945  1.3143
  437TIP3    H222803   5.569   6.726   3.843  2.4121  0.0103 -0.9792
  438TIP3   OH222804   5.058   0.430   0.597  0.3877 -0.7087  0.0461
  438TIP3    H122805   5.044   0.428   0.503 -0.2689 -0.6899  0.1387
  438TIP3    H222806   4.978   0.392   0.634  0.8807 -1.2616  0.5726
  439TIP3   OH222807   5.714   4.236  15.587  0.1086 -0.5903 -0.0645
  439TIP3    H122808   5.766   4.292  15.530  0.0956 -0.3806  0.1331
  439TIP3    H222809   5.640   4.290  15.614  0.0651 -0.7204  0.0794
  440TIP3   OH222810   1.832   1.917   1.398 -0.1901  0.0933 -0.0404
  440TIP3    H122811   1.910   1.949   1.442  0.7173 -0.7158 -0.9903
  440TIP3    H222812   1.864   1.887   1.312 -1.3701 -1.1433 -0.0812
  441TIP3   OH222813   6.422   6.846   2.566  0.0156  0.0600 -0.1435
  441TIP3    H122814   6.509   6.832   2.603  0.6974 -0.4974 -1.8383
  441TIP3    H222815   6.424   6.937   2.535 -0.0771  0.1087 -0.0064
  442TIP3   OH222816   1.076   0.319   1.459 -0.1587  0.0701 -0.5461
  442TIP3    H122817   1.168   0.336   1.435  0.0444 -0.3683 -0.0871
  442TIP3    H222818   1.081   0.261   1.535 -0.8271 -0.3171 -0.7918
  443TIP3   OH222819   5.220   2.332   3.218  0.2041  0.4223 -0.3964
  443TIP3    H122820   5.255   2.244   3.227  1.9012  1.1166  0.2896
  443TIP3    H222821   5.264   2.367   3.140 -1.9802  0.0244 -1.8842
  444TIP3   OH222822   2.522   4.435   0.295 -0.1013  0.1182  0.4974
  444TIP3    H122823   2.513   4.341   0.286  0.8504 -0.1109  1.6874
  444TIP3    H222824   2.490   4.454   0.384  0.6309  0.7729  0.6290
  445TIP3   OH222825   4.470   2.931  12.576  0.5698 -0.0195 -0.0280
  445TIP3    H122826   4.451   3.023  12.593 -0.3329 -0.0880 -0.5946
  445TIP3    H222827   4.528   2.932  12.500 -1.3269  0.0258 -1.5476
  446TIP3   OH222828   1.704   1.931  11.588  0.3192 -0.6617 -0.0505
  446TIP3    H122829   1.695   1.868  11.516  1.1536  0.5859 -1.2926
  446TIP3    H222830   1.799   1.945  11.595  0.2111 -0.4165  0.9898
  447TIP3   OH222831   6.638   4.959  12.672 -0.1248  0.3441  0.0473
  447TIP3    H122832   6.604   4.886  12.621 -0.9245  1.9294 -1.8234
  447TIP3    H222833   6.699   4.919  12.734 -0.5301 -1.8835 -0.9054
  448TIP3   OH222834   6.618   4.006  15.076  0.9210 -0.2439  0.4084
  448TIP3    H122835   6.528   4.040  15.077  1.0842  0.2827  2.5872
  448TIP3    H222836   6.620   3.945  15.002 -1.2531 -0.3299  0.3525
  449TIP3   OH222837   3.855   0.963  11.681 -0.2711  0.0386  0.6983
  449TIP3    H122838   3.860   0.873  11.648 -0.9507  0.3846 -0.3851
  449TIP3    H222839   3.762   0.980  11.691 -0.2078  1.0122 -0.2206
  450TIP3   OH222840   3.261   2.580  16.618 -0.5603 -0.0857  0.1740
  450TIP3    H122841   3.235   2.672  16.621  1.8228  0.6748 -0.3930
  450TIP3    H222842   3.265   2.553  16.709 -2.5627 -0.0820  0.3131
  451TIP3   OH222843   2.785   0.578  12.913 -0.2156  0.0428 -0.1623
  451TIP3    H122844   2.862   0.570  12.971  0.7568 -2.8143 -1.6849
  451TIP3    H222845   2.801   0.659  12.864 -0.7271  2.1827  2.9042
  452TIP3   OH222846   1.770   3.880  16.910 -0.3489 -0.1619  0.1949
  452TIP3    H122847   1.852   3.927  16.900 -1.5418  1.5834 -2.4506
  452TIP3    H222848   1.789   3.792  16.878  0.5425  0.1381 -0.1320
  453TIP3   OH222849   2.082   4.314  15.390  0.0827  0.4714 -0.5334
  453TIP3    H122850   2.010   4.251  15.382  1.9751 -1.7779 -0.9728
  453TIP3    H222851   2.069   4.374  15.317 -0.5797 -0.7604 -1.4777
  454TIP3   OH222852   4.079   4.823   0.164 -0.7602  0.2590  0.2082
  454TIP3    H122853   4.058   4.867   0.081 -0.1344 -0.6875 -0.4675
  454TIP3    H222854   4.172   4.844   0.179 -0.3441 -1.1383 -0.3267
  455TIP3   OH222855   0.818   3.741   4.585 -0.1658  0.0271  0.0419
  455TIP3    H122856   0.726   3.768   4.580 -0.4215 -0.8029  0.0772
  455TIP3    H222857   0.850   3.751   4.495  0.2829  2.1854  0.3909
  456TIP3   OH222858   5.429   5.949   0.447  0.2983 -0.2507  0.6347
  456TIP3    H122859   5.363   5.892   0.486  1.3002 -2.6412 -0.9637
  456TIP3    H222860   5.388   5.981   0.366  0.3215  0.0445  0.7365
  457TIP3   OH222861   0.197   2.441  14.091  0.1710 -0.3368  0.1143
  457TIP3    H122862   0.255   2.513  14.117 -0.3426 -0.0438  0.4569
  457TIP3    H222863   0.175   2.396  14.172  0.0675 -0.5644 -0.0365
  458TIP3   OH222864   1.489   5.376   0.857 -0.1625 -0.0881 -0.3577
  458TIP3    H122865   1.508   5.297   0.806  1.1230 -1.6134  2.2572
  458TIP3    H222866   1.424   5.348   0.921 -0.4064  1.2628  0.0105
  459TIP3   OH222867   3.002   4.276   2.170  0.2811 -1.0479 -0.2819
  459TIP3    H122868   2.943   4.286   2.245 -0.7316 -1.4307 -1.0031
  459TIP3    H222869   3.030   4.185   2.173  0.4439 -0.9963 -0.2273
  460TIP3   OH222870   0.863   3.566  12.102 -0.0691  0.2906  0.1407
  460TIP3    H122871   0.823   3.652  12.089  0.4292  0.4796 -0.1515
  460TIP3    H222872   0.876   3.560  12.197  0.4189  0.7812  0.1125
  461TIP3   OH222873   4.237   2.312  14.789  0.0341 -0.2449  0.7147
  461TIP3    H122874   4.179   2.376  14.831  0.9082  0.8617  0.3016
  461TIP3    H222875   4.307   2.298  14.852 -0.2035 -0.8953  0.8439
  462TIP3   OH222876   2.557   3.671  14.280 -0.2254 -0.5747 -0.8140
  462TIP3    H122877   2.462   3.665  14.267 -0.5063  0.0691  0.7290
  462TIP3    H222878   2.586   3.581  14.291 -0.9663 -0.6781  0.5221
  463TIP3   OH222879   3.793   6.311  11.876  0.7783  0.0387  0.4003
  463TIP3    H122880   3.715   6.347  11.919  0.4995 -0.4173  0.2896
  463TIP3    H222881   3.859   6.308  11.944 -0.0893 -2.0699  1.2365
  464TIP3   OH222882   3.275   2.718   2.413  0.5427  0.2699 -0.1218
  464TIP3    H122883   3.256   2.803   2.371 -0.4643 -0.5857 -1.4965
  464TIP3    H222884   3.283   2.739   2.506 -0.8546  1.7324 -0.2667
  465TIP3   OH222885   6.332   3.551  16.056  0.0382  0.2411  0.5500
  465TIP3    H122886   6.247   3.586  16.030 -0.1339 -0.2346  0.4555
  465TIP3    H222887   6.351   3.484  15.990 -0.3710 -0.9432  1.5838
  466TIP3   OH222888   4.853   6.698  17.068 -0.3819  0.0729  0.0209
  466TIP3    H122889   4.927   6.652  17.107  0.7837  1.3271 -0.6302
  466TIP3    H222890   4.820   6.638  17.001 -0.2146 -0.6582  0.5807
  467TIP3   OH222891   3.142   5.050  17.036  0.5569  0.6228 -0.6581
  467TIP3    H122892   3.164   5.112  17.106  2.0761 -0.4181 -0.1670
  467TIP3    H222893   3.224   5.002  17.020 -0.0518  0.1083 -2.4160
  468TIP3   OH222894   6.061   5.942  16.244  0.1355  0.2760 -0.1227
  468TIP3    H122895   6.012   5.979  16.317 -0.7879  0.4513 -0.8127
  468TIP3    H222896   6.079   5.852  16.270 -1.0162  0.0500 -0.0711
  469TIP3   OH222897   3.157   5.766   2.298 -0.4737  0.1886  0.0350
  469TIP3    H122898   3.220   5.755   2.227 -0.0260  1.5243  0.2047
  469TIP3    H222899   3.080   5.715   2.271  0.0645 -0.1344 -0.9218
  470TIP3   OH222900   2.468   2.660  16.367  0.4573  0.5851 -0.0672
  470TIP3    H122901   2.556   2.654  16.330  0.7527 -0.2357  0.7227
  470TIP3    H222902   2.412   2.612  16.305  0.8350 -0.2093  0.1891
  471TIP3   OH222903   1.016   6.442   0.236 -0.3428  0.3423 -0.3728
  471TIP3    H122904   0.964   6.362   0.237  0.3262 -0.1032 -0.7218
  471TIP3    H222905   0.964   6.505   0.286 -0.6688 -0.4345  0.2864
  472TIP3   OH222906   3.836   2.195  10.498 -0.2933 -0.3502  0.2309
  472TIP3    H122907   3.918   2.240  10.516 -0.6343 -0.4600  2.2486
  472TIP3    H222908   3.779   2.263  10.461  0.3047  0.0182 -0.0249
  473TIP3   OH222909   4.591   6.664   2.173 -0.1665  0.0286 -0.0213
  473TIP3    H122910   4.537   6.586   2.179 -2.7475  1.7063  0.3022
  473TIP3    H222911   4.587   6.690   2.081  1.7943 -0.8833 -0.4088
  474TIP3   OH222912   4.969   3.444   1.423  0.1850  0.5102  0.1801
  474TIP3    H122913   5.014   3.505   1.481  0.5394  2.1096 -1.6966
  474TIP3    H222914   5.012   3.360   1.439  0.2581  0.8734  2.1956
  475TIP3   OH222915   3.467   3.670   4.360  0.1070  0.2700  0.0565
  475TIP3    H122916   3.555   3.633   4.362  0.1260  0.3277  0.5195
  475TIP3    H222917   3.425   3.628   4.285 -1.1247 -3.6421  2.6263
  476TIP3   OH222918   5.471   3.540  14.499 -0.4596  0.3232  0.1773
  476TIP3    H122919   5.443   3.481  14.429 -0.5389  2.1341 -1.4047
  476TIP3    H222920   5.495   3.621  14.454  0.2824  1.2969  2.1914
  477TIP3   OH222921   6.696   0.182  14.008  0.2698  0.1865  0.4125
  477TIP3    H122922   6.713   0.223  13.923  0.1466  0.9939  0.7718
  477TIP3    H222923   6.605   0.151  14.002 -0.5120  2.2211  1.0172
  478TIP3   OH222924   3.626   1.928   1.935 -0.5365 -0.0726 -0.0193
  478TIP3    H122925   3.594   1.840   1.916 -0.4108  0.1819 -1.5843
  478TIP3    H222926   3.657   1.961   1.850 -1.5977  1.8826  0.2925
  479TIP3   OH222927   6.619   1.933  11.841 -0.3502 -0.3750 -0.6325
  479TIP3    H122928   6.578   1.940  11.755  1.4993 -0.3612 -1.5621
  479TIP3    H222929   6.687   2.001  11.840 -0.3990 -0.2692  0.9134
  480TIP3   OH222930   4.314   5.776   5.841 -0.3277 -0.3351  0.1911
  480TIP3    H122931   4.253   5.721   5.792 -0.0711 -1.7169  1.3426
  480TIP3    H222932   4.260   5.818   5.908 -0.0558 -1.5873  1.2344
  481TIP3   OH222933   2.980   3.049   1.151  0.1622  0.0644  0.3187
  481TIP3    H122934   3.008   2.981   1.213 -0.1763  0.5620  1.0277
  481TIP3    H222935   3.057   3.066   1.098 -0.1849 -1.9933 -0.9208
  482TIP3   OH222936   4.317   2.655   2.653  0.0786  0.1980  0.3587
  482TIP3    H122937   4.346   2.744   2.672 -0.7289  0.2668  1.3474
  482TIP3    H222938   4.398   2.607   2.636  0.5670  0.9582  0.4803
  483TIP3   OH222939   4.616   2.394  13.674  0.2482 -0.2420 -0.2304
  483TIP3    H122940   4.647   2.303  13.670 -0.8216 -0.6001 -1.4504
  483TIP3    H222941   4.521   2.386  13.660  0.4059  1.1961 -2.6977
  484TIP3   OH222942   1.184   1.257   3.602 -0.5494 -0.5990  0.1379
  484TIP3    H122943   1.108   1.314   3.614  0.4515  0.3257  2.8664
  484TIP3    H222944   1.252   1.314   3.565  0.1697 -0.1679  2.0154
  485TIP3   OH222945   2.419   5.020   3.591 -0.4270 -0.4385  0.9836
  485TIP3    H122946   2.407   4.985   3.679 -1.2514 -1.1326  0.6076
  485TIP3    H222947   2.365   5.100   3.589 -1.8664 -1.3713  0.5795
  486TIP3   OH222948   4.161   2.146   4.542  0.9372  0.8196  0.5296
  486TIP3    H122949   4.247   2.110   4.567  0.2607 -1.9551 -0.7976
  486TIP3    H222950   4.098   2.090   4.588 -0.1820  0.5237 -1.2968
  487TIP3   OH222951   2.045   1.507  14.711 -0.4588 -0.4289  0.1275
  487TIP3    H122952   1.981   1.539  14.648  0.7248  0.2403 -0.7722
  487TIP3    H222953   1.995   1.494  14.792 -1.0647  4.0274  0.7219
  488TIP3   OH222954   3.307   0.061  11.418  0.4698  0.5623 -0.0392
  488TIP3    H122955   3.284   0.150  11.444  0.7548  0.4542  0.6034
  488TIP3    H222956   3.333   0.069  11.326 -0.0023  1.0498 -0.1367
  489TIP3   OH222957   3.638   5.165  16.741 -0.3552  0.2519  0.3922
  489TIP3    H122958   3.556   5.186  16.697 -0.7090 -0.9788  0.4435
  489TIP3    H222959   3.645   5.070  16.736  0.4786  0.2352  1.4280
  490TIP3   OH222960   4.477   0.149  15.200  0.4535 -0.3332  0.2408
  490TIP3    H122961   4.450   0.238  15.177  0.6081 -0.1087  0.8980
  490TIP3    H222962   4.573   0.153  15.205  0.3846 -0.0418  2.1359
  491TIP3   OH222963   1.019   2.635   2.664 -0.0208 -0.6991  0.0135
  491TIP3    H122964   0.942   2.604   2.615  0.4530  0.4406 -1.4972
  491TIP3    H222965   1.079   2.560   2.663 -1.2680 -1.8066  1.6936
  492TIP3   OH222966   3.536   5.706  13.167 -0.5636 -0.2637 -0.0781
  492TIP3    H122967   3.445   5.726  13.147 -0.1160  0.8597 -1.1312
  492TIP3    H222968   3.550   5.742  13.255 -0.5280  1.7889 -0.8573
  493TIP3   OH222969   4.476   6.150   1.871 -0.4014  0.5472  0.1566
  493TIP3    H122970   4.431   6.160   1.954 -0.0609  1.6274  0.2274
  493TIP3    H222971   4.429   6.080   1.826  0.4651 -1.3070  1.9600
  494TIP3   OH222972   1.896   6.386  15.408  0.1133  0.3093 -0.6136
  494TIP3    H122973   1.971   6.327  15.408  1.5914  2.0854  0.5520
  494TIP3    H222974   1.891   6.419  15.319  1.0277  0.5146 -0.5979
  495TIP3   OH222975   4.543   4.061   1.756  0.2082  0.2818 -0.2412
  495TIP3    H122976   4.538   3.971   1.724 -3.3988  0.1233  0.4428
  495TIP3    H222977   4.631   4.068   1.794  1.2179 -2.3631 -1.8250
  496TIP3   OH222978   3.702   3.545  14.080  0.3399 -0.2225 -0.7910
  496TIP3    H122979   3.630   3.529  14.019 -0.6365  0.0008  0.2754
  496TIP3    H222980   3.674   3.621  14.130  0.9019 -0.7105  0.2836
  497TIP3   OH222981   3.283   2.259  13.291 -0.9077 -0.2820  0.2128
  497TIP3    H122982   3.273   2.211  13.209  0.7848 -0.8286  0.2763
  497TIP3    H222983   3.274   2.351  13.267  2.1017 -0.2363 -1.1333
  498TIP3   OH222984   6.780   4.547   1.150  0.0648 -0.0349 -0.5161
  498TIP3    H122985   6.848   4.612   1.171 -0.1003  0.2643 -0.8788
  498TIP3    H222986   6.734   4.585   1.075 -0.7643 -0.0485 -0.0171
  499TIP3   OH222987   4.326   1.833  17.051 -0.3710  0.1931  0.9476
  499TIP3    H122988   4.328   1.895  17.124 -0.1442  2.6946 -1.0284
  499TIP3    H222989   4.246   1.856  17.003  0.6507  0.2442 -0.8304
  500TIP3   OH222990   6.588   6.657  16.152 -0.0971  0.4277  0.0842
  500TIP3    H122991   6.679   6.629  16.140 -0.7397 -1.4442 -0.8324
  500TIP3    H222992   6.591   6.717  16.226  1.4370 -2.3460  2.4761
  501TIP3   OH222993   5.378   0.336   3.689 -0.6520  0.5834  0.3057
  501TIP3    H122994   5.427   0.386   3.624  1.9312  0.2111  1.8111
  501TIP3    H222995   5.289   0.330   3.654 -0.7069  4.7573 -0.7215
  502TIP3   OH222996   5.399   6.802   1.212  0.5667  0.2549  0.5426
  502TIP3    H122997   5.330   6.851   1.166  1.6365  0.4690 -0.9245
  502TIP3    H222998   5.442   6.867   1.267  0.5970  0.4799  0.2562
  503TIP3   OH222999   3.701   2.229  14.361  0.1623  0.0556 -0.0152
  503TIP3    H123000   3.787   2.216  14.400  1.2422 -0.4151 -2.3721
  503TIP3    H223001   3.703   2.318  14.326 -0.2488  0.0136 -0.1498
  504TIP3   OH223002   5.093   3.821   0.245 -0.0447 -0.3691  0.4493
  504TIP3    H123003   5.163   3.793   0.187 -0.6018 -1.3807  0.2357
  504TIP3    H223004   5.026   3.857   0.186 -0.4280 -1.0020  0.4855
  505TIP3   OH223005   1.666   1.403   3.215 -0.2571  0.8309 -0.0701
  505TIP3    H123006   1.587   1.451   3.188  0.7612  1.6935 -1.6509
  505TIP3    H223007   1.650   1.313   3.186 -0.8299  0.9002  0.0111
  506TIP3   OH223008   1.823   0.862  12.523  0.0356 -0.1486  0.4171
  506TIP3    H123009   1.910   0.900  12.511 -0.1827 -0.1876 -1.4963
  506TIP3    H223010   1.771   0.895  12.450 -1.4041 -0.6245  1.1769
  507TIP3   OH223011   5.904   5.913  16.964  0.3544  0.2907  0.4247
  507TIP3    H123012   5.926   5.821  16.977  1.0723  0.4964  0.7745
  507TIP3    H223013   5.836   5.931  17.029 -0.4975 -0.2280 -0.3084
  508TIP3   OH223014   1.776   0.576  13.551  0.1280 -0.1437  0.3075
  508TIP3    H123015   1.692   0.558  13.592  1.0278 -1.9846  1.5325
  508TIP3    H223016   1.790   0.670  13.562 -1.9193  0.2719 -0.3200
  509TIP3   OH223017   1.440   6.705  12.882  0.3480 -0.0857  1.2755
  509TIP3    H123018   1.435   6.736  12.792 -1.1654 -1.9711  0.6469
  509TIP3    H223019   1.504   6.763  12.923  1.6860  0.3230 -1.1915
  510TIP3   OH223020   6.071   0.292   5.760  0.0888 -0.1647 -0.1794
  510TIP3    H123021   6.023   0.257   5.835  1.3859  0.0406  0.7838
  510TIP3    H223022   6.024   0.259   5.683 -0.4732 -1.5142  0.7122
  511TIP3   OH223023   3.927   4.110  17.104  0.2830  0.5393 -0.1373
  511TIP3    H123024   3.949   4.203  17.101  1.8083  0.2384  0.6856
  511TIP3    H223025   3.885   4.098  17.189  0.5004  0.4021 -0.0470
  512TIP3   OH223026   6.407   5.884   4.702  0.0166  0.2296 -0.4704
  512TIP3    H123027   6.367   5.799   4.682 -0.4895  0.3694 -0.0876
  512TIP3    H223028   6.448   5.871   4.788  0.7116  0.1193 -0.8113
  513TIP3   OH223029   2.031   6.664  14.010 -0.5145 -0.0447  0.3000
  513TIP3    H123030   2.076   6.711  14.080 -0.3744 -0.1244  0.2623
  513TIP3    H223031   1.984   6.594  14.055 -0.2748 -0.2103  0.2934
  514TIP3   OH223032   1.568   0.985  14.214  0.9326 -0.1857  0.0591
  514TIP3    H123033   1.531   1.065  14.178  0.1966 -0.2578  0.6392
  514TIP3    H223034   1.630   1.015  14.280 -0.0416 -0.0967  0.9502
  515TIP3   OH223035   1.935   2.565   2.302  0.0499  0.2878  0.8443
  515TIP3    H123036   1.934   2.640   2.362 -0.1915 -0.2533  1.5288
  515TIP3    H223037   1.938   2.605   2.215  0.9067  1.0821  1.2175
  516TIP3   OH223038   1.581   3.354   4.597  0.4421  0.0778 -0.6841
  516TIP3    H123039   1.538   3.419   4.541  0.9709  0.0990 -1.0745
  516TIP3    H223040   1.528   3.275   4.586  1.2509 -0.2843 -2.2146
  517TIP3   OH223041   5.870   6.297  17.051  0.9581 -0.2666 -0.1681
  517TIP3    H123042   5.826   6.238  17.114  1.0495 -0.2464 -0.0850
  517TIP3    H223043   5.929   6.349  17.105  1.7454 -0.9024 -0.3957
  518TIP3   OH223044   4.387   3.307   5.043  0.2416 -0.2036 -0.0470
  518TIP3    H123045   4.292   3.307   5.028  0.2431 -1.2478 -0.1078
  518TIP3    H223046   4.424   3.291   4.956  0.5885  2.3035 -0.4518
  519TIP3   OH223047   1.194   5.297  12.589 -0.1610 -0.3595 -0.1039
  519TIP3    H123048   1.125   5.239  12.619  0.7256 -1.1646  0.4540
  519TIP3    H223049   1.257   5.239  12.546  0.9616  0.0999  0.8680
  520TIP3   OH223050   6.600   5.572  17.183  0.0547  0.0309 -0.1526
  520TIP3    H123051   6.646   5.489  17.190  2.7375  1.2570 -1.6862
  520TIP3    H223052   6.634   5.623  17.257 -1.4156 -0.1126  0.6557
  521TIP3   OH223053   3.633   0.893   5.043 -0.1129 -0.2249  0.9032
  521TIP3    H123054   3.642   0.988   5.039 -1.3984 -0.0779  1.1653
  521TIP3    H223055   3.590   0.876   5.127  0.6021 -1.0907  1.1159
  522TIP3   OH223056   1.783   5.947  13.817 -0.1291  0.3770  0.3325
  522TIP3    H123057   1.744   5.869  13.779 -0.9779  0.9661 -0.0488
  522TIP3    H223058   1.834   5.986  13.746 -0.1909  0.4842  0.3461
  523TIP3   OH223059   1.495   0.920   3.937  0.1850 -0.1386  0.0519
  523TIP3    H123060   1.476   0.949   3.848  1.5965 -0.2863 -0.3133
  523TIP3    H223061   1.433   0.968   3.992  0.8991  1.7919 -0.7687
  524TIP3   OH223062   3.750   5.328   5.769  0.1687  0.2534  0.6561
  524TIP3    H123063   3.685   5.344   5.700  1.3306  0.4113 -0.4275
  524TIP3    H223064   3.731   5.238   5.799 -0.6960  0.3878  0.5410
  525TIP3   OH223065   5.126   3.247   6.197 -0.4284  0.1142  0.7162
  525TIP3    H123066   5.102   3.159   6.170 -2.1814  0.3617  1.3487
  525TIP3    H223067   5.133   3.242   6.292  0.6736  0.4018  0.6671
  526TIP3   OH223068   0.047   0.825   5.453  0.2405 -0.6647  0.5148
  526TIP3    H123069  -0.006   0.805   5.376  0.6883 -0.5024  0.1575
  526TIP3    H223070  -0.012   0.813   5.527 -1.0949  2.0590  0.0294
  527TIP3   OH223071   6.030   0.092  15.890  0.0588 -0.8697 -0.1327
  527TIP3    H123072   5.980   0.079  15.971  0.0943 -0.5187 -0.0515
  527TIP3    H223073   6.062   0.182  15.896 -0.3814 -0.6646 -0.7810
  528TIP3   OH223074   5.159   2.367  12.508 -0.1070 -0.1666  0.3215
  528TIP3    H123075   5.082   2.372  12.565 -0.4675 -0.0334 -0.1614
  528TIP3    H223076   5.177   2.458  12.484 -0.6582 -0.3010 -0.6703
  529TIP3   OH223077   2.080   4.272  11.200 -0.3792 -0.3918 -0.1263
  529TIP3    H123078   2.152   4.306  11.253 -0.3680  4.4059 -2.6436
  529TIP3    H223079   2.121   4.210  11.140  1.7726  1.9623 -1.2802
  530TIP3   OH223080   3.099   5.335   2.706 -0.4924  0.6163  0.4270
  530TIP3    H123081   3.108   5.241   2.720 -1.4341  0.4142 -0.2044
  530TIP3    H223082   3.043   5.365   2.778 -2.1171  0.2608 -0.6353
  531TIP3   OH223083   3.705   2.291   2.812  0.9054  0.1247 -0.0932
  531TIP3    H123084   3.632   2.229   2.813  1.4740 -0.5848 -0.9465
  531TIP3    H223085   3.722   2.310   2.904 -0.5243  0.5225  0.1117
  532TIP3   OH223086   6.574   4.932   0.299  0.2429  0.0448 -0.3161
  532TIP3    H123087   6.577   4.853   0.245  0.0517  1.4971 -2.6180
  532TIP3    H223088   6.661   4.971   0.288 -0.0791  0.7887 -0.2500
  533TIP3   OH223089   5.447   2.196  16.133 -0.0209  0.0490  0.4502
  533TIP3    H123090   5.510   2.254  16.176  1.6214 -1.5928  0.3845
  533TIP3    H223091   5.375   2.187  16.196  1.3949 -0.6970  2.0459
  534TIP3   OH223092   1.652   1.808  12.063  0.2533 -0.0630 -0.4105
  534TIP3    H123093   1.570   1.760  12.054  0.1323  0.0458  0.0876
  534TIP3    H223094   1.694   1.769  12.140 -0.9968  2.2589  1.5906
  535TIP3   OH223095   1.666   3.113   3.974  0.0390 -0.4549  0.1990
  535TIP3    H123096   1.586   3.063   3.990  0.3229 -0.7981  0.5607
  535TIP3    H223097   1.725   3.051   3.931  0.2154 -0.2873  0.2000
  536TIP3   OH223098   0.436   4.647   5.365 -0.3517 -0.6536  0.2436
  536TIP3    H123099   0.457   4.732   5.403 -3.9496  0.0459  1.0354
  536TIP3    H223100   0.446   4.585   5.437 -3.9111  0.1998  1.7349
  537TIP3   OH223101   3.804   0.926   0.282 -0.7941  0.6300 -0.1313
  537TIP3    H123102   3.776   1.017   0.282  0.4089  1.0285  0.1873
  537TIP3    H223103   3.812   0.903   0.190 -0.5421  1.0379 -0.2136
  538TIP3   OH223104   1.721   2.789   1.797 -0.5802 -0.3011 -0.1432
  538TIP3    H123105   1.644   2.771   1.743  0.4057 -2.0504 -1.0594
  538TIP3    H223106   1.785   2.724   1.769  0.9942  0.6520  1.0978
  539TIP3   OH223107   6.710   2.442   1.576  0.5075 -0.6778 -0.1816
  539TIP3    H123108   6.640   2.466   1.636 -0.6208  0.8205 -1.9893
  539TIP3    H223109   6.706   2.346   1.572 -1.2072 -0.6470  0.0609
  540TIP3   OH223110   4.027   5.135   4.646  0.2379  0.6045 -0.0244
  540TIP3    H123111   4.070   5.052   4.622  0.0570  0.2616  0.8052
  540TIP3    H223112   4.099   5.197   4.656  0.3201  0.7711 -1.4469
  541TIP3   OH223113   3.332   6.413  15.455 -0.1496 -0.0565  0.0302
  541TIP3    H123114   3.375   6.495  15.429 -0.6069 -0.0634 -0.7665
  541TIP3    H223115   3.382   6.344  15.410  0.1211 -0.2101  0.5535
  542TIP3   OH223116   0.155   2.594   3.042 -0.1229 -0.3177  0.2179
  542TIP3    H123117   0.122   2.525   3.100 -2.5543 -0.8029 -1.5818
  542TIP3    H223118   0.120   2.571   2.956  2.4630  0.9416 -1.2812
  543TIP3   OH223119   3.595   3.266   2.473 -0.3167  0.0792 -0.1674
  543TIP3    H123120   3.547   3.292   2.394  0.6101  0.9945 -0.4430
  543TIP3    H223121   3.614   3.349   2.518  1.7990 -0.1758 -0.5310
  544TIP3   OH223122   6.281   4.625  16.887  0.0021  0.2165  0.4625
  544TIP3    H123123   6.205   4.682  16.899 -0.7340 -0.4510 -0.8039
  544TIP3    H223124   6.345   4.657  16.950 -1.3346  0.7745  1.5913
  545TIP3   OH223125   2.720   5.417   2.899  0.6502 -0.0369  0.4832
  545TIP3    H123126   2.812   5.396   2.915  0.3018 -2.8735 -0.6151
  545TIP3    H223127   2.675   5.332   2.905 -1.4810  0.8539 -1.4785
  546TIP3   OH223128   6.083   3.544   6.554  0.0011 -0.2332 -0.0302
  546TIP3    H123129   6.001   3.519   6.512  0.2286 -1.2803  0.1179
  546TIP3    H223130   6.129   3.461   6.568  1.7972  0.4496 -1.5367
  547TIP3   OH223131   5.750   1.463  12.972  0.3379  0.3733  0.5408
  547TIP3    H123132   5.772   1.555  12.989 -1.6547  0.9909 -0.0742
  547TIP3    H223133   5.786   1.417  13.048  1.9867  1.5314  0.5344
  548TIP3   OH223134   4.308   1.758   0.850 -0.3611 -0.2450  0.4647
  548TIP3    H123135   4.340   1.829   0.906  1.5926 -2.0655  1.8636
  548TIP3    H223136   4.380   1.741   0.789 -0.6242 -1.2115  0.4008
  549TIP3   OH223137   2.529   4.959  12.127  0.4664  0.2527 -0.5724
  549TIP3    H123138   2.567   4.932  12.043  0.1863  2.0896 -1.3457
  549TIP3    H223139   2.449   5.007  12.102  0.6001  1.1850  0.7212
  550TIP3   OH223140   4.009   1.286   4.334  0.7291 -0.5137  0.1146
  550TIP3    H123141   3.939   1.338   4.295 -0.0824 -1.0729  0.7784
  550TIP3    H223142   4.022   1.325   4.421  2.4087  0.6259 -0.6050
  551TIP3   OH223143   6.839   0.901   1.194  0.2103  0.4516 -0.2880
  551TIP3    H123144   6.752   0.903   1.154  0.2725 -0.0747 -0.4529
  551TIP3    H223145   6.874   0.815   1.171  0.2290  0.1181  0.9403
  552TIP3   OH223146   6.586   0.815   0.602  0.5971 -0.0386  0.3755
  552TIP3    H123147   6.565   0.902   0.569 -0.0412  0.1817  1.3033
  552TIP3    H223148   6.676   0.799   0.574  0.1038  0.1309 -1.4170
  553TIP3   OH223149   2.691   4.603   4.094  0.0588 -0.1906  0.2454
  553TIP3    H123150   2.655   4.690   4.077 -1.0021 -0.4661  1.0274
  553TIP3    H223151   2.619   4.543   4.076  0.6387 -0.8812  0.1804
  554TIP3   OH223152   6.280   3.976   5.688 -0.0717 -0.7077  0.1576
  554TIP3    H123153   6.362   3.926   5.698 -0.4764 -0.9247  3.6391
  554TIP3    H223154   6.307   4.067   5.695  0.0370 -0.6843 -0.4912
  555TIP3   OH223155   1.494   3.530   4.975 -0.1975  0.1587 -0.2071
  555TIP3    H123156   1.450   3.461   4.925 -1.1103  0.2398  0.4515
  555TIP3    H223157   1.541   3.483   5.044 -0.1448  0.1454 -0.2518
  556TIP3   OH223158   5.884   4.255   1.058  0.4782 -0.2860 -0.0859
  556TIP3    H123159   5.822   4.313   1.013  0.8134 -1.3780 -2.0844
  556TIP3    H223160   5.961   4.309   1.073  0.2296  0.2063 -0.5459
  557TIP3   OH223161   1.898   6.111  12.114 -0.1678  0.0001 -0.0478
  557TIP3    H123162   1.886   6.066  12.198  0.3625  2.1430  1.2293
  557TIP3    H223163   1.976   6.070  12.076 -3.1098 -4.6186 -2.1023
  558TIP3   OH223164   1.736   4.558  15.358  0.2556 -0.4244  0.2871
  558TIP3    H123165   1.711   4.645  15.328  1.1080  0.0779  1.0071
  558TIP3    H223166   1.659   4.504  15.340 -0.5409  0.6184  0.4705
  559TIP3   OH223167   2.848   6.176   3.437 -0.1235 -0.4715 -0.1548
  559TIP3    H123168   2.900   6.098   3.456  0.4767 -0.6063 -2.1166
  559TIP3    H223169   2.845   6.223   3.520  1.0873 -1.6609  0.6139
  560TIP3   OH223170   1.813   3.169   5.117 -0.1429  0.0233 -0.1039
  560TIP3    H123171   1.765   3.130   5.043 -1.2082 -0.0802  0.6122
  560TIP3    H223172   1.890   3.209   5.077 -0.1804 -0.8790 -1.1463
  561TIP3   OH223173   0.161   4.556  14.974  0.1186  0.3147  0.1958
  561TIP3    H123174   0.145   4.569  14.881  1.9260  3.1712  0.1584
  561TIP3    H223175   0.183   4.463  14.982  1.0854  0.2360 -2.4573
  562TIP3   OH223176   6.470   5.803   2.119  0.4775  0.0770 -0.7781
  562TIP3    H123177   6.447   5.893   2.141 -1.2839 -0.3105 -0.8574
  562TIP3    H223178   6.450   5.795   2.025  1.1290 -0.2519 -0.8955
  563TIP3   OH223179   4.140   5.951  11.664  0.0959  0.4383 -0.9778
  563TIP3    H123180   4.227   5.916  11.643  0.5627 -0.2573  1.6618
  563TIP3    H223181   4.154   6.044  11.678  0.6317  0.2027  0.2061
  564TIP3   OH223182   3.639   0.073   0.132  0.0292  0.3509  0.6784
  564TIP3    H123183   3.698   0.121   0.074 -1.2044  0.8101 -0.2370
  564TIP3    H223184   3.697   0.016   0.183  1.3385  1.4110  0.4359
  565TIP3   OH223185   0.691   5.510   6.146  0.4754  0.7076 -0.0343
  565TIP3    H123186   0.784   5.501   6.125  0.5467 -0.3975  0.6604
  565TIP3    H223187   0.649   5.442   6.093  0.1773  0.6224  0.3088
  566TIP3   OH223188   4.944   0.274   5.816  0.0699  0.4225  0.2886
  566TIP3    H123189   4.931   0.293   5.908 -0.4523 -1.1801  0.5859
  566TIP3    H223190   4.930   0.179   5.809  3.4906 -0.1607 -0.7986
  567TIP3   OH223191   6.694   6.223   1.215  0.2299  0.0442 -0.5965
  567TIP3    H123192   6.707   6.303   1.267 -0.3928 -1.3036  1.8085
  567TIP3    H223193   6.608   6.235   1.174 -1.4483 -0.6308  2.4169
  568TIP3   OH223194   0.313   2.811  12.576  0.1209  0.1203 -0.0240
  568TIP3    H123195   0.295   2.904  12.593 -0.6331  0.0719 -0.5463
  568TIP3    H223196   0.401   2.798  12.612  0.0710  0.9322  0.4370
  569TIP3   OH223197   3.899   5.777  11.739  0.7209 -0.2306  0.5691
  569TIP3    H123198   3.973   5.825  11.701  0.5656 -0.4490 -0.0232
  569TIP3    H223199   3.938   5.702  11.783  0.9762  0.4985  1.6083
  570TIP3   OH223200   1.999   5.076  15.734 -0.2776 -0.0143 -0.0742
  570TIP3    H123201   1.958   5.140  15.676  0.3309  0.3064 -0.1593
  570TIP3    H223202   1.929   5.016  15.756 -0.4204 -0.4076 -1.4999
  571TIP3   OH223203   0.680   5.953   2.881  0.0960 -0.3970 -0.3845
  571TIP3    H123204   0.647   5.968   2.970  1.2260 -0.4130  0.0696
  571TIP3    H223205   0.663   6.035   2.835  1.2453  0.3414  0.4426
  572TIP3   OH223206   4.327   0.849  15.820 -0.2151  0.6661 -0.5049
  572TIP3    H123207   4.252   0.880  15.872 -0.4779 -1.1590  0.2952
  572TIP3    H223208   4.318   0.894  15.736 -0.3575  2.9421  0.6477
  573TIP3   OH223209   5.112   1.239  14.163  0.0592  0.0781 -0.0818
  573TIP3    H123210   5.094   1.163  14.218 -0.6143 -0.2429 -0.7249
  573TIP3    H223211   5.164   1.204  14.090 -0.7702  0.1058 -0.6975
  574TIP3   OH223212   2.253   4.469  14.799  0.3905  0.3689  0.5148
  574TIP3    H123213   2.311   4.512  14.737  0.9964 -0.8628  0.1875
  574TIP3    H223214   2.247   4.379  14.768 -0.4897  0.1020  1.4057
  575TIP3   OH223215   5.759   4.376  11.659  0.0139  0.0688  0.1415
  575TIP3    H123216   5.672   4.375  11.699  0.4972  1.5771  1.3123
  575TIP3    H223217   5.753   4.443  11.591 -0.0308 -0.5816 -0.5045
  576TIP3   OH223218   1.835   5.793   5.214 -0.0319 -0.0242  0.3368
  576TIP3    H123219   1.844   5.768   5.306  0.0206  1.3949  0.7411
  576TIP3    H223220   1.744   5.775   5.193  0.3046 -1.7363  0.2097
  577TIP3   OH223221   6.807   3.042  16.402  0.5559  0.3020  0.4208
  577TIP3    H123222   6.851   3.080  16.327  1.1373 -1.6875 -0.2979
  577TIP3    H223223   6.862   3.066  16.477  0.8913  0.8596  0.0031
  578TIP3   OH223224   6.459   3.047   2.051  0.1805  0.0680  0.0114
  578TIP3    H123225   6.368   3.060   2.081 -0.6933  0.6590 -2.6210
  578TIP3    H223226   6.511   3.049   2.131 -2.0784  0.2404  1.5691
  579TIP3   OH223227   3.287   2.784   4.261  0.0886 -0.9879  0.2489
  579TIP3    H123228   3.322   2.732   4.334  0.5960 -0.9064  0.0703
  579TIP3    H223229   3.305   2.731   4.183 -0.9319 -1.3206  0.2274
  580TIP3   OH223230   5.332   5.429  13.550 -0.0048  0.4037 -0.4888
  580TIP3    H123231   5.297   5.485  13.619  1.3459 -0.3153  0.8176
  580TIP3    H223232   5.399   5.482  13.507 -0.2109  0.5277 -0.6601
  581TIP3   OH223233   2.772   3.556   1.778  0.1420 -0.3368 -0.3560
  581TIP3    H123234   2.688   3.558   1.823 -0.4122  0.3235 -1.3837
  581TIP3    H223235   2.762   3.488   1.711  1.7123 -2.9570  1.8137
  582TIP3   OH223236   2.128   1.454   5.387 -0.5458 -0.9245 -0.1177
  582TIP3    H123237   2.202   1.466   5.327  0.1333 -1.5933  0.5665
  582TIP3    H223238   2.051   1.460   5.331  0.0676 -1.5266 -1.0537
  583TIP3   OH223239   6.071   0.364   1.373 -0.0224 -0.1519 -0.4502
  583TIP3    H123240   6.052   0.271   1.359 -0.0583 -0.2642  0.2893
  583TIP3    H223241   6.158   0.377   1.335 -0.2886 -0.3305 -1.1398
  584TIP3   OH223242   4.384   5.352   1.162 -0.4149 -0.3822 -0.4429
  584TIP3    H123243   4.342   5.382   1.081 -0.6840 -1.8561 -0.8742
  584TIP3    H223244   4.408   5.261   1.145  0.0313 -0.5560  0.9513
  585TIP3   OH223245   5.200   2.800  17.118 -1.2827  0.1543  0.5001
  585TIP3    H123246   5.290   2.798  17.148 -0.3631 -0.4488 -2.0238
  585TIP3    H223247   5.182   2.893  17.102 -0.9661  0.2410  0.6418
  586TIP3   OH223248   1.807   2.825  13.562  0.1634  0.0993 -0.2225
  586TIP3    H123249   1.723   2.780  13.573  0.6704 -0.7206  0.3650
  586TIP3    H223250   1.834   2.849  13.650  1.4477 -1.3323 -0.1936
  587TIP3   OH223251   0.974   3.113   3.666  0.3009  0.3515 -0.0385
  587TIP3    H123252   0.965   3.105   3.571  1.4337 -0.5471 -0.0879
  587TIP3    H223253   1.049   3.057   3.689 -0.0461  0.4217  1.4061
  588TIP3   OH223254   1.240   6.320  16.869  0.0476 -0.1517  0.1951
  588TIP3    H123255   1.275   6.231  16.854 -0.2867 -0.3960  0.8444
  588TIP3    H223256   1.301   6.377  16.822  0.6665 -0.6682  0.3500
  589TIP3   OH223257   5.010   6.343  13.579 -0.9022 -0.1585  0.2570
  589TIP3    H123258   5.086   6.345  13.521 -0.8327 -2.1176  0.2327
  589TIP3    H223259   4.965   6.427  13.562  0.9219  0.7888 -0.1229
  590TIP3   OH223260   1.086   4.836   3.154 -0.3589 -0.0012 -0.2069
  590TIP3    H123261   1.113   4.759   3.204  0.0289  0.3519  0.1406
  590TIP3    H223262   1.167   4.883   3.138 -0.8903  2.3193  2.8853
  591TIP3   OH223263   6.665   4.336  16.114  0.3775 -0.0624  0.3391
  591TIP3    H123264   6.601   4.395  16.155 -0.0448  0.0034 -0.3954
  591TIP3    H223265   6.613   4.261  16.085  0.8061 -0.4855  0.6455
  592TIP3   OH223266   1.482   1.823  14.358 -0.3734 -0.0393 -0.2213
  592TIP3    H123267   1.490   1.848  14.450 -2.3556  0.1346 -0.0363
  592TIP3    H223268   1.531   1.741  14.351  0.6108  0.4431  0.7432
  593TIP3   OH223269   4.901   3.031   1.976 -0.4081  0.4823  0.6504
  593TIP3    H123270   4.914   2.948   2.020  0.4837  1.2556  1.8971
  593TIP3    H223271   4.848   3.009   1.899  0.9297 -1.4449  0.1861
  594TIP3   OH223272   5.614   2.067   4.249  0.0108  0.1340 -0.0832
  594TIP3    H123273   5.548   2.111   4.303  0.6810 -0.3620  1.1655
  594TIP3    H223274   5.610   1.975   4.277  2.3710  0.3691  1.2517
  595TIP3   OH223275   1.504   0.385  16.862  0.2509  0.0777  0.3039
  595TIP3    H123276   1.497   0.411  16.954 -2.1964  0.8168 -0.0233
  595TIP3    H223277   1.451   0.305  16.856  2.2194 -1.2826 -0.0811
  596TIP3   OH223278   2.035   0.813  16.853 -0.7887  0.0634  0.8439
  596TIP3    H123279   1.991   0.884  16.807 -1.8487 -1.2228 -0.2148
  596TIP3    H223280   2.073   0.759  16.784 -0.2889 -0.5698  1.5992
  597TIP3   OH223281   1.840   2.920  12.606 -0.2305  0.0953  0.1773
  597TIP3    H123282   1.889   3.000  12.626 -0.7476  0.1856  1.1366
  597TIP3    H223283   1.748   2.943  12.622 -0.5764 -0.1735 -1.2739
  598TIP3   OH223284   5.136   1.106   2.466 -0.0504 -0.1393 -0.3785
  598TIP3    H123285   5.218   1.097   2.514 -0.3328  0.4018  0.2181
  598TIP3    H223286   5.136   1.197   2.435 -1.8806  0.9343  2.4082
  599TIP3   OH223287   4.658   5.516   0.721  0.7959 -1.0421  0.2402
  599TIP3    H123288   4.565   5.536   0.733  1.0989 -0.2041  1.3613
  599TIP3    H223289   4.664   5.486   0.630 -0.3243  0.4093 -0.3633
  600TIP3   OH223290   3.095   4.678  15.638  0.6371  0.3552 -0.1979
  600TIP3    H123291   3.146   4.611  15.593 -2.6598 -4.0305  1.7911
  600TIP3    H223292   3.025   4.700  15.576  1.2644  1.4743 -0.5407
  601TIP3   OH223293   0.048   1.498   6.182  0.0907  0.7754  0.5422
  601TIP3    H123294   0.019   1.577   6.228  0.3087  0.9457  0.3902
  601TIP3    H223295   0.118   1.529   6.124  0.5660  0.3659  0.8983
  602TIP3   OH223296   5.455   2.883  15.340  0.5165 -0.5072 -0.3540
  602TIP3    H123297   5.416   2.857  15.256 -0.0051  0.0909 -0.3092
  602TIP3    H223298   5.397   2.845  15.406  0.2175  0.0609 -0.2824
  603TIP3   OH223299   2.590   5.245   2.084 -0.1806 -0.0404 -0.0832
  603TIP3    H123300   2.540   5.237   2.002  0.3687 -0.6371 -0.3757
  603TIP3    H223301   2.573   5.334   2.114  0.8416  0.7394 -1.6747
  604TIP3   OH223302   3.654   4.492  14.347 -0.0197  0.1909 -0.3239
  604TIP3    H123303   3.724   4.497  14.412 -0.2657 -0.2793 -0.0124
  604TIP3    H223304   3.576   4.523  14.394 -0.4756 -1.3924  0.0346
  605TIP3   OH223305   2.949   5.366   3.832  1.1849  0.3826  0.1093
  605TIP3    H123306   2.991   5.298   3.780  0.4634 -0.2536  0.3435
  605TIP3    H223307   2.958   5.337   3.923 -1.4288 -0.8018  0.0792
  606TIP3   OH223308   4.325   6.617  11.549 -0.5534 -0.1330 -0.5937
  606TIP3    H123309   4.407   6.659  11.573 -0.2573 -0.7092 -0.5664
  606TIP3    H223310   4.346   6.566  11.471 -0.6646 -0.9491 -0.1038
  607TIP3   OH223311   4.940   3.641  11.919  0.0638 -0.1865  0.0644
  607TIP3    H123312   4.988   3.570  11.878 -1.2993 -1.7501  1.0652
  607TIP3    H223313   4.848   3.624  11.897 -0.2644  1.5245 -0.0406
  608TIP3   OH223314   0.744   5.959   3.477 -0.2583 -0.0991  0.2227
  608TIP3    H123315   0.701   5.894   3.421  1.7659 -1.2434 -0.1177
  608TIP3    H223316   0.833   5.925   3.489 -0.5209  0.1618  4.0829
  609TIP3   OH223317   6.509   4.521  15.392  0.1489 -0.0999  0.1607
  609TIP3    H123318   6.451   4.595  15.414  0.9844  0.7193 -0.3151
  609TIP3    H223319   6.593   4.562  15.371  0.6284 -1.1979 -0.1288
  610TIP3   OH223320   4.191   3.113  13.355 -0.5458 -0.1014 -0.3949
  610TIP3    H123321   4.111   3.160  13.331 -0.7799  0.0636  0.6672
  610TIP3    H223322   4.248   3.180  13.392 -0.1782 -0.3441 -0.5134
  611TIP3   OH223323   3.678   3.146  10.002  0.0080  0.0187  0.1311
  611TIP3    H123324   3.651   3.056  10.020 -1.9535  0.4576 -0.3462
  611TIP3    H223325   3.625   3.173   9.927  0.1408  1.7518  0.6089
  612TIP3   OH223326   1.271   3.640  13.955  0.0036  0.9458 -0.3199
  612TIP3    H123327   1.205   3.571  13.965 -0.3677  1.3606  0.1719
  612TIP3    H223328   1.304   3.629  13.866  1.2695 -1.0272  0.3110
  613TIP3   OH223329   5.301   4.141  16.903 -0.3165  0.3511  0.4569
  613TIP3    H123330   5.278   4.068  16.846 -2.1334 -0.0261  1.6076
  613TIP3    H223331   5.280   4.219  16.851 -0.3605  0.0409 -0.0005
  614TIP3   OH223332   4.485   5.228  16.947  0.4197 -0.1976  0.3455
  614TIP3    H123333   4.530   5.166  16.889  0.7004  1.5294 -1.3797
  614TIP3    H223334   4.392   5.219  16.924  0.5349  0.5122 -0.4320
  615TIP3   OH223335   4.618   4.755  16.056 -0.7901  0.1882  0.0597
  615TIP3    H123336   4.533   4.750  16.100 -0.7181 -1.1028  0.0887
  615TIP3    H223337   4.638   4.664  16.033  1.4564  0.1552  1.7636
  616TIP3   OH223338   3.259   1.453  16.295  0.0551 -0.0192 -0.0680
  616TIP3    H123339   3.201   1.426  16.224 -0.4615 -1.7498  0.9384
  616TIP3    H223340   3.276   1.372  16.344  1.1467  0.9448  1.2293
  617TIP3   OH223341   6.643   1.137   4.178 -0.1100  0.2310  0.6983
  617TIP3    H123342   6.715   1.199   4.164  1.2256 -0.5414  3.4897
  617TIP3    H223343   6.663   1.064   4.120 -1.5578  2.1302 -2.4381
  618TIP3   OH223344   2.471   4.616  17.186 -0.2193 -0.3940 -0.3144
  618TIP3    H123345   2.394   4.670  17.205 -0.1012 -0.0049 -0.9335
  618TIP3    H223346   2.440   4.526  17.195 -0.3318 -0.2391  1.0766
  619TIP3   OH223347   1.745   6.663  11.618 -0.3373 -0.4852 -0.0663
  619TIP3    H123348   1.704   6.693  11.700 -2.2856  0.2720 -1.2400
  619TIP3    H223349   1.720   6.729  11.554  2.1546 -0.4281 -1.0864
  620TIP3   OH223350   6.760   5.939   4.793  0.1435 -0.7003 -0.3754
  620TIP3    H123351   6.706   5.888   4.854  1.2617 -0.9556  0.4239
  620TIP3    H223352   6.759   6.028   4.829  2.0065 -1.1392  0.9205
  621TIP3   OH223353   5.973   2.982   5.923 -0.7453 -0.7654  0.1004
  621TIP3    H123354   5.921   3.062   5.933 -0.6732 -0.7270  0.1669
  621TIP3    H223355   5.985   2.950   6.012 -0.1911 -0.4799  0.1376
  622TIP3   OH223356   2.795   5.422  12.477  0.5417  0.1757  0.7124
  622TIP3    H123357   2.707   5.427  12.441  0.3349 -1.4561  0.8771
  622TIP3    H223358   2.852   5.421  12.401  0.2423 -1.0965  0.4745
  623TIP3   OH223359   0.720   1.243   4.544 -0.2552  0.0595 -0.1697
  623TIP3    H123360   0.628   1.259   4.523  0.6383  2.2172 -3.0795
  623TIP3    H223361   0.753   1.192   4.470  0.8043 -1.3316  1.1900
  624TIP3   OH223362   0.364   5.916   3.329  0.1186 -0.5474 -0.1694
  624TIP3    H123363   0.362   5.891   3.421  0.1407  0.5699  0.1491
  624TIP3    H223364   0.271   5.919   3.303  0.0268  0.5969  0.2428
  625TIP3   OH223365   0.889   5.261   5.881  0.1976 -0.2353  0.1827
  625TIP3    H123366   0.916   5.181   5.927  0.8988  0.1620  0.4682
  625TIP3    H223367   0.794   5.253   5.874  0.3536 -1.7502 -0.9846
  626TIP3   OH223368   2.025   5.734  12.131  0.0979 -0.5949 -0.1348
  626TIP3    H123369   2.009   5.819  12.173 -0.7997  0.7244 -2.9377
  626TIP3    H223370   2.117   5.738  12.103 -0.4515  0.3198 -1.9460
  627TIP3   OH223371   5.951   4.752   3.299  0.1089 -1.0408  0.2932
  627TIP3    H123372   5.921   4.682   3.241  0.3074 -0.8066 -0.0930
  627TIP3    H223373   5.874   4.772   3.353 -1.3059  1.2511 -2.3373
  628TIP3   OH223374   0.973   5.363  11.219  0.0710 -0.3102 -0.0390
  628TIP3    H123375   1.023   5.443  11.234 -1.4037  0.6571  0.0339
  628TIP3    H223376   1.001   5.303  11.287  2.7387 -0.6759 -1.3416
  629TIP3   OH223377   3.189   4.817  13.082  0.3144 -1.0564  0.0130
  629TIP3    H123378   3.236   4.844  13.002  1.7869 -0.9615  0.8643
  629TIP3    H223379   3.097   4.816  13.057  0.6446  0.0685 -1.3848
  630TIP3   OH223380   1.672   3.920  12.301 -0.0557  0.2103  0.2189
  630TIP3    H123381   1.674   3.885  12.390 -0.0115 -0.1340  0.0825
  630TIP3    H223382   1.764   3.929  12.277 -0.0474 -1.5956 -0.5327
  631TIP3   OH223383   3.084   6.165  13.409  0.2117 -0.1464 -0.0801
  631TIP3    H123384   3.148   6.236  13.405  1.3071 -1.0915  0.1848
  631TIP3    H223385   3.053   6.155  13.319 -0.3758  1.0095 -0.0303
  632TIP3   OH223386   5.457   3.490  11.925 -0.4243 -0.5085  0.7698
  632TIP3    H123387   5.411   3.498  11.841 -0.7922  0.2597  1.0363
  632TIP3    H223388   5.545   3.522  11.907 -0.8005  0.6739  0.9090
  633TIP3   OH223389   3.241   2.741  15.752 -0.1020  0.2758  0.2165
  633TIP3    H123390   3.247   2.662  15.806  1.2449 -0.5613 -1.0690
  633TIP3    H223391   3.321   2.789  15.770  1.2126 -0.8348 -2.1403
  634TIP3   OH223392   0.941   3.813   2.231  0.0816 -0.4392 -0.4917
  634TIP3    H123393   1.002   3.869   2.183 -0.2622  1.4388  1.1388
  634TIP3    H223394   0.987   3.790   2.311 -1.4508  1.6244  1.1261
  635TIP3   OH223395   3.941   4.426  17.121  0.0514  0.1681 -0.3151
  635TIP3    H123396   3.987   4.504  17.091 -0.1679  0.1458 -0.7184
  635TIP3    H223397   3.848   4.449  17.114 -0.0143 -0.1234 -0.4297
  636TIP3   OH223398   1.824   1.280  12.667 -0.0170 -0.0531  0.8505
  636TIP3    H123399   1.764   1.352  12.646 -0.7566 -0.9528 -0.2663
  636TIP3    H223400   1.769   1.202  12.664  0.9112 -0.7423  1.3669
  637TIP3   OH223401   6.809   3.922  15.558  0.3993  0.8048 -0.5811
  637TIP3    H123402   6.730   3.966  15.526  0.1314  1.6414  1.1082
  637TIP3    H223403   6.878   3.951  15.498  0.2816  3.8343  0.5593
  638TIP3   OH223404   4.439   5.425  14.856 -0.3789  0.2506  0.5579
  638TIP3    H123405   4.390   5.343  14.865  0.1297 -0.1914 -0.6080
  638TIP3    H223406   4.384   5.480  14.800  1.1490 -0.8872 -2.2457
  639TIP3   OH223407   0.479   4.133   2.914  0.2560  0.2484 -0.1172
  639TIP3    H123408   0.390   4.107   2.937 -0.0745  2.0217  0.7385
  639TIP3    H223409   0.534   4.084   2.975 -0.0344 -1.3428 -1.0547
  640TIP3   OH223410   5.720   5.154  15.175 -0.1808 -0.1355  0.4144
  640TIP3    H123411   5.768   5.091  15.228  0.9347  1.1594  1.0023
  640TIP3    H223412   5.771   5.161  15.094 -2.0032 -2.2823 -1.0033
  641TIP3   OH223413   3.150   5.509  14.099  0.0731  0.7509  0.2525
  641TIP3    H123414   3.162   5.552  14.183 -1.0461  1.1606  0.2158
  641TIP3    H223415   3.230   5.458  14.086  1.1517  2.3028  0.5879
  642TIP3   OH223416   6.834   4.650   1.970 -0.2837  0.2206 -0.0107
  642TIP3    H123417   6.778   4.709   2.020  0.1821  0.1788  0.5709
  642TIP3    H223418   6.921   4.660   2.009 -0.1278 -0.5892 -0.1169
  643TIP3   OH223419   3.144   4.828  11.299  0.2377  0.4202  0.1043
  643TIP3    H123420   3.050   4.834  11.318  0.2903 -0.5387  0.6722
  643TIP3    H223421   3.148   4.775  11.219  0.2595  1.1258 -0.3729
  644TIP3   OH223422   5.275   6.363  12.564 -0.2061 -0.1189  0.4174
  644TIP3    H123423   5.292   6.427  12.495 -0.6223 -1.1020 -0.6359
  644TIP3    H223424   5.204   6.309  12.530  0.0855 -1.1020  1.3008
  645TIP3   OH223425   5.212   3.419  10.657  0.2596  0.0416  0.2402
  645TIP3    H123426   5.211   3.497  10.601  1.1574 -0.5900 -0.6768
  645TIP3    H223427   5.234   3.347  10.598 -0.1287 -0.8504  1.1616
  646TIP3   OH223428   6.703   0.502  16.997  0.3559  0.3531  1.1702
  646TIP3    H123429   6.748   0.473  17.077 -0.0144  0.0820  1.2836
  646TIP3    H223430   6.610   0.502  17.021  0.3232  1.2808  1.0552
  647TIP3   OH223431   1.627   6.550  15.212  0.2911 -0.2031 -0.2015
  647TIP3    H123432   1.579   6.556  15.129  0.1619  0.1942 -0.0999
  647TIP3    H223433   1.671   6.635  15.220 -1.0328  0.3959  0.9588
  648TIP3   OH223434   5.725   3.904   0.275 -0.2550 -0.3756 -0.1134
  648TIP3    H123435   5.637   3.901   0.314 -0.3589 -0.7799 -0.3691
  648TIP3    H223436   5.734   3.994   0.245 -0.0954 -0.0008  1.0059
  649TIP3   OH223437   6.050   1.378  10.500  0.1268  0.0972  0.7107
  649TIP3    H123438   5.994   1.331  10.437  1.9405  0.6868 -1.4871
  649TIP3    H223439   6.109   1.311  10.535  1.5570  0.3307 -1.1030
  650TIP3   OH223440   3.328   1.573  12.253 -0.0342 -0.4576  0.2042
  650TIP3    H123441   3.387   1.521  12.198 -0.1283 -1.7264  1.2559
  650TIP3    H223442   3.378   1.589  12.333 -0.0247  1.0786 -0.0859
  651TIP3   OH223443   2.849   1.890  17.024 -0.1920 -0.4960  0.0144
  651TIP3    H123444   2.897   1.908  17.104  3.2047 -2.4992 -1.3712
  651TIP3    H223445   2.874   1.961  16.964  3.1227 -2.6796 -1.4259
  652TIP3   OH223446   4.675   1.627  11.317 -0.4834  0.1235  0.2352
  652TIP3    H123447   4.757   1.655  11.356 -0.2313  1.4914 -1.1562
  652TIP3    H223448   4.695   1.542  11.279  0.4470  0.6308 -0.4677
  653TIP3   OH223449   6.735   0.674  13.789  0.4390  0.1126 -0.3101
  653TIP3    H123450   6.683   0.636  13.718  0.1139  0.0633 -0.0463
  653TIP3    H223451   6.809   0.614  13.799  0.9441  0.5715 -1.1769
  654TIP3   OH223452   3.426   6.161   3.549  0.6261 -0.2871 -0.0385
  654TIP3    H123453   3.365   6.095   3.518 -0.0603  0.5003 -0.4056
  654TIP3    H223454   3.371   6.237   3.570  1.2738 -0.1594  1.3238
  655TIP3   OH223455   4.379   0.884  14.531 -0.1037 -0.2130 -0.5399
  655TIP3    H123456   4.343   0.816  14.474 -0.9993  0.8796 -1.3085
  655TIP3    H223457   4.449   0.924  14.480  1.3363 -1.3903  0.4165
  656TIP3   OH223458   0.975   3.230  13.344  0.5732  0.4944  0.4479
  656TIP3    H123459   0.884   3.230  13.314  0.3586 -1.8442  0.8715
  656TIP3    H223460   1.010   3.313  13.314 -1.5064  1.1511 -0.3558
  657TIP3   OH223461   0.637   2.705  16.308  0.2696  0.2724 -0.4637
  657TIP3    H123462   0.632   2.801  16.300  1.0694  0.2595 -1.3065
  657TIP3    H223463   0.549   2.679  16.335  0.0276  1.2383 -0.2603
  658TIP3   OH223464   1.169   1.583   4.411 -0.1496  0.6536 -0.1062
  658TIP3    H123465   1.227   1.638   4.464  0.0529  0.7142 -0.3892
  658TIP3    H223466   1.219   1.565   4.331 -0.2306  0.0869 -0.0286
  659TIP3   OH223467   4.244   6.564   1.765  0.0617  0.4377 -0.9822
  659TIP3    H123468   4.231   6.521   1.850  1.7335  0.4581 -0.6782
  659TIP3    H223469   4.183   6.637   1.765  0.1073  0.5043  0.2704
  660TIP3   OH223470   0.230   3.268   6.255 -0.6690 -0.0505  0.0989
  660TIP3    H123471   0.157   3.329   6.270  0.0420  0.3472  2.1778
  660TIP3    H223472   0.298   3.296   6.316  1.1892 -0.5556 -1.6317
  661TIP3   OH223473   0.770   2.964  15.013  0.0396  0.2131 -0.5473
  661TIP3    H123474   0.754   2.888  15.069 -2.6462  1.3121  0.3687
  661TIP3    H223475   0.775   3.038  15.073  0.6878  1.0005 -1.5348
  662TIP3   OH223476   2.171   4.996  13.309 -0.2426  0.3150 -0.5704
  662TIP3    H123477   2.240   5.062  13.310 -0.6724  0.7671  0.1678
  662TIP3    H223478   2.115   5.021  13.236  0.4653 -0.1587 -1.2893
  663TIP3   OH223479   0.473   1.547   0.016 -0.0603  0.6743 -0.1202
  663TIP3    H123480   0.489   1.550  -0.078  1.9457  0.4003  0.1845
  663TIP3    H223481   0.394   1.494   0.025  1.5424 -2.1616 -1.4723
  664TIP3   OH223482   5.589   0.070  16.271 -0.1115  0.2144 -0.1578
  664TIP3    H123483   5.538   0.130  16.326 -1.7909 -3.2508  2.4711
  664TIP3    H223484   5.675   0.066  16.313  0.2829  1.2659 -0.8154
  665TIP3   OH223485   4.848   4.833   1.950 -0.2223 -0.4548  0.2473
  665TIP3    H123486   4.882   4.853   2.037  0.1572 -0.8594  0.1950
  665TIP3    H223487   4.762   4.875   1.947 -0.1031 -0.1828  0.7055
  666TIP3   OH223488   6.821   2.793   0.260 -1.0520  0.9529 -0.1410
  666TIP3    H123489   6.740   2.743   0.244  0.0175 -1.4813  1.3471
  666TIP3    H223490   6.797   2.853   0.331 -1.6380  0.3794  0.1701
  667TIP3   OH223491   2.658   6.261  16.558 -0.2844  0.0025  0.0066
  667TIP3    H123492   2.596   6.324  16.594 -1.8996 -1.5066  0.0297
  667TIP3    H223493   2.628   6.247  16.468  0.2910 -0.4454 -0.1227
  668TIP3   OH223494   6.699   4.061  16.915  0.2607 -0.1151  0.4983
  668TIP3    H123495   6.690   4.040  17.008  4.1036 -1.5588  0.7210
  668TIP3    H223496   6.776   4.118  16.910  0.2388 -0.1708 -1.8216
  669TIP3   OH223497   6.164   2.531  13.863  0.2676 -0.1925 -0.2483
  669TIP3    H123498   6.229   2.533  13.793 -0.0207  0.5333 -0.5136
  669TIP3    H223499   6.080   2.533  13.818  0.0779  1.2036  0.1132
  670TIP3   OH223500   1.029   1.608  10.576  0.0159  0.3201  0.1865
  670TIP3    H123501   1.110   1.621  10.526  0.0563 -1.2651 -0.1948
  670TIP3    H223502   0.994   1.525  10.545 -2.4901  1.5851 -0.6027
  671TIP3   OH223503   1.687   5.963   4.566  0.0536  0.0068  0.6631
  671TIP3    H123504   1.671   6.036   4.506  0.5770  0.3826  0.9713
  671TIP3    H223505   1.689   6.004   4.653  0.1617 -0.4026  0.8522
  672TIP3   OH223506   1.427   0.358  12.343  0.0898  0.5806 -0.0152
  672TIP3    H123507   1.352   0.353  12.404  2.5509 -1.2863  3.1662
  672TIP3    H223508   1.406   0.296  12.274 -1.0032 -0.5479  1.2629
  673TIP3   OH223509   0.752   3.710  16.989  0.1601  0.1759 -0.0658
  673TIP3    H123510   0.726   3.705  17.081  2.6435 -1.0944  0.6698
  673TIP3    H223511   0.670   3.699  16.940 -1.0015 -1.1205  1.9908
  674TIP3   OH223512   5.540   5.248   2.724  0.2555  0.0651  0.4400
  674TIP3    H123513   5.486   5.326   2.734  0.0432  0.2456 -1.5940
  674TIP3    H223514   5.606   5.254   2.793  0.7189  2.4540 -0.1293
  675TIP3   OH223515   0.271   4.883   0.021 -0.2040  0.0636  0.1621
  675TIP3    H123516   0.301   4.793   0.026 -0.3332  0.0670  1.2078
  675TIP3    H223517   0.196   4.880  -0.038  0.4867 -0.3085 -0.7174
  676TIP3   OH223518   6.025   1.413   4.674 -0.6282 -0.1161  0.2280
  676TIP3    H123519   5.961   1.403   4.745 -1.0464 -0.3339 -0.1759
  676TIP3    H223520   6.021   1.330   4.627 -0.4469  0.0802 -0.1324
  677TIP3   OH223521   0.723   2.379   0.648  0.0486 -0.2159  0.2660
  677TIP3    H123522   0.811   2.343   0.662  1.2117  2.4425  0.3740
  677TIP3    H223523   0.673   2.351   0.725  2.0025  1.4674  2.3245
  678TIP3   OH223524   5.328   3.827  13.785  0.3387 -0.4817 -0.2488
  678TIP3    H123525   5.316   3.861  13.696  2.9418  2.1829  0.2828
  678TIP3    H223526   5.239   3.803  13.812 -1.1110  1.8904 -2.3516
  679TIP3   OH223527   5.270   0.619  15.586 -0.1005 -0.3757 -0.2704
  679TIP3    H123528   5.224   0.658  15.660  1.8943  1.4793  0.0731
  679TIP3    H223529   5.236   0.666  15.510  1.1018  0.9608 -0.0220
  680TIP3   OH223530   1.952   3.211   5.851 -0.0245 -0.0577  0.5016
  680TIP3    H123531   1.886   3.145   5.830  1.5400 -1.4739 -0.2319
  680TIP3    H223532   2.017   3.164   5.904  0.7149  1.1132  0.6667
  681TIP3   OH223533   3.764   3.267   6.397 -0.1423 -0.1165  0.0709
  681TIP3    H123534   3.791   3.286   6.487 -0.0078  0.4091 -0.0761
  681TIP3    H223535   3.678   3.308   6.389  1.0232  2.3271 -0.8825
  682TIP3   OH223536   1.158   4.288   3.455  0.7363 -0.1224 -0.7285
  682TIP3    H123537   1.245   4.305   3.419  0.3161  2.3024 -0.8185
  682TIP3    H223538   1.105   4.261   3.380  0.6009  1.9622 -1.4697
  683TIP3   OH223539   4.002   4.007   1.260 -0.6150 -0.5070 -0.3581
  683TIP3    H123540   4.063   3.933   1.266  1.1090  0.9082  0.4131
  683TIP3    H223541   3.998   4.027   1.166 -0.3247 -0.9620 -0.4714
  684TIP3   OH223542   4.469   6.587   6.662 -0.0745  0.4192 -0.1540
  684TIP3    H123543   4.557   6.620   6.681 -0.9899  2.5286  0.7950
  684TIP3    H223544   4.480   6.492   6.655  2.0719  0.4890  1.1784
  685TIP3   OH223545   4.141   5.586   0.930  0.3086  0.1375  0.2664
  685TIP3    H123546   4.056   5.573   0.888  1.2896 -0.2761 -1.6860
  685TIP3    H223547   4.181   5.499   0.930  1.0586  0.4786  0.4431
  686TIP3   OH223548   5.005   3.652   0.542 -1.1627 -0.1153  0.5149
  686TIP3    H123549   4.960   3.592   0.601 -1.7836  0.1112  0.2808
  686TIP3    H223550   4.941   3.721   0.524 -0.6470  0.3272  0.3438
  687TIP3   OH223551   0.215   0.435  14.713 -0.0381 -0.0805  0.1404
  687TIP3    H123552   0.207   0.341  14.727  0.9880 -0.0831  0.8586
  687TIP3    H223553   0.129   0.470  14.737  0.0596 -0.6775  1.4520
  688TIP3   OH223554   2.803   0.755  10.710  0.2425 -0.0616  0.4399
  688TIP3    H123555   2.886   0.712  10.731  0.4354  0.3369  0.4866
  688TIP3    H223556   2.745   0.683  10.685  1.1683 -0.2021 -1.4816
  689TIP3   OH223557   1.499   4.086   0.579 -0.5642  0.1747 -0.3601
  689TIP3    H123558   1.568   4.084   0.512  0.1133  0.6538  0.3035
  689TIP3    H223559   1.532   4.146   0.645 -0.8241 -0.9500  0.8246
  690TIP3   OH223560   5.269   1.237   2.104 -0.3472  0.4765  0.4261
  690TIP3    H123561   5.316   1.166   2.147 -2.4452 -1.7114 -0.6305
  690TIP3    H223562   5.322   1.257   2.026  0.7317  0.7529  1.2119
  691TIP3   OH223563   3.020   1.152  11.117 -0.1633  0.5822 -0.0790
  691TIP3    H123564   3.073   1.115  11.046  0.7359  1.4756  0.1033
  691TIP3    H223565   3.078   1.215  11.160 -0.7322  0.1346  1.4019
  692TIP3   OH223566   6.714   2.666   5.501 -0.3267 -0.3251 -0.2257
  692TIP3    H123567   6.659   2.588   5.507  0.1664 -0.6349  0.4926
  692TIP3    H223568   6.654   2.737   5.477 -0.6664 -1.0391 -1.6042
  693TIP3   OH223569   0.904   4.531  10.857 -0.2529  0.4156  0.7208
  693TIP3    H123570   0.903   4.488  10.771  0.5570  1.0165  0.4011
  693TIP3    H223571   0.973   4.486  10.906 -0.0169  0.7584  0.7006
  694TIP3   OH223572   4.670   0.625  14.027 -0.4243 -0.1275  0.5394
  694TIP3    H123573   4.587   0.601  13.987 -0.8791 -0.1477  1.4647
  694TIP3    H223574   4.731   0.556  14.001 -0.7521 -0.2334  0.0450
  695TIP3   OH223575   3.990   3.673   1.310 -0.4087 -0.0558 -0.0386
  695TIP3    H123576   4.045   3.735   1.357 -0.3098 -0.3864  0.2808
  695TIP3    H223577   4.017   3.587   1.341 -1.6772 -0.1950  0.7530
  696TIP3   OH223578   3.858   6.089  14.818  0.1686  0.2062 -0.0875
  696TIP3    H123579   3.946   6.050  14.814  0.2826 -0.1052  3.0380
  696TIP3    H223580   3.838   6.111  14.727  2.7196 -1.3627 -1.1608
  697TIP3   OH223581   0.278   5.303  15.685 -0.1844 -0.0643  0.2933
  697TIP3    H123582   0.212   5.256  15.634 -1.3492  1.8484 -0.0685
  697TIP3    H223583   0.289   5.386  15.640  0.8383  0.5640  1.6107
  698TIP3   OH223584   3.139   4.728  15.327 -0.8632  0.0333 -0.1262
  698TIP3    H123585   3.098   4.810  15.354 -1.2861  0.4578 -1.8918
  698TIP3    H223586   3.069   4.663  15.331 -0.6869 -0.1189  0.6600
  699TIP3   OH223587   1.533   1.223   1.290 -0.1147 -0.1551 -0.0659
  699TIP3    H123588   1.595   1.284   1.251  0.0108  0.4533  1.0343
  699TIP3    H223589   1.461   1.217   1.228  0.1376  0.6720 -0.4393
  700TIP3   OH223590   1.477   5.785   1.416  0.1031  0.6452 -0.6005
  700TIP3    H123591   1.434   5.771   1.332 -0.6126 -1.1134  0.0131
  700TIP3    H223592   1.554   5.838   1.395 -0.2198  0.4887 -2.3118
  701TIP3   OH223593   1.258   1.831   3.872 -0.0367  0.3173  0.4440
  701TIP3    H123594   1.191   1.765   3.858 -0.0571  0.2058  1.0424
  701TIP3    H223595   1.292   1.850   3.784 -0.2307 -0.2703  0.2380
  702TIP3   OH223596   2.370   3.506  13.658 -0.1545  0.3858 -0.2233
  702TIP3    H123597   2.415   3.517  13.742  2.9448  2.7503 -1.9781
  702TIP3    H223598   2.328   3.591  13.643 -0.8075 -0.0669 -1.0353
  703TIP3   OH223599   4.827   5.384   1.230  0.6156 -0.1208  0.1941
  703TIP3    H123600   4.819   5.324   1.156  1.0514  0.4146 -0.3037
  703TIP3    H223601   4.919   5.376   1.258  0.1905 -1.1167  1.3883
  704TIP3   OH223602   1.500   4.478   4.222 -0.4353 -0.5077  0.4823
  704TIP3    H123603   1.555   4.436   4.289 -2.3500 -0.2390  2.3468
  704TIP3    H223604   1.559   4.539   4.177  1.2569 -1.7136  0.9598
  705TIP3   OH223605   3.528   5.616  15.741 -0.7206 -0.7044  0.5114
  705TIP3    H123606   3.542   5.679  15.812  0.6731 -0.9745  0.5051
  705TIP3    H223607   3.550   5.531  15.779  1.2617 -0.7076 -0.5524
  706TIP3   OH223608   6.267   6.726  13.168 -0.0985 -0.2696 -0.3600
  706TIP3    H123609   6.302   6.815  13.178 -0.7902  0.2152 -1.9937
  706TIP3    H223610   6.250   6.697  13.258 -0.7944  1.6311  0.1665
  707TIP3   OH223611   3.558   4.261  13.454 -0.2078 -0.0142 -0.3880
  707TIP3    H123612   3.627   4.319  13.485 -1.1330  0.4384  0.9201
  707TIP3    H223613   3.589   4.173  13.476 -0.1222  0.1966  0.3502
  708TIP3   OH223614   4.725   6.637   5.540 -0.1543  0.0861 -0.4502
  708TIP3    H123615   4.788   6.670   5.476  0.3744  2.0443  0.9904
  708TIP3    H223616   4.743   6.543   5.543  1.0686  0.2272 -1.8109
  709TIP3   OH223617   3.802   3.292  16.636 -0.4132 -0.5876 -0.7423
  709TIP3    H123618   3.736   3.223  16.633 -1.0560  0.0274 -1.0446
  709TIP3    H223619   3.871   3.257  16.692 -0.6909 -1.5063 -0.9598
  710TIP3   OH223620   3.003   2.459  12.725  0.6465 -0.1606 -0.0653
  710TIP3    H123621   2.911   2.437  12.709  1.1154 -1.3804 -1.3497
  710TIP3    H223622   3.037   2.383  12.771  0.9178  0.4907  0.8231
  711TIP3   OH223623   4.341   0.177  17.097  0.0405  0.3152  0.6920
  711TIP3    H123624   4.389   0.102  17.132 -2.7152 -1.2351  1.3865
  711TIP3    H223625   4.252   0.145  17.083 -0.7254  2.8784 -1.0740
  712TIP3   OH223626   3.054   0.713   5.706  0.0673  0.0799  0.1544
  712TIP3    H123627   3.041   0.795   5.754  0.0053  0.3768 -0.3581
  712TIP3    H223628   3.016   0.730   5.620  0.2257 -0.4260 -0.0182
  713TIP3   OH223629   3.766   1.749   2.422 -0.1619 -0.1702  0.2869
  713TIP3    H123630   3.758   1.839   2.452 -1.2553 -0.5970  1.3781
  713TIP3    H223631   3.795   1.756   2.331 -0.8175  1.2985  0.1706
  714TIP3   OH223632   1.212   5.845   3.039 -0.5794  0.2073 -0.2360
  714TIP3    H123633   1.262   5.808   2.967  2.0623  1.2530  0.9106
  714TIP3    H223634   1.170   5.770   3.081  1.2789 -0.9607 -0.3818
  715TIP3   OH223635   6.843   0.915   0.810 -0.0934 -0.3712 -0.2714
  715TIP3    H123636   6.827   0.820   0.807  1.3747 -0.6572  0.0085
  715TIP3    H223637   6.860   0.939   0.719 -1.8502 -0.0921 -0.5478
  716TIP3   OH223638   1.486   0.324   4.539 -0.1364 -0.3043 -0.4044
  716TIP3    H123639   1.462   0.403   4.490 -0.1083 -0.1280 -0.1321
  716TIP3    H223640   1.430   0.255   4.502 -0.0375 -0.1954 -0.7614
  717TIP3   OH223641   0.968   1.746   4.847  0.3181  0.7368  0.4131
  717TIP3    H123642   0.950   1.801   4.771  0.8925 -0.2590 -0.4655
  717TIP3    H223643   0.881   1.724   4.882  0.0014  0.3430 -0.5927
  718TIP3   OH223644   0.051   5.548  14.360 -0.0124 -0.2701  0.3123
  718TIP3    H123645   0.089   5.585  14.280  0.6945 -1.4836  0.0543
  718TIP3    H223646   0.120   5.556  14.425  1.1920 -3.3907 -0.4139
  719TIP3   OH223647   1.864   6.238   0.936  0.7399 -0.0022  0.1449
  719TIP3    H123648   1.834   6.233   1.027  0.4778  1.2651  0.1509
  719TIP3    H223649   1.783   6.246   0.885  0.8984 -0.4502 -0.1786
  720TIP3   OH223650   5.139   2.886   1.323  0.8745 -0.1929  0.1349
  720TIP3    H123651   5.192   2.810   1.300 -0.5436 -0.9886 -0.6416
  720TIP3    H223652   5.082   2.855   1.394 -1.2719 -0.5944 -1.6641
  721TIP3   OH223653   1.999   1.106  17.009 -0.2170 -0.4014 -0.0092
  721TIP3    H123654   1.977   1.141  16.922 -1.1200  0.9703  0.7382
  721TIP3    H223655   1.971   1.015  17.006  0.1018 -0.4768 -1.2671
  722TIP3   OH223656   0.405   3.781   1.981  0.5948 -0.7526 -0.2198
  722TIP3    H123657   0.409   3.732   2.063 -0.8303  0.5702  0.6976
  722TIP3    H223658   0.466   3.853   1.993 -1.7136  1.1467  0.9580
  723TIP3   OH223659   0.072   2.755  13.256  0.0407  0.5096  0.2526
  723TIP3    H123660   0.081   2.681  13.315  2.1684  0.0885 -0.5019
  723TIP3    H223661   0.030   2.718  13.178  1.3355 -0.0171 -0.2265
  724TIP3   OH223662   1.054   1.018  12.265  0.1706  0.1155  0.3997
  724TIP3    H123663   1.004   1.010  12.184 -0.8624  1.1284  0.8967
  724TIP3    H223664   1.102   1.101  12.256 -0.4236  0.5454  1.0388
  725TIP3   OH223665   0.966   3.666   5.580 -0.1922 -0.8201  0.3425
  725TIP3    H123666   1.039   3.720   5.549 -0.0010 -0.6466  1.0750
  725TIP3    H223667   1.004   3.614   5.651 -0.7166 -0.9272  0.5453
  726TIP3   OH223668   1.805   1.747  12.845 -0.2322  0.5185 -0.8608
  726TIP3    H123669   1.860   1.754  12.922  1.4101  1.4694 -2.0715
  726TIP3    H223670   1.749   1.671  12.862 -1.1267  1.7030  1.9686
  727TIP3   OH223671   1.212   6.698  15.923 -0.2726 -0.1263  0.0163
  727TIP3    H123672   1.165   6.616  15.907 -0.0144  0.1151 -2.2748
  727TIP3    H223673   1.143   6.762  15.939 -0.5068 -0.6001  1.0008
  728TIP3   OH223674   6.047   5.787  15.626  0.1662 -0.1626  0.0036
  728TIP3    H123675   6.002   5.716  15.672 -0.1340 -0.5266 -0.8272
  728TIP3    H223676   6.003   5.867  15.656 -0.6953 -0.4761 -0.4034
  729TIP3   OH223677   1.622   6.432  15.965 -0.1287  0.3862 -0.2754
  729TIP3    H123678   1.539   6.410  16.008 -0.8907  1.7297 -1.0196
  729TIP3    H223679   1.604   6.511  15.915  2.2171  2.1886  1.4608
  730TIP3   OH223680   0.053   2.155  13.069  0.2214 -0.4037 -0.0839
  730TIP3    H123681   0.090   2.230  13.116  2.8679 -1.8480  0.3414
  730TIP3    H223682   0.021   2.097  13.138 -2.4543  0.5163 -0.4308
  731TIP3   OH223683   1.639   1.078   3.703 -0.3883 -0.2461 -0.4054
  731TIP3    H123684   1.650   1.150   3.765  1.6219  0.9629 -2.0625
  731TIP3    H223685   1.594   1.117   3.628 -1.7116 -1.4024 -0.2565
  732TIP3   OH223686   3.889   0.389  14.630 -0.4050 -0.0143 -0.6029
  732TIP3    H123687   3.867   0.439  14.709  1.7307 -1.7093  1.2003
  732TIP3    H223688   3.805   0.376  14.586 -1.2438  3.9955 -0.5968
  733TIP3   OH223689   0.088   2.035   1.832 -0.1454  0.1856 -0.0452
  733TIP3    H123690   0.043   2.109   1.792  0.4921  0.2585 -0.6400
  733TIP3    H223691   0.070   1.961   1.774 -0.8636 -0.1612  0.5999
  734TIP3   OH223692   6.458   5.558  12.401  0.0661  0.5523 -0.4105
  734TIP3    H123693   6.382   5.500  12.399 -0.8578  1.7493 -1.3240
  734TIP3    H223694   6.469   5.579  12.494 -0.8139  0.4763 -0.2783
  735TIP3   OH223695   5.787   0.998  16.932 -0.2158 -0.0369  0.2251
  735TIP3    H123696   5.847   0.927  16.911 -1.1438 -0.5232 -0.8908
  735TIP3    H223697   5.833   1.049  16.999  1.3272 -0.5188 -0.4200
  736TIP3   OH223698   3.681   6.734  14.318 -0.2421 -0.0062  0.2694
  736TIP3    H123699   3.692   6.830  14.319  0.7795 -0.0872  2.3123
  736TIP3    H223700   3.730   6.705  14.241 -0.3107  1.0903 -0.2084
  737TIP3   OH223701   6.410   0.671   3.488 -0.3785  0.0248  0.2445
  737TIP3    H123702   6.370   0.596   3.444 -2.5030  0.2346  1.7042
  737TIP3    H223703   6.351   0.744   3.471  1.5904  1.4455 -1.0522
  738TIP3   OH223704   6.322   4.222  15.826 -0.6595  0.3343  0.0834
  738TIP3    H123705   6.241   4.177  15.803 -1.5927  1.2731  1.4028
  738TIP3    H223706   6.294   4.298  15.877  1.0128  1.0666 -0.0162
  739TIP3   OH223707   1.722   0.727  12.007 -0.0458 -0.1530  0.7098
  739TIP3    H123708   1.740   0.788  11.936  1.4645  0.0365  1.2387
  739TIP3    H223709   1.666   0.660  11.967  0.0383  0.4333 -0.4123
  740TIP3   OH223710   0.119   3.738   0.041 -0.1735 -0.2186 -0.2838
  740TIP3    H123711   0.113   3.650   0.079  0.0362  0.0525  0.3803
  740TIP3    H223712   0.090   3.797   0.110 -2.3509  0.1178 -1.3882
  741TIP3   OH223713   2.646   0.653  16.270  0.3645 -0.3150 -0.1518
  741TIP3    H123714   2.706   0.686  16.203  1.4066 -2.3494 -0.3081
  741TIP3    H223715   2.635   0.725  16.331  2.1507  0.4632 -0.6918
  742TIP3   OH223716   2.550   0.735   4.314 -0.1832  0.1201  0.0372
  742TIP3    H123717   2.505   0.818   4.329  0.7488  0.8117 -0.8765
  742TIP3    H223718   2.489   0.684   4.260  0.3125  1.2795 -1.7021
  743TIP3   OH223719   3.488   1.949  10.721 -0.4458 -0.5017 -0.4163
  743TIP3    H123720   3.409   2.003  10.725  0.4935  0.8686  2.2317
  743TIP3    H223721   3.560   2.012  10.726  0.7720 -1.8342 -0.4614
  744TIP3   OH223722   3.065   6.620   5.444  0.0966 -0.5593 -0.2092
  744TIP3    H123723   2.991   6.669   5.481  0.2990  0.2944 -0.8946
  744TIP3    H223724   3.041   6.607   5.352  0.8381 -0.1768 -0.4643
  745TIP3   OH223725   0.459   0.185  14.340  0.4285  0.2992 -0.0045
  745TIP3    H123726   0.534   0.134  14.370 -0.0078  0.2368  1.0156
  745TIP3    H223727   0.408   0.203  14.419 -0.5378  0.5015 -0.6471
  746TIP3   OH223728   4.864   3.000  16.862  0.4145 -0.4759 -0.5884
  746TIP3    H123729   4.955   2.991  16.834  0.7586  0.4182  0.1889
  746TIP3    H223730   4.816   3.018  16.781  0.4653 -3.6555 -1.4386
  747TIP3   OH223731   0.557   2.407  14.622  0.2117 -0.0016 -0.0989
  747TIP3    H123732   0.535   2.324  14.664 -0.9853  0.9486  1.2932
  747TIP3    H223733   0.563   2.469  14.695 -0.0473  1.3483 -1.1801
  748TIP3   OH223734   1.438   6.793   2.121  0.1724  0.3186 -0.1581
  748TIP3    H123735   1.401   6.881   2.113 -0.9219 -0.1121 -0.0282
  748TIP3    H223736   1.376   6.736   2.075 -1.2091 -0.8879  2.8901
  749TIP3   OH223737   0.075   5.976  11.921  0.1725  0.2534  0.0471
  749TIP3    H123738  -0.018   5.984  11.942  0.3813  0.6915  0.8886
  749TIP3    H223739   0.119   6.011  11.999  1.0321  0.4195 -0.5080
  750TIP3   OH223740   0.829   3.394   0.007 -0.4032  0.8829 -0.2859
  750TIP3    H123741   0.804   3.485   0.023 -2.2960  0.2174  0.8127
  750TIP3    H223742   0.779   3.369  -0.071 -0.9843  0.3769  0.2453
  751TIP3   OH223743   0.298   1.168   0.692 -0.4581  0.7259  0.3374
  751TIP3    H123744   0.259   1.135   0.773 -0.2035 -1.0397 -0.2176
  751TIP3    H223745   0.291   1.095   0.631  1.0456  1.3846 -0.6747
  752TIP3   OH223746   5.156   5.252  11.055 -0.2816  0.3248 -0.2395
  752TIP3    H123747   5.062   5.250  11.073  0.1425 -0.3878  2.2953
  752TIP3    H223748   5.175   5.167  11.016 -0.4639 -0.2030  0.7849
  753TIP3   OH223749   3.221   2.763   4.542  0.5007 -0.5969 -0.2878
  753TIP3    H123750   3.277   2.771   4.620 -0.3829 -0.4254  0.3511
  753TIP3    H223751   3.225   2.849   4.501  0.3297 -0.4333  0.0311
  754TIP3   OH223752   4.437   4.349   3.580 -0.4739 -0.3834 -0.5278
  754TIP3    H123753   4.382   4.424   3.559 -1.8774 -1.4982 -1.0425
  754TIP3    H223754   4.389   4.274   3.545 -0.5622 -1.8749  2.4590
  755TIP3   OH223755   1.950   5.836  11.843 -0.0925 -0.2829  0.5324
  755TIP3    H123756   1.883   5.803  11.902 -0.9066  1.1041  0.4157
  755TIP3    H223757   2.014   5.878  11.900 -0.0520 -0.3614  0.5443
  756TIP3   OH223758   3.500   4.592  13.910 -0.5031  0.0674 -0.5120
  756TIP3    H123759   3.466   4.647  13.839 -2.5176  0.4368  0.6699
  756TIP3    H223760   3.482   4.502  13.883  1.6009 -0.0219 -1.8447
  757TIP3   OH223761   6.813   3.695   4.092 -0.1565  0.7489 -0.3799
  757TIP3    H123762   6.768   3.663   4.171  2.2329 -2.8838 -0.2462
  757TIP3    H223763   6.755   3.668   4.020  0.5758 -1.9420 -0.0938
  758TIP3   OH223764   5.473   0.063   3.805 -0.1493 -0.0590  0.1994
  758TIP3    H123765   5.482   0.156   3.826  0.1661  0.0948 -0.5899
  758TIP3    H223766   5.437   0.062   3.716 -0.7585 -0.6964  0.4385
  759TIP3   OH223767   5.963   4.865   2.191 -0.3827  0.3922  0.2905
  759TIP3    H123768   6.053   4.897   2.197  0.0338 -0.7055  0.0543
  759TIP3    H223769   5.910   4.945   2.190  0.6633  1.1188 -0.9661
  760TIP3   OH223770   3.859   1.097  10.481 -0.2457  0.0564 -0.1801
  760TIP3    H123771   3.904   1.113  10.564  0.5987  2.4716 -1.0269
  760TIP3    H223772   3.809   1.017  10.497  1.9851 -1.0959  1.7695
  761TIP3   OH223773   4.539   6.272   1.337  0.4438 -0.1583 -0.0105
  761TIP3    H123774   4.451   6.303   1.360  0.7523  2.0713 -1.5888
  761TIP3    H223775   4.598   6.330   1.385  1.0613 -0.5088 -0.3329
  762TIP3   OH223776   4.703   3.206  13.561  0.0423 -0.3145 -0.0408
  762TIP3    H123777   4.644   3.132  13.577 -0.5401  0.2926  0.6676
  762TIP3    H223778   4.709   3.210  13.465  0.2523 -1.4034 -0.0867
  763TIP3   OH223779   1.844   6.417  12.392 -0.2573  0.5462  0.3301
  763TIP3    H123780   1.845   6.429  12.486  2.6549  0.7985  0.3665
  763TIP3    H223781   1.876   6.327  12.379 -0.6991  0.4891 -0.4079
  764TIP3   OH223782   1.592   2.262  15.095  0.3510  0.8523  0.1018
  764TIP3    H123783   1.579   2.181  15.047 -0.3705  2.3832 -2.4995
  764TIP3    H223784   1.575   2.239  15.187 -0.3110 -1.7700 -0.5960
  765TIP3   OH223785   6.507   5.674   3.728 -0.3364 -0.1861 -0.2190
  765TIP3    H123786   6.535   5.742   3.789 -0.7179  1.1023 -1.4535
  765TIP3    H223787   6.485   5.600   3.785  0.6206  0.4944  1.1161
  766TIP3   OH223788   1.018   1.299  12.212  0.3179  0.2823  0.5317
  766TIP3    H123789   0.924   1.280  12.219  0.5327 -0.7174  0.7537
  766TIP3    H223790   1.036   1.294  12.118  0.5500 -1.6039  0.6383
  767TIP3   OH223791   0.580   1.295   5.196  0.1489  0.0365  0.3090
  767TIP3    H123792   0.619   1.365   5.145 -0.2850 -0.3179 -0.5377
  767TIP3    H223793   0.629   1.217   5.171 -0.7752 -0.3313 -0.4179
  768TIP3   OH223794   5.011   4.747  13.115 -0.4629  0.3350 -0.2567
  768TIP3    H123795   5.025   4.656  13.090 -1.6534  0.0818 -0.0765
  768TIP3    H223796   5.082   4.795  13.072  0.8857 -0.8037  0.6230
  769TIP3   OH223797   4.971   4.449   6.426 -0.2136  0.2083 -0.2369
  769TIP3    H123798   4.957   4.358   6.402  2.1303 -0.0649 -0.7750
  769TIP3    H223799   5.005   4.490   6.347 -0.5194  1.3903  0.2187
  770TIP3   OH223800   4.942   0.473   3.704 -0.1576  0.6738 -0.0068
  770TIP3    H123801   4.980   0.478   3.616  1.0329 -0.0291  0.4417
  770TIP3    H223802   4.940   0.380   3.724 -4.0485  0.4284 -0.7567
  771TIP3   OH223803   3.005   3.086  13.560 -0.1103 -0.2045  0.5173
  771TIP3    H123804   2.933   3.055  13.505 -0.4869  1.2129  0.1675
  771TIP3    H223805   3.076   3.104  13.500 -0.5211  1.3421  0.4379
  772TIP3   OH223806   3.470   2.579   4.445  0.1356  0.3219  0.1743
  772TIP3    H123807   3.514   2.663   4.427 -1.6817  1.4199  0.5651
  772TIP3    H223808   3.504   2.553   4.531  1.6138  0.0000 -0.4690
  773TIP3   OH223809   4.242   4.182   4.218 -0.3705  0.2500 -0.5827
  773TIP3    H123810   4.279   4.229   4.144  0.1453  0.8878  0.0576
  773TIP3    H223811   4.238   4.091   4.190  0.5409  0.3641 -1.1261
  774TIP3   OH223812   3.877   5.236   0.821 -0.1749 -0.3912  0.2575
  774TIP3    H123813   3.851   5.266   0.908 -0.9519  0.9422 -0.4117
  774TIP3    H223814   3.912   5.148   0.836  0.0338 -0.0585  1.9591
  775TIP3   OH223815   6.423   4.435  14.211 -0.0279 -0.0352  0.2494
  775TIP3    H123816   6.495   4.379  14.240 -1.0602 -1.3847  0.3351
  775TIP3    H223817   6.459   4.485  14.138  0.6156 -1.7385 -0.6639
  776TIP3   OH223818   1.227   0.656   5.406 -0.2386  0.2912 -0.4555
  776TIP3    H123819   1.170   0.638   5.481  0.3348  1.0196  0.1657
  776TIP3    H223820   1.291   0.718   5.439 -0.2451  0.9676 -1.6746
  777TIP3   OH223821   0.043   3.774  14.907 -0.0195 -0.1147  0.2212
  777TIP3    H123822   0.082   3.755  14.822 -1.0988 -0.6290 -0.1720
  777TIP3    H223823  -0.040   3.817  14.887 -0.6977 -1.0223  0.9772
  778TIP3   OH223824   3.713   0.358   1.355 -0.2983  0.2390 -0.4324
  778TIP3    H123825   3.651   0.431   1.352 -0.5771  0.0080 -0.4249
  778TIP3    H223826   3.681   0.303   1.426 -0.2963 -0.0709 -0.6694
  779TIP3   OH223827   3.897   1.369  10.514 -0.5491 -0.2683 -0.2148
  779TIP3    H123828   3.926   1.435  10.452  2.6410 -1.5583 -0.2955
  779TIP3    H223829   3.889   1.289  10.461  1.3178 -1.1736  0.7615
  780TIP3   OH223830   0.127   5.738  13.784  0.7008  0.0425 -0.2940
  780TIP3    H123831   0.189   5.811  13.785 -0.3943  0.9968  0.4238
  780TIP3    H223832   0.141   5.694  13.867 -1.6052  2.1093  1.3571
  781TIP3   OH223833   2.058   5.993  16.236 -0.2958 -0.4425 -0.2193
  781TIP3    H123834   2.052   6.074  16.288 -1.3717 -0.6379 -0.0112
  781TIP3    H223835   2.037   6.020  16.147 -0.4995 -0.4496 -0.1768
  782TIP3   OH223836   3.132   2.690  12.553 -0.0102  0.3191  0.6234
  782TIP3    H123837   3.119   2.609  12.603 -3.8839 -0.7821 -1.7246
  782TIP3    H223838   3.178   2.661  12.474 -0.1909  0.6358  0.4014
  783TIP3   OH223839   1.196   3.364  15.175 -0.0885 -0.2923  0.4399
  783TIP3    H123840   1.179   3.456  15.154 -0.8845 -0.5713 -0.2173
  783TIP3    H223841   1.288   3.361  15.200 -0.1289  0.7276  0.7410
  784TIP3   OH223842   3.126   5.956  12.096  0.4721 -0.5573 -0.3534
  784TIP3    H123843   3.139   5.941  12.189  0.5285  0.1663 -0.2420
  784TIP3    H223844   3.151   6.047  12.082  1.3163 -0.9029 -1.2385
  785TIP3   OH223845   4.330   6.160  12.806  0.4202  0.1597  0.0167
  785TIP3    H123846   4.315   6.067  12.821 -1.7644  0.6784  1.5440
  785TIP3    H223847   4.279   6.179  12.727  1.3155 -0.0010 -0.6232
  786TIP3   OH223848   1.205   0.377   3.142 -0.3545  0.0708 -0.3613
  786TIP3    H123849   1.220   0.353   3.051  0.2423 -0.3567 -0.1535
  786TIP3    H223850   1.236   0.301   3.192 -1.4532 -0.0558  0.1671
  787TIP3   OH223851   4.038   3.053   0.760  0.8725  0.2056 -0.3881
  787TIP3    H123852   3.952   3.090   0.778  0.6768 -0.7976  0.8897
  787TIP3    H223853   4.052   3.068   0.666 -0.0248  1.7191 -0.3018
  788TIP3   OH223854   6.737   5.763   0.188  0.2450 -0.1631  0.2985
  788TIP3    H123855   6.759   5.710   0.264  0.2185  0.8288  1.0124
  788TIP3    H223856   6.815   5.758   0.132  0.8184  0.2587  1.0515
  789TIP3   OH223857   0.597   4.169  11.708 -0.3110 -0.2144 -0.2158
  789TIP3    H123858   0.658   4.205  11.773 -0.2140  0.8022 -0.8423
  789TIP3    H223859   0.641   4.091  11.674  0.3559  0.1515 -0.2114
  790TIP3   OH223860   4.863   5.582  14.937 -0.4806 -0.0795 -0.4031
  790TIP3    H123861   4.768   5.582  14.950 -0.6529  3.3200 -0.6896
  790TIP3    H223862   4.900   5.568  15.024 -1.2550 -0.2130 -0.0939
  791TIP3   OH223863   1.069   2.099  16.969  0.5937 -0.3262 -0.1308
  791TIP3    H123864   1.093   2.180  16.923 -1.0124 -0.1247 -0.6654
  791TIP3    H223865   1.050   2.128  17.058  2.1793 -0.4781  0.2818
  792TIP3   OH223866   0.296   2.314  12.661 -0.0308 -0.5943  0.2360
  792TIP3    H123867   0.224   2.369  12.691 -0.3151 -0.6768 -0.2793
  792TIP3    H223868   0.313   2.343  12.572  1.6888  0.5481  0.8740
  793TIP3   OH223869   3.672   1.972   5.502  0.2294 -0.1574 -0.3275
  793TIP3    H123870   3.696   2.065   5.492 -1.6487  0.7893  2.6429
  793TIP3    H223871   3.592   1.963   5.451 -0.5594  0.3747  0.7809
  794TIP3   OH223872   3.100   2.862   5.606  0.4938 -0.0697  0.7169
  794TIP3    H123873   3.053   2.818   5.677 -0.5326  0.6362  0.4915
  794TIP3    H223874   3.149   2.932   5.650  0.8561 -0.4104  0.8699
  795TIP3   OH223875   2.992   4.468   5.444  0.8961  0.4155  0.4228
  795TIP3    H123876   3.024   4.379   5.430  2.1611  0.9075  0.0144
  795TIP3    H223877   3.041   4.499   5.520 -1.0530  0.0797  1.8882
  796TIP3   OH223878   3.964   6.368   5.193  0.0934 -0.1454 -0.7011
  796TIP3    H123879   4.047   6.350   5.235  0.0724 -0.5747 -0.8425
  796TIP3    H223880   3.954   6.299   5.128 -0.5275 -0.2861 -0.4647
  797TIP3   OH223881   3.921   2.446   1.300  0.0735 -0.4373 -0.2708
  797TIP3    H123882   4.005   2.423   1.259  0.7705  1.6040 -0.0897
  797TIP3    H223883   3.864   2.467   1.226 -0.4947 -2.2805 -0.4238
  798TIP3   OH223884   3.754   1.757   0.219 -0.9839 -0.9569 -0.0067
  798TIP3    H123885   3.847   1.776   0.205 -0.9903  0.7488  1.8198
  798TIP3    H223886   3.707   1.819   0.163 -1.0168 -0.5649  0.4537
  799TIP3   OH223887   1.273   3.793   0.536  0.4639  0.1008  0.1011
  799TIP3    H123888   1.356   3.821   0.497  0.3762  0.6310  0.2946
  799TIP3    H223889   1.211   3.863   0.514 -0.0805 -0.5787 -0.5617
  800TIP3   OH223890   0.189   1.872  14.004  0.6514 -0.4989  0.0723
  800TIP3    H123891   0.284   1.864  14.014  0.9058  1.9683  0.1496
  800TIP3    H223892   0.163   1.792  13.959  3.0967 -0.2886 -1.9154
  801TIP3   OH223893   4.123   0.864   3.364  0.2292  0.1142 -0.3668
  801TIP3    H123894   4.030   0.849   3.345 -0.1394  0.8049  0.7671
  801TIP3    H223895   4.158   0.899   3.282 -0.4577 -0.3549 -0.8768
  802TIP3   OH223896   1.809   4.808   2.595 -0.0309  0.8410 -0.6724
  802TIP3    H123897   1.733   4.866   2.590 -1.0768 -0.5522 -2.5949
  802TIP3    H223898   1.792   4.752   2.671 -0.7693  0.7821 -0.8701
  803TIP3   OH223899   2.605   1.266   0.347  0.4047 -0.0067 -0.3106
  803TIP3    H123900   2.593   1.347   0.397  1.5721 -0.2081  0.3333
  803TIP3    H223901   2.524   1.218   0.359  0.1581  0.5508  0.2917
  804TIP3   OH223902   2.888   1.524  15.420 -0.0868  0.2887  0.1247
  804TIP3    H123903   2.882   1.559  15.331 -4.0965 -1.6572 -0.6363
  804TIP3    H223904   2.850   1.592  15.475 -0.4965  0.2672 -0.1280
  805TIP3   OH223905   0.798   2.141  16.742  0.1661 -0.1027  0.0020
  805TIP3    H123906   0.860   2.075  16.776 -0.4605 -0.8448 -0.2763
  805TIP3    H223907   0.820   2.221  16.791  0.6488 -0.6254  0.6678
  806TIP3   OH223908   5.237   4.862   0.871  0.5551  0.2119  0.0611
  806TIP3    H123909   5.208   4.899   0.788  0.0929 -0.7653 -0.2339
  806TIP3    H223910   5.332   4.860   0.865  0.6522  2.0492  0.4141
  807TIP3   OH223911   1.208   4.856   4.326  1.0022 -1.2563 -0.5315
  807TIP3    H123912   1.164   4.805   4.258  1.3386 -2.5443  0.1870
  807TIP3    H223913   1.162   4.832   4.407 -0.4754  1.4764 -0.4371
  808TIP3   OH223914   0.099   3.503  14.813 -0.3629 -0.1717 -0.3962
  808TIP3    H123915   0.078   3.411  14.826  1.0744 -0.5449 -0.5647
  808TIP3    H223916   0.135   3.532  14.897  1.3978 -0.4250 -1.0274
  809TIP3   OH223917   6.262   4.378   0.313 -0.2279  0.2230 -0.9498
  809TIP3    H123918   6.244   4.352   0.223  3.4099 -2.7027 -1.0565
  809TIP3    H223919   6.260   4.296   0.363 -0.4428  1.5324  1.3294
  810TIP3   OH223920   6.543   3.389  15.875 -0.2223  0.0771  0.0820
  810TIP3    H123921   6.590   3.419  15.797  0.1386 -0.8568 -0.0702
  810TIP3    H223922   6.525   3.297  15.858  0.4698 -0.3284  1.3931
  811TIP3   OH223923   3.065   4.270   0.785 -0.1443 -0.4550  0.5643
  811TIP3    H123924   3.015   4.189   0.768  1.9761 -1.6136 -0.5623
  811TIP3    H223925   3.090   4.301   0.698 -0.6058  1.2494  1.0116
  812TIP3   OH223926   1.628   3.294  16.938 -0.0559 -0.5992  0.6663
  812TIP3    H123927   1.614   3.232  16.867 -1.5246  0.1697  0.2517
  812TIP3    H223928   1.580   3.373  16.912 -0.2514 -0.1379  2.3003
  813TIP3   OH223929   2.075   1.844   1.625 -0.4582 -0.4689 -0.0282
  813TIP3    H123930   2.145   1.784   1.652 -0.5716  0.4391  2.5128
  813TIP3    H223931   1.994   1.801   1.653 -0.6066  0.3434  0.8604
  814TIP3   OH223932   0.621   4.489  16.280 -0.0027 -0.1182 -0.0524
  814TIP3    H123933   0.583   4.555  16.223  1.6524  1.4645  0.5891
  814TIP3    H223934   0.558   4.479  16.352 -0.1525  0.9924 -0.0128
  815TIP3   OH223935   2.329   1.226  10.666  0.4062 -0.3244 -0.1399
  815TIP3    H123936   2.269   1.167  10.710  0.0599 -1.4563 -2.0376
  815TIP3    H223937   2.372   1.274  10.737 -0.5619 -1.6068  1.3670
  816TIP3   OH223938   4.643   6.661   4.955  0.2903 -0.4549  0.1527
  816TIP3    H123939   4.623   6.568   4.967 -0.6141 -0.2184  0.5446
  816TIP3    H223940   4.727   6.662   4.910 -0.3258 -1.4775 -1.0499
  817TIP3   OH223941   2.197   3.516   3.448  0.0587 -0.2629  0.1566
  817TIP3    H123942   2.253   3.440   3.431 -0.1424 -0.5127  0.6001
  817TIP3    H223943   2.147   3.492   3.526 -0.0584  0.2967  0.2555
  818TIP3   OH223944   4.654   5.269   5.188  0.2866  0.2157  0.3093
  818TIP3    H123945   4.561   5.292   5.189 -0.1998 -1.5857 -0.1948
  818TIP3    H223946   4.699   5.352   5.203 -1.3691  1.2679 -0.2527
  819TIP3   OH223947   3.033   0.397  15.435  0.1557  0.0355  0.1562
  819TIP3    H123948   3.117   0.439  15.452 -0.3509  1.0738  0.2106
  819TIP3    H223949   2.968   0.464  15.457 -0.6400  0.3368 -2.6879
  820TIP3   OH223950   1.087   3.774   0.162 -0.2511 -0.5165  0.7131
  820TIP3    H123951   1.134   3.714   0.105  0.1081 -1.1008  1.5904
  820TIP3    H223952   1.033   3.718   0.217 -2.3496  0.1590 -0.5431
  821TIP3   OH223953   5.675   1.776  14.694 -0.3800  0.1379 -0.4407
  821TIP3    H123954   5.715   1.692  14.672 -0.1698  0.2788 -0.5965
  821TIP3    H223955   5.690   1.831  14.618 -0.6263  0.2807 -0.3897
  822TIP3   OH223956   1.279   3.325   3.918 -0.5584  0.3409  0.3155
  822TIP3    H123957   1.365   3.344   3.879 -0.9462  1.1651 -0.1557
  822TIP3    H223958   1.291   3.240   3.960  0.5017  0.4575  0.2864
  823TIP3   OH223959   5.489   1.638  12.797 -0.9102 -0.1788  0.1754
  823TIP3    H123960   5.426   1.578  12.838 -1.3543  0.2572  0.1432
  823TIP3    H223961   5.436   1.687  12.734 -0.9556  1.5736  1.5227
  824TIP3   OH223962   6.375   0.833   3.954  0.4650  0.3992  0.6351
  824TIP3    H123963   6.323   0.775   4.010  1.7957  0.7802  2.3728
  824TIP3    H223964   6.355   0.921   3.985 -0.2373  0.7724 -0.8285
  825TIP3   OH223965   1.890   0.821   2.134 -0.0487 -0.0858 -1.0629
  825TIP3    H123966   1.834   0.860   2.068 -0.8635 -1.3845 -1.1674
  825TIP3    H223967   1.854   0.734   2.148 -0.9407  0.6390  2.2485
  826TIP3   OH223968   6.153   2.508  15.540 -0.4796  0.2146 -0.1113
  826TIP3    H123969   6.219   2.449  15.577 -0.7162 -0.3136 -0.5123
  826TIP3    H223970   6.178   2.518  15.449 -1.7281 -1.1327 -0.6353
  827TIP3   OH223971   5.414   4.225   2.151  0.1426 -0.0108 -0.0016
  827TIP3    H123972   5.479   4.197   2.216 -2.1471 -3.4906  1.0796
  827TIP3    H223973   5.433   4.172   2.074  0.3773  1.1748 -0.7832
  828TIP3   OH223974   2.719   0.868   0.513 -0.2665 -0.9231  0.4837
  828TIP3    H123975   2.695   0.899   0.425  0.0466 -1.4336  0.2175
  828TIP3    H223976   2.709   0.946   0.569  0.4828 -0.3469 -0.1694
  829TIP3   OH223977   1.881   6.567  14.572  0.0315 -0.2133  0.3791
  829TIP3    H123978   1.852   6.477  14.555  1.8405 -0.8869  0.6769
  829TIP3    H223979   1.864   6.580  14.665  0.4998 -0.5495  0.5169
  830TIP3   OH223980   1.793   0.937  11.806 -0.3306  0.9161  0.6047
  830TIP3    H123981   1.753   1.022  11.785  1.0591  0.9905 -2.0049
  830TIP3    H223982   1.876   0.959  11.848 -0.5624  0.7955  1.1443
  831TIP3   OH223983   3.204   1.494   1.278 -0.5470 -0.4643 -0.3225
  831TIP3    H123984   3.142   1.479   1.206 -1.0725 -0.6783  0.1710
  831TIP3    H223985   3.275   1.433   1.260  0.4715  1.1134 -1.9584
  832TIP3   OH223986   3.154   2.205   0.634 -0.3714  0.9711  0.3470
  832TIP3    H123987   3.069   2.177   0.668 -0.9463  0.4960 -1.3993
  832TIP3    H223988   3.138   2.292   0.598 -0.0297  1.0212  0.3132
  833TIP3   OH223989   1.305   2.092   3.327  0.1832  0.5819 -0.6918
  833TIP3    H123990   1.304   2.155   3.400  0.9003  0.8483 -0.9043
  833TIP3    H223991   1.326   2.145   3.250  0.4522  0.1350 -0.9270
  834TIP3   OH223992   0.006   2.022   0.227 -0.1090  0.2451 -0.7357
  834TIP3    H123993   0.017   2.099   0.172  0.8523  0.2077 -0.6118
  834TIP3    H223994   0.078   2.026   0.289  0.8619 -1.5377 -1.6623
  835TIP3   OH223995   1.697   2.555  11.746  0.6694  0.5267 -0.7777
  835TIP3    H123996   1.689   2.622  11.814  1.7713  0.4444 -0.5486
  835TIP3    H223997   1.615   2.560  11.698 -0.6829 -0.2617  1.3104
  836TIP3   OH223998   3.326   2.169   5.920  0.8553  0.0532 -0.3104
  836TIP3    H123999   3.388   2.161   5.847  0.2624 -1.5174 -0.6864
  836TIP3    H224000   3.264   2.097   5.907  0.1117  0.3806  1.1697
  837TIP3   OH224001   0.809   0.208  12.051 -0.0472 -0.2331  0.0649
  837TIP3    H124002   0.889   0.158  12.070 -0.2661  0.0691  1.9855
  837TIP3    H224003   0.738   0.152  12.081 -0.4683  0.1911 -0.1239
  838TIP3   OH224004   4.261   0.719  14.332 -0.0551 -0.2573 -0.4472
  838TIP3    H124005   4.181   0.670  14.348 -0.2712 -0.7365 -2.6660
  838TIP3    H224006   4.231   0.799  14.288  0.3855  1.4719  2.1748
  839TIP3   OH224007   5.717   1.020  14.221 -0.6273  0.3059  0.8591
  839TIP3    H124008   5.626   1.019  14.192 -0.3239 -0.6994 -0.1218
  839TIP3    H224009   5.723   1.097  14.277 -1.4540  1.8054 -1.0333
  840TIP3   OH224010   4.789   3.861  16.627 -0.4326 -0.1929 -0.0170
  840TIP3    H124011   4.800   3.957  16.626 -0.7297 -0.1526  0.6887
  840TIP3    H224012   4.805   3.836  16.717  0.1530 -0.8798 -0.3042
  841TIP3   OH224013   5.340   0.136  14.113  0.0716 -0.6320  0.0143
  841TIP3    H124014   5.352   0.042  14.102  0.0848 -0.4178 -2.2066
  841TIP3    H224015   5.266   0.144  14.173 -0.4605 -2.0705 -0.4035
  842TIP3   OH224016   4.353   0.626   5.194 -0.4002 -0.2753  0.2637
  842TIP3    H124017   4.444   0.620   5.165 -0.2577  1.5571  0.1783
  842TIP3    H224018   4.325   0.536   5.206  2.0586 -0.8806  2.2792
  843TIP3   OH224019   1.257   2.274   1.445  0.6615 -0.1577 -0.0931
  843TIP3    H124020   1.351   2.283   1.430  0.5084 -0.5808 -1.4622
  843TIP3    H224021   1.249   2.198   1.502  1.0657 -1.4533 -1.6911
  844TIP3   OH224022   2.400   2.487   1.886  0.0171  0.4906 -0.3121
  844TIP3    H124023   2.321   2.449   1.924 -0.5712  1.3927 -0.5834
  844TIP3    H224024   2.414   2.568   1.936  0.0569  0.9562 -1.0599
  845TIP3   OH224025   6.191   0.920  16.248 -0.6277 -0.4642  0.4153
  845TIP3    H124026   6.131   0.858  16.207 -2.0817  0.8918  0.3890
  845TIP3    H224027   6.158   1.006  16.223 -1.5986  0.4901  4.2681
  846TIP3   OH224028   0.313   6.052  11.495 -0.0179  0.3184 -0.2166
  846TIP3    H124029   0.343   6.097  11.574  0.7116  1.7333 -1.2623
  846TIP3    H224030   0.260   6.117  11.449 -1.7576 -0.9880 -0.1668
  847TIP3   OH224031   0.583   3.260  15.610 -0.0711  0.4107 -0.2575
  847TIP3    H124032   0.488   3.252  15.600 -0.2109 -0.1218  1.2175
  847TIP3    H224033   0.617   3.251  15.521 -1.4303  1.2119 -0.9014
  848TIP3   OH224034   0.003   0.828  11.829  0.0286  0.7454 -0.1254
  848TIP3    H124035   0.002   0.780  11.912  1.0209  0.1956 -0.4116
  848TIP3    H224036  -0.087   0.825  11.798 -0.3047  0.7609  0.8237
  849TIP3   OH224037   5.488   5.487   0.214 -0.0500 -0.0615  0.1886
  849TIP3    H124038   5.459   5.546   0.283 -0.5333  0.9593 -0.8593
  849TIP3    H224039   5.576   5.516   0.191  0.0731 -0.3365  0.3098
  850TIP3   OH224040   5.652   3.484  11.099 -0.8172  0.0163  0.4436
  850TIP3    H124041   5.613   3.560  11.142 -0.1051  0.5923  0.0992
  850TIP3    H224042   5.620   3.489  11.009 -1.4138 -0.5597  0.6123
  851TIP3   OH224043   5.728   6.839   4.863  0.1164 -0.3687 -0.1948
  851TIP3    H124044   5.692   6.782   4.795 -1.1561 -0.4118  0.4819
  851TIP3    H224045   5.817   6.859   4.833 -0.0696 -1.1856 -1.3666
  852TIP3   OH224046   5.111   2.594  16.430 -0.0266  0.2660 -0.4989
  852TIP3    H124047   5.106   2.661  16.363  0.5601  0.6907 -0.1334
  852TIP3    H224048   5.059   2.629  16.503  0.8144  0.6321 -0.0623
  853TIP3   OH224049   1.092   3.707  14.508  0.0853  0.3316 -0.3846
  853TIP3    H124050   1.049   3.788  14.481 -2.8320 -0.4160  1.5436
  853TIP3    H224051   1.129   3.727  14.594  0.7758  0.0536 -0.6118
  854TIP3   OH224052   5.686   5.938  14.596 -0.0784 -0.6168 -0.0099
  854TIP3    H124053   5.621   5.970  14.659  0.2687 -1.8163  1.0265
  854TIP3    H224054   5.636   5.886  14.534 -0.1459 -1.5143  0.7694
  855TIP3   OH224055   4.909   5.875   0.732  0.4385 -0.1531  0.6757
  855TIP3    H124056   4.967   5.811   0.690  0.5603 -0.3090  1.0762
  855TIP3    H224057   4.962   5.912   0.802  1.3515  2.3869 -1.2165
  856TIP3   OH224058   5.699   5.095   5.814  0.5222 -0.0601  0.2229
  856TIP3    H124059   5.625   5.082   5.755  1.0734  1.4553 -0.8529
  856TIP3    H224060   5.772   5.051   5.771  0.1811 -2.1059  1.5863
  857TIP3   OH224061   1.323   3.375   5.290  0.4503  0.2391  0.2566
  857TIP3    H124062   1.265   3.405   5.359  0.8150  0.4524  0.4722
  857TIP3    H224063   1.390   3.443   5.283  0.4377  0.2064 -0.2815
  858TIP3   OH224064   6.218   2.832  13.196  0.3594  0.3450 -0.0517
  858TIP3    H124065   6.215   2.893  13.269 -1.0381 -0.1813  0.3623
  858TIP3    H224066   6.133   2.842  13.153  0.8327  0.0285 -1.0891
  859TIP3   OH224067   3.227   1.520  13.354  0.1464  0.5768 -0.6948
  859TIP3    H124068   3.263   1.432  13.367 -1.8995 -0.3021 -0.5361
  859TIP3    H224069   3.146   1.520  13.405  0.3476  2.7482 -0.3075
  860TIP3   OH224070   0.750   5.991  11.858  0.5759  0.1708  0.3142
  860TIP3    H124071   0.704   6.002  11.774 -3.6509 -0.8316  2.2150
  860TIP3    H224072   0.831   6.040  11.847 -1.5754  3.5757 -3.0351
  861TIP3   OH224073   5.921   4.466   2.686 -0.7054  1.1221  0.1650
  861TIP3    H124074   5.990   4.442   2.625 -0.8140  0.5808  0.2499
  861TIP3    H224075   5.967   4.493   2.765 -0.5952  0.5354  0.3028
  862TIP3   OH224076   4.501   2.288  13.129 -0.3279 -0.3299  0.5834
  862TIP3    H124077   4.570   2.232  13.094 -2.1572 -1.7527 -0.9627
  862TIP3    H224078   4.451   2.230  13.187 -1.2401  0.1629  0.3117
  863TIP3   OH224079   4.405   4.641   6.336 -0.2104 -0.0557 -0.7543
  863TIP3    H124080   4.459   4.562   6.333  1.0436  0.7479 -0.3395
  863TIP3    H224081   4.457   4.707   6.289  0.4225  1.4242  1.8096
  864TIP3   OH224082   2.942   1.508   1.965 -0.0175  0.0419  0.1750
  864TIP3    H124083   2.907   1.546   1.884 -0.4380 -1.2968 -0.2999
  864TIP3    H224084   3.036   1.528   1.962 -0.3845  1.9745  0.4942
  865TIP3   OH224085   4.069   3.827   5.880  1.0597 -0.1599  0.1652
  865TIP3    H124086   4.100   3.742   5.848  1.6864  0.0267  0.2629
  865TIP3    H224087   4.004   3.806   5.947  1.2075 -0.5640  0.1824
  866TIP3   OH224088   6.480   2.547   6.871  0.0722 -0.2906  0.1716
  866TIP3    H124089   6.474   2.452   6.861  0.3333 -0.1987 -0.8875
  866TIP3    H224090   6.507   2.559   6.962 -0.8461 -1.1918  0.5864
  867TIP3   OH224091   3.099   6.258   2.560 -0.4102 -0.2830  0.1008
  867TIP3    H124092   3.054   6.320   2.503 -2.8331 -1.7232  0.3507
  867TIP3    H224093   3.122   6.310   2.637 -3.3648  0.1525  0.7939
  868TIP3   OH224094   1.182   5.351  13.026 -0.3662 -0.6917  0.1126
  868TIP3    H124095   1.205   5.444  13.017 -1.5244 -0.4666 -0.7081
  868TIP3    H224096   1.225   5.324  13.107  1.3494  0.1214 -0.4635
  869TIP3   OH224097   5.786   1.624  14.364 -0.1620 -0.2074  0.1159
  869TIP3    H124098   5.842   1.696  14.393 -2.0577  1.1466  0.6562
  869TIP3    H224099   5.814   1.606  14.274 -1.3591  3.1451 -1.0883
  870TIP3   OH224100   2.013   5.784   1.806  0.5908 -0.8595 -0.1189
  870TIP3    H124101   2.074   5.836   1.859  0.3576 -0.7573  0.0525
  870TIP3    H224102   1.942   5.845   1.787  0.5047 -1.0033 -0.2502
  871TIP3   OH224103   3.760   5.854  13.957  0.0352  0.2022  0.1091
  871TIP3    H124104   3.814   5.822  14.029  0.8500 -0.5434 -0.7989
  871TIP3    H224105   3.688   5.900  13.999  1.6647  1.7369  1.3863
  872TIP3   OH224106   4.905   1.779   0.854 -0.2056  0.7746 -0.2031
  872TIP3    H124107   4.813   1.759   0.839  0.2763 -1.3202 -0.8335
  872TIP3    H224108   4.925   1.738   0.938  0.3302  0.4521 -0.4789
  873TIP3   OH224109   3.869   1.363   3.647  0.0619 -0.4346  0.0192
  873TIP3    H124110   3.800   1.422   3.618 -1.0982 -1.6904  0.1434
  873TIP3    H224111   3.929   1.419   3.696 -0.8203  0.6944 -0.1438
  874TIP3   OH224112   2.369   1.932  12.282  0.1510  0.3951  0.0269
  874TIP3    H124113   2.416   2.015  12.283  0.0413  0.4786 -1.1834
  874TIP3    H224114   2.302   1.943  12.215 -0.0472 -0.5686  0.0586
  875TIP3   OH224115   1.133   6.147   1.218 -0.0560 -0.4227 -0.4090
  875TIP3    H124116   1.042   6.123   1.202 -0.5637 -0.1648  1.7649
  875TIP3    H224117   1.157   6.203   1.145 -1.7008 -0.3558 -0.9221
  876TIP3   OH224118   4.685   3.926  11.605 -0.1497  0.3062  0.1579
  876TIP3    H124119   4.756   3.885  11.653 -1.8362 -1.5495  1.2214
  876TIP3    H224120   4.645   3.986  11.667 -0.8811 -0.3469  0.3351
  877TIP3   OH224121   4.534   2.322   2.440 -0.2568  0.2833  0.1332
  877TIP3    H124122   4.459   2.318   2.381  0.1097  0.4596 -0.3464
  877TIP3    H224123   4.527   2.409   2.481 -0.8130 -0.0488  0.7599
  878TIP3   OH224124   1.425   5.079   1.110 -0.2914  0.2070  0.4385
  878TIP3    H124125   1.361   5.036   1.053 -0.0098 -0.5090  0.6532
  878TIP3    H224126   1.373   5.112   1.183 -0.2561 -1.7116  1.3962
  879TIP3   OH224127   0.145   2.804   3.454 -0.2342 -0.2700  0.1764
  879TIP3    H124128   0.151   2.874   3.519 -0.3299  1.1420 -1.2705
  879TIP3    H224129   0.232   2.765   3.453  0.2493  0.7714  0.0097
  880TIP3   OH224130   1.093   6.120   4.711 -0.2907  0.0030  0.1947
  880TIP3    H124131   1.094   6.032   4.674 -0.1046  0.7136 -1.5863
  880TIP3    H224132   1.000   6.140   4.724 -0.3950 -0.0913 -0.3693
  881TIP3   OH224133   0.472   5.741   6.034 -0.1591 -0.0268  0.3498
  881TIP3    H124134   0.489   5.775   6.122  1.2129  0.8942 -0.2216
  881TIP3    H224135   0.399   5.793   6.002 -1.7112 -1.4238  1.4737
  882TIP3   OH224136   0.004   4.168   3.304 -0.3972  0.3990 -0.3676
  882TIP3    H124137   0.085   4.122   3.326  0.1847  1.3069 -0.6066
  882TIP3    H224138   0.025   4.220   3.228 -1.1330  0.8645 -0.2598
  883TIP3   OH224139   6.805   6.044  10.512  0.2225  0.1246  0.5403
  883TIP3    H124140   6.796   6.000  10.428 -2.5478  0.3456  0.6525
  883TIP3    H224141   6.830   5.974  10.573  2.3467 -0.0213 -0.4006
  884TIP3   OH224142   5.441   1.635   6.082  0.6169 -0.1994 -0.1472
  884TIP3    H124143   5.399   1.704   6.134 -1.0445  0.0155 -1.6769
  884TIP3    H224144   5.400   1.554   6.111 -0.2082 -0.0952 -0.9939
  885TIP3   OH224145   6.725   3.158   1.696  0.0919  0.0241  0.1307
  885TIP3    H124146   6.672   3.192   1.624 -3.6287 -0.8139  2.2439
  885TIP3    H224147   6.716   3.063   1.689  1.0601 -0.1315  0.7866
  886TIP3   OH224148   2.843   0.034  17.060 -0.3251 -0.8655  0.1250
  886TIP3    H124149   2.762   0.036  17.111 -0.9911 -0.2261 -0.9351
  886TIP3    H224150   2.841   0.115  17.009  1.0654 -0.7636  0.1948
  887TIP3   OH224151   5.224   1.935   4.475 -0.1659 -0.1245 -0.7392
  887TIP3    H124152   5.198   1.956   4.564  0.8889  0.0529 -0.4621
  887TIP3    H224153   5.226   1.840   4.472  3.2002 -0.2289  0.5204
  888TIP3   OH224154   6.838   4.880   4.343 -0.2312 -0.0791 -0.0413
  888TIP3    H124155   6.923   4.908   4.378 -0.5560  2.8428 -1.2690
  888TIP3    H224156   6.792   4.842   4.418  0.5547  2.3230  1.7928
  889TIP3   OH224157   6.172   4.066   6.469 -0.0499  0.0167 -0.0683
  889TIP3    H124158   6.238   4.079   6.401 -0.8218 -0.5639 -0.9530
  889TIP3    H224159   6.218   4.085   6.551  0.9190  0.6585 -0.7394
  890TIP3   OH224160   1.737   4.155  15.029 -0.5819 -0.4607 -0.0531
  890TIP3    H124161   1.721   4.248  15.015  1.4809 -0.2068 -1.1015
  890TIP3    H224162   1.749   4.146  15.123  0.2462  0.5429 -0.0502
  891TIP3   OH224163   6.006   4.088   0.617 -0.3861  0.1302 -0.2209
  891TIP3    H124164   5.942   4.130   0.674 -0.8668  1.1076 -1.4462
  891TIP3    H224165   6.088   4.134   0.635  0.4942 -2.1996  2.5764
  892TIP3   OH224166   2.495   0.733  16.033 -0.6751  0.2568 -0.2804
  892TIP3    H124167   2.513   0.813  16.082 -1.6400 -0.5954  1.5491
  892TIP3    H224168   2.468   0.670  16.099 -0.7160 -1.3639 -1.7760
  893TIP3   OH224169   3.378   6.446  10.692  0.1016 -0.1151  0.3890
  893TIP3    H124170   3.287   6.449  10.665  0.1430  2.5513  0.3220
  893TIP3    H224171   3.428   6.448  10.610  0.2039  0.2716  0.4563
  894TIP3   OH224172   0.569   3.012   4.747  0.0038  0.3468  0.1464
  894TIP3    H124173   0.600   2.947   4.684 -2.7687 -1.8382  0.8410
  894TIP3    H224174   0.551   3.089   4.695 -1.7632 -1.2474 -1.7636
  895TIP3   OH224175   3.796   3.692   5.162 -0.4872  0.1560  0.0992
  895TIP3    H124176   3.778   3.598   5.161 -0.7481  0.1658 -2.3775
  895TIP3    H224177   3.813   3.712   5.254 -2.7710 -1.8432  1.0540
  896TIP3   OH224178   5.105   1.875  16.184 -0.6011  0.0295  0.4930
  896TIP3    H124179   5.109   1.862  16.279 -1.5648  2.5202  0.9533
  896TIP3    H224180   5.148   1.798  16.148 -0.9062 -1.3871  2.9095
  897TIP3   OH224181   4.727   5.893  11.954 -0.4687  0.3295 -0.8960
  897TIP3    H124182   4.774   5.821  11.912 -0.5875  0.2972 -0.9732
  897TIP3    H224183   4.645   5.854  11.984 -0.6288  0.4812 -1.1293
  898TIP3   OH224184   4.321   1.535   5.648 -0.2256 -0.1703  0.0020
  898TIP3    H124185   4.263   1.600   5.609 -0.2075  1.3288  2.2812
  898TIP3    H224186   4.407   1.577   5.649  0.3995 -1.3575 -0.9792
  899TIP3   OH224187   1.291   3.358  17.189  0.3365 -0.4728 -0.5164
  899TIP3    H124188   1.254   3.283  17.235  0.2227  0.6478  1.3342
  899TIP3    H224189   1.386   3.347  17.199  0.4279 -1.5445 -2.2671
  900TIP3   OH224190   2.795   0.979   2.697  0.7724 -0.0664  0.4504
  900TIP3    H124191   2.878   1.026   2.697  0.9750 -0.3788 -0.7625
  900TIP3    H224192   2.736   1.034   2.645  1.5903 -1.9898 -2.8242
  901TIP3   OH224193   0.864   5.777   0.432 -0.2092 -0.0016  0.2509
  901TIP3    H124194   0.888   5.763   0.524 -1.1102  0.5931  0.5843
  901TIP3    H224195   0.865   5.872   0.421 -1.4583 -0.0042  0.0253
  902TIP3   OH224196   6.665   0.298   1.627 -0.1286 -0.2890  0.2317
  902TIP3    H124197   6.730   0.230   1.607  1.3732  1.6984 -2.2770
  902TIP3    H224198   6.717   0.370   1.662 -1.6570 -0.2357  2.6029
  903TIP3   OH224199   2.976   2.078  13.959  0.5227 -0.1498  0.2900
  903TIP3    H124200   3.006   1.991  13.932  0.2112  0.0957 -0.8912
  903TIP3    H224201   2.917   2.106  13.889 -1.6926 -0.2030  2.0428
  904TIP3   OH224202   5.672   1.553   4.310  0.3072 -0.2075  0.4422
  904TIP3    H124203   5.699   1.580   4.222 -0.3938  2.2525  0.8819
  904TIP3    H224204   5.620   1.474   4.297 -2.7431  1.9505 -1.8721
  905TIP3   OH224205   4.890   5.696   1.534  0.2302  0.4388 -0.0508
  905TIP3    H124206   4.872   5.712   1.441 -1.1394  0.2409  0.1711
  905TIP3    H224207   4.804   5.684   1.574  0.6101  2.7376  1.6861
  906TIP3   OH224208   6.007   3.914   5.871 -0.5490  0.1335  0.3492
  906TIP3    H124209   5.995   3.823   5.897 -1.6150  0.2974  0.4909
  906TIP3    H224210   6.098   3.933   5.891  1.0667 -2.1588 -3.6238
  907TIP3   OH224211   3.808   6.542   4.187 -1.0078 -0.2844 -0.2843
  907TIP3    H124212   3.841   6.559   4.275 -2.7681  1.6534  0.0872
  907TIP3    H224213   3.780   6.450   4.190 -1.0067 -0.2690  1.1694
  908TIP3   OH224214   4.965   4.924   0.970  0.3981 -0.5920 -0.6629
  908TIP3    H124215   5.057   4.945   0.955  0.4678 -0.9593 -0.7493
  908TIP3    H224216   4.949   4.845   0.918  0.6651 -1.9314  1.2117
  909TIP3   OH224217   5.700   2.174  11.132 -0.6232 -0.0373  0.1404
  909TIP3    H124218   5.629   2.137  11.080 -0.7612  1.9549 -1.2082
  909TIP3    H224219   5.770   2.108  11.127 -1.6331 -1.1150 -0.2248
  910TIP3   OH224220   2.968   2.529   2.082  0.0611  0.1269 -0.1238
  910TIP3    H124221   3.034   2.513   2.149 -0.7158  1.0600  0.9116
  910TIP3    H224222   2.924   2.609   2.111  0.2792  1.0745 -2.2287
  911TIP3   OH224223   5.467   1.270  14.123  0.1790  0.0905  0.1879
  911TIP3    H124224   5.520   1.244  14.047  0.1601  0.5544  0.0124
  911TIP3    H224225   5.432   1.356  14.099  0.5469  0.4508  0.9116
  912TIP3   OH224226   1.664   1.846   4.025  0.7765  0.2670 -0.6592
  912TIP3    H124227   1.610   1.924   4.027 -2.1299 -1.6255  0.0336
  912TIP3    H224228   1.634   1.797   3.948 -0.0828 -1.8202  0.9192
  913TIP3   OH224229   0.917   3.523  16.851  0.7763 -0.1302 -0.0723
  913TIP3    H124230   0.949   3.583  16.783  0.4497  0.6303  0.4330
  913TIP3    H224231   0.860   3.577  16.906  3.5990  0.2158  2.8031
  914TIP3   OH224232   6.802   6.793  15.395 -0.8116 -0.3023  0.5493
  914TIP3    H124233   6.746   6.801  15.472 -0.2505 -3.1863  1.3854
  914TIP3    H224234   6.746   6.757  15.328 -1.0544  1.2806 -0.1350
  915TIP3   OH224235   4.341   2.726   0.862 -0.1470 -0.7683  0.1366
  915TIP3    H124236   4.340   2.818   0.836  3.4727 -0.6438 -0.0495
  915TIP3    H224237   4.263   2.716   0.916 -1.1864  2.1366 -0.6256
  916TIP3   OH224238   2.260   4.220  14.617 -0.2009 -0.2093 -0.3362
  916TIP3    H124239   2.219   4.265  14.543 -0.8070  0.0104  0.1292
  916TIP3    H224240   2.205   4.144  14.633  1.4533 -1.8252 -1.8616
  917TIP3   OH224241   5.970   2.914   3.284 -0.2449 -0.0688 -0.1881
  917TIP3    H124242   6.032   2.895   3.214  0.8640 -0.2809  0.8205
  917TIP3    H224243   5.958   3.009   3.280  0.1606 -0.0218 -0.3804
  918TIP3   OH224244   0.257   6.723   6.024 -0.1006 -0.7277  0.1951
  918TIP3    H124245   0.323   6.703   6.091  0.1831  0.0613  0.1696
  918TIP3    H224246   0.182   6.669   6.047  0.9684 -2.5700 -0.4888
  919TIP3   OH224247   0.681   1.609  13.975 -0.2808  0.4026  0.2879
  919TIP3    H124248   0.722   1.623  14.061 -1.5812 -1.9366  1.3777
  919TIP3    H224249   0.720   1.529  13.942 -0.2462  0.9461 -1.0774
  920TIP3   OH224250   0.375   4.601  12.705  0.2222  0.3261  0.4339
  920TIP3    H124251   0.340   4.608  12.616 -1.6731  1.4750  1.2051
  920TIP3    H224252   0.454   4.654  12.704  0.9534 -0.7187 -0.8684
  921TIP3   OH224253   1.076   0.179   1.119 -0.3014 -0.3296  0.0636
  921TIP3    H124254   1.081   0.238   1.195 -2.0851  1.4856 -1.1342
  921TIP3    H224255   1.083   0.237   1.043  0.2093 -1.9559 -1.1952
  922TIP3   OH224256   4.547   3.527   0.624  0.4620 -0.3828 -0.0122
  922TIP3    H124257   4.613   3.594   0.643 -1.0573  1.0945  0.3594
  922TIP3    H224258   4.575   3.450   0.673  2.3527 -0.0976 -0.5699
  923TIP3   OH224259   2.005   3.736  14.947  0.0843 -0.0527  0.3395
  923TIP3    H124260   1.974   3.690  15.025 -1.3386  1.6884  0.8807
  923TIP3    H224261   2.029   3.823  14.979 -2.3501  1.3815 -1.3408
  924TIP3   OH224262   6.464   5.497   5.019  0.1469  0.3147 -0.0819
  924TIP3    H124263   6.368   5.493   5.014  0.1681 -0.5296  0.0117
  924TIP3    H224264   6.484   5.462   5.106  0.6248 -1.3563 -0.8284
  925TIP3   OH224265   3.268   5.169  15.079  0.2272  0.0505  0.2613
  925TIP3    H124266   3.288   5.076  15.068 -1.7646 -0.2853 -1.0527
  925TIP3    H224267   3.176   5.171  15.104  0.0953  1.6764 -0.2357
  926TIP3   OH224268   4.101   1.803  13.645  0.0178 -1.0707 -0.1890
  926TIP3    H124269   4.062   1.811  13.732  0.8171 -1.5245  0.2201
  926TIP3    H224270   4.032   1.832  13.585  0.1267  1.2005  0.7049
  927TIP3   OH224271   2.567   6.598   3.197  0.3870 -0.2836  0.6462
  927TIP3    H124272   2.605   6.682   3.171 -1.6467  0.5911  0.3731
  927TIP3    H224273   2.643   6.545   3.222  1.7076  1.7251  1.1642
  928TIP3   OH224274   6.659   6.072  11.398 -0.5520  0.0906 -0.2616
  928TIP3    H124275   6.601   6.124  11.454 -0.7952 -0.1711 -0.2687
  928TIP3    H224276   6.747   6.100  11.423 -0.6096 -0.8798  1.1198
  929TIP3   OH224277   2.878   6.398  11.117  0.1117 -0.7799 -0.0846
  929TIP3    H124278   2.798   6.377  11.070  0.3041  0.2817 -0.9275
  929TIP3    H224279   2.897   6.489  11.094  0.5639 -0.4151  1.5475
  930TIP3   OH224280   1.814   2.259   2.168 -1.2172  0.2823 -0.3165
  930TIP3    H124281   1.882   2.250   2.234 -3.1044 -1.5192  1.5324
  930TIP3    H224282   1.805   2.171   2.131 -2.9340  0.3134 -0.0541
  931TIP3   OH224283   0.457   3.941   2.490 -0.1859  0.0613 -0.0616
  931TIP3    H124284   0.493   3.966   2.576  0.5531 -0.1174 -0.3054
  931TIP3    H224285   0.487   3.851   2.477 -2.2547 -0.7640  0.5053
  932TIP3   OH224286   5.289   5.634  12.066  0.4236 -0.2903 -0.0804
  932TIP3    H124287   5.379   5.652  12.037  0.1716  1.1665 -0.0724
  932TIP3    H224288   5.236   5.646  11.988  0.1896 -0.6911  0.0179
  933TIP3   OH224289   2.739   0.895   5.747  0.6308 -0.1843  0.4609
  933TIP3    H124290   2.672   0.962   5.756  0.1210 -0.5973 -0.1345
  933TIP3    H224291   2.706   0.820   5.797  0.3264 -0.6136 -0.3613
  934TIP3   OH224292   3.002   2.067  12.496  0.2700 -0.0923 -0.1977
  934TIP3    H124293   3.057   2.144  12.511  0.3800 -0.4554  1.5103
  934TIP3    H224294   3.047   1.997  12.543 -0.9386 -0.7110  0.0730
  935TIP3   OH224295   4.541   4.032  11.395 -0.3027  0.5538 -0.0208
  935TIP3    H124296   4.558   3.976  11.319 -0.8565 -0.2789  0.4549
  935TIP3    H224297   4.597   3.997  11.464 -0.1456  1.0234  0.0990
  936TIP3   OH224298   6.578   3.047  13.837  0.9995 -0.1666  0.3723
  936TIP3    H124299   6.556   3.099  13.914  2.6134 -0.2322  0.9095
  936TIP3    H224300   6.654   3.091  13.799 -1.0257  1.1852 -2.5095
  937TIP3   OH224301   2.020   0.590  11.952 -0.1918  0.7230  0.6530
  937TIP3    H124302   2.084   0.633  12.009  0.1669  0.3972  0.5033
  937TIP3    H224303   2.022   0.640  11.871  0.9200 -0.1119  0.1328
  938TIP3   OH224304   3.193   2.598  14.108 -0.7235  0.6306  0.1768
  938TIP3    H124305   3.144   2.629  14.184  0.9618  0.1820  1.5138
  938TIP3    H224306   3.143   2.523  14.077 -1.6313  1.0363  0.6163
  939TIP3   OH224307   6.036   4.173   4.432 -0.0994 -0.9325  0.4768
  939TIP3    H124308   6.015   4.109   4.500 -0.3385  0.4046  1.7364
  939TIP3    H224309   5.951   4.199   4.397 -0.2554  0.5175  1.7833
  940TIP3   OH224310   2.424   1.440   6.043 -0.0690  0.3727 -0.2325
  940TIP3    H124311   2.418   1.370   6.109 -0.4220  0.3714 -0.2650
  940TIP3    H224312   2.395   1.398   5.962  0.0341  0.4698 -0.3194
  941TIP3   OH224313   3.531   1.283  16.184 -0.0712 -0.4116  0.1209
  941TIP3    H124314   3.472   1.310  16.113 -0.1550 -0.0204  0.3364
  941TIP3    H224315   3.474   1.268  16.259  0.2534  1.9538  0.9271
  942TIP3   OH224316   4.970   5.402  11.287  0.4810  0.5002 -0.6095
  942TIP3    H124317   4.915   5.467  11.245 -0.8483 -0.1565  0.0712
  942TIP3    H224318   4.976   5.331  11.223 -2.8345 -1.2020  0.7225
  943TIP3   OH224319   3.168   6.044   2.230  0.0427 -0.3730 -0.5596
  943TIP3    H124320   3.116   5.978   2.276 -0.5282 -0.2583 -1.0232
  943TIP3    H224321   3.226   5.993   2.173  0.5626 -0.5053  0.0816
  944TIP3   OH224322   0.104   0.158  12.189 -0.2379 -0.2733 -0.1018
  944TIP3    H124323   0.143   0.232  12.236 -0.3058 -0.3923  0.1440
  944TIP3    H224324   0.136   0.167  12.099  1.6881 -1.2889  0.4284
  945TIP3   OH224325   5.493   6.084  16.468  0.8687 -0.0530  0.6807
  945TIP3    H124326   5.465   6.175  16.478 -0.1555 -0.4543  1.5935
  945TIP3    H224327   5.564   6.074  16.532  0.8499  0.0482  0.7184
  946TIP3   OH224328   3.556   5.424  16.064 -0.0340  0.2064 -0.0380
  946TIP3    H124329   3.483   5.442  16.124 -0.4238 -1.4351  0.0346
  946TIP3    H224330   3.634   5.443  16.116 -0.3692  2.1578 -0.1738
  947TIP3   OH224331   4.324   3.471  13.140  0.0753  0.3108  0.1813
  947TIP3    H124332   4.303   3.481  13.047  1.2281 -1.8355 -0.3589
  947TIP3    H224333   4.246   3.504  13.186 -1.7771 -1.3101 -1.6060
  948TIP3   OH224334   4.020   5.625   5.466  0.0480 -0.1477  0.3408
  948TIP3    H124335   4.056   5.603   5.380  0.5592  0.7710  0.3071
  948TIP3    H224336   3.946   5.566   5.477  0.5253 -0.8985 -0.3400
  949TIP3   OH224337   3.115   4.066   0.052 -0.8281 -0.5540  0.1968
  949TIP3    H124338   3.035   4.114   0.072 -0.9710 -0.7081 -0.0038
  949TIP3    H224339   3.183   4.133   0.049 -0.6793 -0.6051  1.8594
  950TIP3   OH224340   3.679   2.024   4.237 -0.6566  0.8532 -0.2586
  950TIP3    H124341   3.641   1.950   4.190 -1.5532  1.4626 -0.5176
  950TIP3    H224342   3.712   1.987   4.319  0.8192 -0.2034 -1.2887
  951TIP3   OH224343   4.428   6.634   3.989  0.2275  0.0500 -0.2628
  951TIP3    H124344   4.489   6.665   4.056  1.5159  0.0328 -1.3763
  951TIP3    H224345   4.380   6.564   4.031  1.9620 -0.8857  0.2608
  952TIP3   OH224346   5.267   0.785  16.893 -0.4354 -0.3588 -0.4618
  952TIP3    H124347   5.342   0.845  16.894 -0.4060 -0.3977 -0.3328
  952TIP3    H224348   5.298   0.708  16.846 -0.0932 -0.7687  0.4361
  953TIP3   OH224349   6.422   0.331  15.946 -0.6458 -0.4061  0.3826
  953TIP3    H124350   6.435   0.239  15.966  2.1689 -0.4483 -1.1747
  953TIP3    H224351   6.459   0.378  16.021 -1.1926 -0.5061  0.7240
  954TIP3   OH224352   1.437   2.470  15.343  0.0328 -0.0877  0.6809
  954TIP3    H124353   1.404   2.449  15.431 -1.1854  1.2975  0.5688
  954TIP3    H224354   1.523   2.509  15.360 -0.5598  0.9713  1.3301
  955TIP3   OH224355   2.942   5.277  14.250  0.2141  0.0915  0.0634
  955TIP3    H124356   2.962   5.234  14.167 -0.5397  1.9253 -1.1381
  955TIP3    H224357   3.023   5.323  14.273  1.2011 -2.2582  1.6296
  956TIP3   OH224358   4.453   5.800  11.140  0.1569 -0.2135 -0.4025
  956TIP3    H124359   4.363   5.815  11.112  0.4374  0.2825 -1.0503
  956TIP3    H224360   4.485   5.732  11.081  0.4032  0.0565 -0.5818
  957TIP3   OH224361   2.644   0.331  11.230 -0.4333  0.5735 -0.3247
  957TIP3    H124362   2.685   0.248  11.204 -0.5038  0.5820 -0.4613
  957TIP3    H224363   2.707   0.398  11.204 -0.4845  0.5792 -0.4340
  958TIP3   OH224364   1.862   6.446  16.899  0.4444 -0.2127 -0.3343
  958TIP3    H124365   1.813   6.459  16.818  0.3384  1.6396 -0.0123
  958TIP3    H224366   1.840   6.357  16.926 -0.7515 -0.3055 -1.5110
  959TIP3   OH224367   3.249   0.250   1.122  0.4284  0.7704  0.8009
  959TIP3    H124368   3.247   0.181   1.056  0.8235 -0.7990  2.3461
  959TIP3    H224369   3.332   0.237   1.168  1.7343  3.8701 -0.4250
  960TIP3   OH224370   4.123   3.153   2.837 -0.6198 -0.3029 -0.6423
  960TIP3    H124371   4.142   3.234   2.788  0.5957  0.9824  1.7772
  960TIP3    H224372   4.091   3.092   2.770 -1.9238  2.2420 -2.5384
  961TIP3   OH224373   2.645   6.426  11.645  0.5163 -0.1269 -0.7429
  961TIP3    H124374   2.639   6.481  11.724 -0.1255 -0.5249 -0.5107
  961TIP3    H224375   2.631   6.337  11.677 -2.8961 -0.0682 -1.6783
  962TIP3   OH224376   4.494   2.633  15.280  0.0197  0.2144 -0.5373
  962TIP3    H124377   4.490   2.676  15.366  1.8534  0.8579 -0.7256
  962TIP3    H224378   4.534   2.699  15.223  0.0561 -0.6844 -1.5730
  963TIP3   OH224379   1.835   5.466   2.210 -0.5125 -0.0732  0.3115
  963TIP3    H124380   1.884   5.421   2.141 -0.3783 -0.2656  0.5291
  963TIP3    H224381   1.899   5.476   2.282 -0.5924  0.3000  0.3341
  964TIP3   OH224382   0.953   6.817   3.368  0.1333  0.1200  0.4606
  964TIP3    H124383   0.931   6.812   3.461  0.1071 -1.0102  0.4035
  964TIP3    H224384   0.870   6.835   3.324  0.1272  0.5446  0.6353
  965TIP3   OH224385   6.644   3.543   3.932  0.2832  0.3471 -0.1231
  965TIP3    H124386   6.560   3.524   3.974 -0.7939 -0.0426 -2.3311
  965TIP3    H224387   6.694   3.462   3.940 -0.5639 -0.2821 -1.0254
  966TIP3   OH224388   6.756   6.580  11.000 -0.1958 -0.0299  0.0764
  966TIP3    H124389   6.783   6.498  11.041  0.0135 -0.4045 -0.8067
  966TIP3    H224390   6.715   6.554  10.918 -1.8981  0.6278  0.6770
  967TIP3   OH224391   1.720   2.611  10.699  0.4799 -0.0725  0.1630
  967TIP3    H124392   1.687   2.522  10.715  1.7001 -0.2254  2.1132
  967TIP3    H224393   1.809   2.597  10.666  0.4785  0.4336 -0.0546
  968TIP3   OH224394   0.699   6.002   1.828 -0.0095  0.5124  0.2754
  968TIP3    H124395   0.765   6.020   1.761 -0.6358  0.7889 -0.2896
  968TIP3    H224396   0.616   6.028   1.787 -0.4326  0.4719  1.0801
  969TIP3   OH224397   0.342   1.172   1.481  0.0998 -0.0745 -0.1074
  969TIP3    H124398   0.428   1.213   1.492  0.1557 -0.1052 -0.4272
  969TIP3    H224399   0.291   1.204   1.556  0.1250  0.6315 -0.3857
  970TIP3   OH224400   1.613   5.251  15.682  0.2739 -0.0441 -0.5608
  970TIP3    H124401   1.537   5.192  15.682 -0.1619  0.5028 -0.1568
  970TIP3    H224402   1.670   5.217  15.614 -1.3024  0.7665 -2.3723
  971TIP3   OH224403   3.800   4.613  12.656  0.5748  0.3126 -0.1285
  971TIP3    H124404   3.804   4.523  12.690  0.8870  0.7551  1.0364
  971TIP3    H224405   3.874   4.658  12.696 -0.8079  1.6609  1.0487
  972TIP3   OH224406   6.136   5.082   1.579 -0.4879 -0.0040 -0.2071
  972TIP3    H124407   6.048   5.117   1.592  0.1158  0.9537  1.6983
  972TIP3    H224408   6.138   5.001   1.631 -0.3710 -0.2429 -0.5822
  973TIP3   OH224409   0.090   4.096   1.797  0.2632 -0.0982 -0.1118
  973TIP3    H124410   0.047   4.040   1.732  0.7223 -0.7047  0.0937
  973TIP3    H224411   0.103   4.039   1.873 -3.0198  1.3346  1.7536
  974TIP3   OH224412   6.353   3.239  13.974 -0.0660 -0.1495  0.4182
  974TIP3    H124413   6.310   3.163  14.014 -0.6723 -0.1317 -0.1744
  974TIP3    H224414   6.444   3.233  14.003  0.3411 -2.1347 -1.0213
  975TIP3   OH224415   5.914   2.363  14.794 -0.0310 -0.0356 -0.4819
  975TIP3    H124416   5.856   2.304  14.841 -1.2170  1.8710  0.5966
  975TIP3    H224417   6.000   2.320  14.797 -0.3209 -0.6594  2.3516
  976TIP3   OH224418   1.795   6.155  16.273  0.1957  0.4632 -0.5895
  976TIP3    H124419   1.757   6.118  16.194 -0.2575  0.6320 -0.4513
  976TIP3    H224420   1.818   6.245  16.249 -1.1573  0.9449 -0.1556
  977TIP3   OH224421   1.485   2.025   2.037 -0.6994 -0.2475 -0.7006
  977TIP3    H124422   1.425   1.988   2.102  2.2175  0.2328  2.5953
  977TIP3    H224423   1.523   1.949   1.993 -0.2830 -0.8209  0.6021
  978TIP3   OH224424   0.961   5.813   0.700 -0.3660 -0.1840  0.6681
  978TIP3    H124425   1.018   5.887   0.724  2.3951 -1.6427 -0.9261
  978TIP3    H224426   1.006   5.736   0.734 -1.4198 -1.4198 -0.6267
  979TIP3   OH224427   5.654   3.367   1.156  0.0211  0.1382 -0.0830
  979TIP3    H124428   5.593   3.374   1.083  1.6582  0.7999 -1.4342
  979TIP3    H224429   5.738   3.396   1.121  0.6074  1.7731  2.4181
  980TIP3   OH224430   4.434   4.772  12.623  0.1806  0.0638 -1.0422
  980TIP3    H124431   4.391   4.808  12.700 -0.4495 -1.2279 -0.7632
  980TIP3    H224432   4.369   4.782  12.553  0.0943 -0.3159 -1.0160
  981TIP3   OH224433   0.350   4.874  15.761  0.0348  0.1505 -0.2967
  981TIP3    H124434   0.391   4.948  15.805 -0.4584  0.5833 -0.5593
  981TIP3    H224435   0.256   4.891  15.765 -0.0953 -0.5277 -0.2431
  982TIP3   OH224436   6.063   5.237  15.559  0.1738 -0.5860  0.0402
  982TIP3    H124437   6.109   5.319  15.538 -3.1354  1.1387 -1.0627
  982TIP3    H224438   6.112   5.170  15.511  1.6465  1.0589 -0.9005
  983TIP3   OH224439   6.655   1.863  15.994  0.4717  0.2127 -0.0675
  983TIP3    H124440   6.634   1.955  16.008  1.0250  0.2167  0.8230
  983TIP3    H224441   6.744   1.853  16.026  0.4980 -0.5858 -0.3620
  984TIP3   OH224442   5.712   2.053   4.513  0.4756 -0.3372 -0.1340
  984TIP3    H124443   5.706   1.966   4.474  2.1444 -0.8705  0.7053
  984TIP3    H224444   5.806   2.067   4.527  0.0430 -0.4680  4.2178
  985TIP3   OH224445   2.769   4.217   4.311 -0.4563  0.9010  0.7663
  985TIP3    H124446   2.677   4.216   4.336 -1.1520 -4.0040 -0.9803
  985TIP3    H224447   2.805   4.136   4.346  2.3928  1.1895 -1.1199
  986TIP3   OH224448   1.682   1.639   5.329 -0.1591 -0.2793 -0.3951
  986TIP3    H124449   1.713   1.724   5.297  1.2999 -0.9345 -0.8020
  986TIP3    H224450   1.757   1.603   5.377 -0.9537 -1.0892  0.2703
  987TIP3   OH224451   5.405   3.120   0.498  0.2384  0.3665  0.0750
  987TIP3    H124452   5.416   3.191   0.435 -2.1179  0.5895 -0.1646
  987TIP3    H224453   5.344   3.059   0.455 -0.2961 -0.1781  1.5486
  988TIP3   OH224454   1.069   5.619   2.735 -0.4266 -0.1355 -0.0624
  988TIP3    H124455   1.119   5.541   2.710 -0.7255  0.2897 -2.1667
  988TIP3    H224456   1.128   5.667   2.793  0.8420 -0.6130 -0.9103
  989TIP3   OH224457   5.151   2.717   3.815 -0.2565 -0.3367  0.3208
  989TIP3    H124458   5.109   2.728   3.901 -1.9014 -0.3468 -0.4365
  989TIP3    H224459   5.146   2.623   3.798 -1.0902 -0.1934 -0.3102
  990TIP3   OH224460   5.400   5.555   3.574 -0.1608  0.6530  0.1919
  990TIP3    H124461   5.390   5.485   3.510 -0.9443  0.5927  0.3681
  990TIP3    H224462   5.389   5.512   3.659 -3.0352  1.3014  0.2641
  991TIP3   OH224463   4.770   5.773   6.660  0.0193 -0.1417 -0.1579
  991TIP3    H124464   4.836   5.722   6.613 -0.1006 -0.0997 -0.3789
  991TIP3    H224465   4.721   5.816   6.590 -0.0465  0.0668  0.0167
  992TIP3   OH224466   3.894   4.677  11.350  0.3715 -0.2608  0.5205
  992TIP3    H124467   3.981   4.719  11.350  1.1264 -1.7620  0.3579
  992TIP3    H224468   3.864   4.686  11.260  1.1515 -1.2665  0.1421
  993TIP3   OH224469   5.178   0.186   1.113  0.4719  0.2373 -0.2326
  993TIP3    H124470   5.200   0.226   1.197 -1.7998 -0.1620  0.6071
  993TIP3    H224471   5.138   0.256   1.062 -0.9269 -0.2493  0.1765
  994TIP3   OH224472   1.057   4.759  16.166 -0.2500  0.2918  0.7782
  994TIP3    H124473   1.031   4.677  16.125 -0.3841 -0.2987  2.0075
  994TIP3    H224474   1.068   4.820  16.093 -4.9693  0.6409  0.0588
  995TIP3   OH224475   6.416   6.780   0.702  0.6059  0.0678 -0.5624
  995TIP3    H124476   6.401   6.706   0.643 -1.4995 -0.5235  0.6043
  995TIP3    H224477   6.474   6.745   0.771  0.2654 -0.2689 -0.4448
  996TIP3   OH224478   4.454   0.369   1.096  1.0687 -0.4372 -0.5328
  996TIP3    H124479   4.424   0.339   1.010  2.0130  1.1303 -1.4535
  996TIP3    H224480   4.383   0.344   1.156  0.0468 -0.8991 -1.8849
  997TIP3   OH224481   2.221   1.117   2.263 -0.0622 -0.5467  0.8614
  997TIP3    H124482   2.308   1.131   2.301 -0.4148 -0.5751  1.6893
  997TIP3    H224483   2.192   1.205   2.238 -0.1772 -0.4199  1.4334
  998TIP3   OH224484   1.190   5.679  13.024 -0.3134  0.5046 -0.1574
  998TIP3    H124485   1.210   5.752  12.965 -1.5218  0.5919 -0.4845
  998TIP3    H224486   1.095   5.670  13.019 -0.2889 -0.3712  0.7474
  999TIP3   OH224487   4.240   6.557   5.987 -0.0630 -0.2889  0.3115
  999TIP3    H124488   4.179   6.580   6.057 -1.0784  2.2915 -1.3032
  999TIP3    H224489   4.214   6.469   5.960 -0.5751 -0.7443  2.1392
 1000TIP3   OH224490   5.716   2.402   3.239 -0.3134 -0.1554  0.3321
 1000TIP3    H124491   5.721   2.335   3.307 -0.1035 -0.9901 -0.4916
 1000TIP3    H224492   5.628   2.439   3.249 -0.6395 -0.9373  0.4478
 1001TIP3   OH224493   2.860   4.667   5.302  0.3142 -0.4487  0.1548
 1001TIP3    H124494   2.865   4.730   5.373 -0.0212  1.0927 -1.1481
 1001TIP3    H224495   2.908   4.590   5.335 -2.6817 -1.1689  3.3770
 1002TIP3   OH224496   6.717   0.925   3.657 -0.7083 -0.4958 -0.2020
 1002TIP3    H124497   6.735   0.840   3.616  0.2870 -0.0664 -0.6763
 1002TIP3    H224498   6.744   0.989   3.591  0.6684  0.2058  0.9912
 1003TIP3   OH224499   6.231   0.059  11.803 -0.1239  0.0989 -0.0106
 1003TIP3    H124500   6.213  -0.031  11.775 -0.3244  0.4563 -1.0794
 1003TIP3    H224501   6.154   0.108  11.773  0.6720  0.8895 -0.8198
 1004TIP3   OH224502   3.336   3.133   1.228  0.0819  0.7235  0.3556
 1004TIP3    H124503   3.271   3.137   1.298 -0.0106  2.7210  0.2053
 1004TIP3    H224504   3.337   3.041   1.201  0.4748 -0.2220  3.2949
 1005TIP3   OH224505   2.596   4.142   3.016  0.1554  0.1120 -0.4662
 1005TIP3    H124506   2.524   4.099   3.064 -0.0554 -0.3803 -1.1999
 1005TIP3    H224507   2.673   4.126   3.070 -0.2893  0.7099  0.3716
 1006TIP3   OH224508   1.005   4.449  12.790 -0.0656  0.2652  0.1953
 1006TIP3    H124509   0.986   4.515  12.857  1.7289  0.2018  0.8287
 1006TIP3    H224510   1.070   4.391  12.830 -0.8557 -1.3294 -0.7017
 1007TIP3   OH224511   1.497   3.434  14.407 -0.2817  0.1597  0.5516
 1007TIP3    H124512   1.533   3.517  14.439 -2.4358  1.3031  0.2223
 1007TIP3    H224513   1.415   3.423  14.455  0.0549 -1.9072  0.7151
 1008TIP3   OH224514   0.438   0.532   4.980  0.4001 -0.0782 -0.2323
 1008TIP3    H124515   0.434   0.591   5.055  1.3357 -0.2806 -0.0027
 1008TIP3    H224516   0.396   0.452   5.011 -0.1384  0.1859 -0.2725
 1009TIP3   OH224517   5.525   4.450  11.841  0.5250  0.3527  0.1093
 1009TIP3    H124518   5.554   4.497  11.919  1.6851  1.6433 -1.0379
 1009TIP3    H224519   5.439   4.488  11.820  0.0283 -0.2735  0.9404
 1010TIP3   OH224520   6.735   6.451   6.024 -0.1152 -0.0755 -0.2568
 1010TIP3    H124521   6.696   6.523   6.074  0.1810  0.4458 -0.7663
 1010TIP3    H224522   6.824   6.444   6.058  0.3610  0.8348 -1.2703
 1011TIP3   OH224523   4.825   3.603   3.941  0.2313  0.1699 -0.1623
 1011TIP3    H124524   4.873   3.576   4.019  0.5179 -0.3649 -0.5227
 1011TIP3    H224525   4.733   3.605   3.968  0.5050  2.3514  0.8789
 1012TIP3   OH224526   5.898   2.435  16.086  0.5446  0.2798  0.1950
 1012TIP3    H124527   5.834   2.448  16.016 -0.1464  0.1596  0.8019
 1012TIP3    H224528   5.972   2.491  16.061 -0.0783  0.9702 -0.1543
 1013TIP3   OH224529   3.511   4.023   4.298  0.2178 -0.0293  0.6258
 1013TIP3    H124530   3.481   4.114   4.298 -0.3405 -0.1943  1.8868
 1013TIP3    H224531   3.439   3.974   4.337  1.2372 -0.7557  1.6478
 1014TIP3   OH224532   2.051   5.632  15.096 -0.1124 -0.0468 -0.7285
 1014TIP3    H124533   2.068   5.574  15.021  0.8052 -0.6360 -0.0745
 1014TIP3    H224534   2.088   5.716  15.069  2.4241 -0.8448 -0.0520
 1015TIP3   OH224535   0.609   4.850   4.442 -0.2859 -0.2929  0.0023
 1015TIP3    H124536   0.698   4.851   4.478 -0.7709  0.9873  1.2640
 1015TIP3    H224537   0.609   4.777   4.380  1.8318  0.0936 -0.5372
 1016TIP3   OH224538   5.307   1.262   4.794 -0.5807 -0.1359 -0.9225
 1016TIP3    H124539   5.332   1.348   4.828 -2.0614 -0.7118  1.9444
 1016TIP3    H224540   5.229   1.280   4.740 -1.4433  0.2757  0.4129
 1017TIP3   OH224541   6.262   2.612   4.156 -0.2718  0.3592  0.1869
 1017TIP3    H124542   6.274   2.651   4.069  0.3891 -0.0325  0.0911
 1017TIP3    H224543   6.197   2.542   4.142 -0.5174  0.6012  0.1077
 1018TIP3   OH224544   0.787   4.132  16.015 -0.0947 -0.1101 -0.1901
 1018TIP3    H124545   0.761   4.161  16.103 -0.4436 -2.1172  0.4306
 1018TIP3    H224546   0.747   4.195  15.956 -0.7179  0.7099  1.0545
 1019TIP3   OH224547   3.088   1.664   3.657  0.0375  1.0337  0.3533
 1019TIP3    H124548   3.057   1.727   3.592  0.7345  0.3300 -0.6797
 1019TIP3    H224549   3.107   1.717   3.734 -3.7684  1.5443  1.1513
 1020TIP3   OH224550   2.149   4.288   6.141 -0.2090 -0.0426 -0.5869
 1020TIP3    H124551   2.153   4.193   6.153  0.0409 -0.1045 -1.1495
 1020TIP3    H224552   2.232   4.320   6.178  0.0855 -0.1303 -1.1581
 1021TIP3   OH224553   3.991   3.589   5.339 -0.3236  0.4140 -0.3151
 1021TIP3    H124554   3.948   3.525   5.282  1.4305 -0.1237 -1.1050
 1021TIP3    H224555   4.080   3.555   5.351 -0.6954  0.3356  3.0717
 1022TIP3   OH224556   5.056   5.957   5.036  0.5704 -0.5858 -0.2377
 1022TIP3    H124557   5.036   5.939   4.944 -1.2445  0.3857 -0.0703
 1022TIP3    H224558   5.068   6.052   5.039 -0.8649 -0.4059  0.7525
 1023TIP3   OH224559   0.680   4.371  13.946  0.1561  0.0516 -0.4215
 1023TIP3    H124560   0.770   4.396  13.965 -0.0713  1.7236 -1.3668
 1023TIP3    H224561   0.627   4.442  13.981 -0.8007 -0.8251 -0.0338
 1024TIP3   OH224562   4.917   2.027  10.841 -0.3438 -0.2592  0.3425
 1024TIP3    H124563   5.003   1.985  10.845  0.1047  0.6769  0.8239
 1024TIP3    H224564   4.855   1.956  10.856  0.3741 -0.8287  0.6825
 1025TIP3   OH224565   4.004   2.225   3.573  0.2663  0.8040 -0.0107
 1025TIP3    H124566   4.047   2.194   3.652  0.5045  0.0056 -0.4457
 1025TIP3    H224567   4.053   2.304   3.550  0.3822  0.8776  0.4725
 1026TIP3   OH224568   2.435   0.691  16.945  0.2652 -0.9147 -0.5136
 1026TIP3    H124569   2.503   0.666  16.883  1.6637  1.2183  0.0330
 1026TIP3    H224570   2.482   0.701  17.028 -0.7228  0.4899 -0.0944
 1027TIP3   OH224571   0.118   3.529   3.380 -0.4732 -0.0833  0.0253
 1027TIP3    H124572   0.027   3.498   3.375  0.6576 -4.1607  0.5403
 1027TIP3    H224573   0.156   3.507   3.295  0.9471 -2.4020  1.1541
 1028TIP3   OH224574   4.582   5.322  13.236 -0.2405 -0.5024  0.6098
 1028TIP3    H124575   4.600   5.371  13.316 -0.1116  0.0498  0.2484
 1028TIP3    H224576   4.582   5.388  13.166 -0.2151 -0.9933  0.1338
 1029TIP3   OH224577   0.932   2.426  16.969 -0.0101  0.2018  0.4444
 1029TIP3    H124578   0.842   2.416  16.938 -0.3377  0.5919  1.2488
 1029TIP3    H224579   0.976   2.473  16.898 -0.8005  1.2707  0.6399
 1030TIP3   OH224580   3.561   6.224   5.019 -0.0024  0.0770  0.2787
 1030TIP3    H124581   3.521   6.293   4.966 -1.8448 -1.1934 -0.0484
 1030TIP3    H224582   3.558   6.146   4.963 -1.0221 -1.0530  1.8486
 1031TIP3   OH224583   0.183   6.005   0.245  0.0269  0.0898 -0.0104
 1031TIP3    H124584   0.247   6.067   0.213 -0.9952  0.4832 -1.3767
 1031TIP3    H224585   0.190   5.929   0.187 -1.2064  0.4254 -0.6395
 1032TIP3   OH224586   4.091   2.272  11.773  0.4543 -0.5377 -0.0962
 1032TIP3    H124587   4.051   2.349  11.731  0.7878 -0.6593 -0.6465
 1032TIP3    H224588   4.116   2.216  11.700  0.1533 -1.2048  0.3035
 1033TIP3   OH224589   5.132   4.416  11.418 -0.1802  0.1881  0.6912
 1033TIP3    H124590   5.113   4.497  11.370  1.5077 -0.4408 -1.2287
 1033TIP3    H224591   5.063   4.356  11.392 -0.9245  0.7149  1.4048
 1034TIP3   OH224592   3.369   4.531  15.635  0.9888 -0.1254  0.1119
 1034TIP3    H124593   3.373   4.560  15.544 -0.9212  1.4026  0.4519
 1034TIP3    H224594   3.446   4.570  15.676  2.4910 -1.7350 -1.0187
 1035TIP3   OH224595   4.103   1.363  12.295 -0.1636 -0.2215 -0.2233
 1035TIP3    H124596   4.054   1.435  12.254  1.8177  0.0173 -2.3997
 1035TIP3    H224597   4.089   1.289  12.236  0.6889 -0.6160  0.0611
 1036TIP3   OH224598   5.704   4.589  10.744  0.7606  0.2141 -0.0081
 1036TIP3    H124599   5.635   4.590  10.810 -0.2136  0.8786 -1.0226
 1036TIP3    H224600   5.728   4.496  10.736 -0.1406 -0.0441  0.2271
 1037TIP3   OH224601   1.505   6.551  14.966  0.1377 -0.0012  0.1594
 1037TIP3    H124602   1.455   6.603  14.903 -0.6032 -0.9009 -0.0309
 1037TIP3    H224603   1.487   6.460  14.941 -0.0542 -0.3781  1.5702
 1038TIP3   OH224604   2.166   1.435   4.535  0.0988 -0.6170  0.3305
 1038TIP3    H124605   2.159   1.528   4.512  3.8879 -0.4447 -0.8609
 1038TIP3    H224606   2.075   1.406   4.545 -1.2394  3.2762  1.2710
 1039TIP3   OH224607   4.264   5.950   0.828  0.6061 -0.1934  0.3642
 1039TIP3    H124608   4.340   5.995   0.790  0.8688 -0.8715  0.0797
 1039TIP3    H224609   4.297   5.911   0.908  0.9113 -1.6168 -0.4249
 1040TIP3   OH224610   1.421   0.449   5.481  0.4021 -0.3051 -0.2006
 1040TIP3    H124611   1.467   0.372   5.515  1.9627 -0.0971 -1.7039
 1040TIP3    H224612   1.483   0.521   5.493  0.4184  0.0384 -2.0018
 1041TIP3   OH224613   0.364   2.604   4.086  0.4010 -0.2698  0.6722
 1041TIP3    H124614   0.431   2.635   4.025  0.6031 -1.8852  0.0403
 1041TIP3    H224615   0.411   2.548   4.147 -0.3899 -1.5947  0.0926
 1042TIP3   OH224616   6.639   3.059  16.062  0.1091  0.0349 -0.1825
 1042TIP3    H124617   6.601   3.017  15.985 -0.1986 -1.8705  0.9651
 1042TIP3    H224618   6.724   3.016  16.074 -0.6727 -1.0938  1.6472
 1043TIP3   OH224619   2.528   1.334   1.823 -0.2968 -0.1456 -0.1198
 1043TIP3    H124620   2.539   1.254   1.771 -0.9580 -0.0730 -0.3741
 1043TIP3    H224621   2.570   1.402   1.771 -2.1550  0.2033 -1.2748
 1044TIP3   OH224622   2.765   4.486   0.153 -0.1563 -0.4193  0.0305
 1044TIP3    H124623   2.784   4.392   0.149  2.3261 -0.0786  1.6589
 1044TIP3    H224624   2.687   4.493   0.208 -0.5727 -1.5302 -0.4010
 1045TIP3   OH224625   5.261   1.653  13.482  0.0313  0.5763  1.0313
 1045TIP3    H124626   5.169   1.644  13.457 -0.5867  2.0624  2.5857
 1045TIP3    H224627   5.270   1.598  13.559  1.4669 -2.5349 -1.1627
 1046TIP3   OH224628   1.488   1.202  12.215 -0.2366  0.3303  0.7535
 1046TIP3    H124629   1.435   1.173  12.289  1.8691  1.5248  2.8969
 1046TIP3    H224630   1.442   1.278  12.180 -1.4325 -0.4511  0.5714
 1047TIP3   OH224631   4.534   1.827  12.626  0.0077 -0.6288 -0.3319
 1047TIP3    H124632   4.493   1.813  12.540  0.0522 -3.0442 -0.0427
 1047TIP3    H224633   4.624   1.852  12.606 -0.3683  0.2475 -0.9749
 1048TIP3   OH224634   5.660   6.575  16.385  0.3082 -0.4546  0.7764
 1048TIP3    H124635   5.679   6.481  16.389  1.9627 -0.2234 -0.3597
 1048TIP3    H224636   5.714   6.607  16.313  0.4813  1.5270  1.7166
 1049TIP3   OH224637   5.477   4.686  17.100 -0.2429  0.4543  0.8224
 1049TIP3    H124638   5.466   4.614  17.038  0.9565 -0.3927  1.5387
 1049TIP3    H224639   5.413   4.751  17.073 -0.5319 -0.3735 -0.5932
 1050TIP3   OH224640   2.141   1.282  11.786 -0.1628 -0.1636  0.2655
 1050TIP3    H124641   2.079   1.229  11.837 -0.9705  0.2255 -0.3054
 1050TIP3    H224642   2.202   1.217  11.749  1.0834 -0.3909  2.5165
 1051TIP3   OH224643   5.518   0.851  11.797 -0.2145 -0.6463  0.4445
 1051TIP3    H124644   5.556   0.900  11.870 -1.3384  1.2372 -0.1798
 1051TIP3    H224645   5.576   0.868  11.723  1.0661 -2.7594  0.8850
 1052TIP3   OH224646   1.147   4.469   1.642  0.1023  0.0677 -0.3720
 1052TIP3    H124647   1.121   4.556   1.611  0.4410  1.0838  1.9376
 1052TIP3    H224648   1.237   4.480   1.671 -0.2274 -0.6981  1.0685
 1053TIP3   OH224649   4.426   2.138   4.637  0.0411 -0.6820  1.0138
 1053TIP3    H124650   4.442   2.231   4.651  0.3597 -0.7978  1.4575
 1053TIP3    H224651   4.511   2.102   4.614 -0.3702 -0.5990 -0.7612
 1054TIP3   OH224652   1.099   1.956   6.096 -0.4339 -0.1130  0.5550
 1054TIP3    H124653   1.053   1.954   6.013 -0.3545  0.9298  0.4711
 1054TIP3    H224654   1.175   2.012   6.081 -0.9764  0.9494  1.5880
 1055TIP3   OH224655   6.082   0.098   4.551 -0.1201  0.3493 -0.6722
 1055TIP3    H124656   6.147   0.114   4.482  0.2996 -1.8097 -0.8366
 1055TIP3    H224657   6.084   0.004   4.565 -2.6793  0.3153 -0.0854
 1056TIP3   OH224658   3.663   4.918   5.218 -0.3395  0.0435 -0.2512
 1056TIP3    H124659   3.569   4.898   5.218 -0.9445  2.3826 -2.2001
 1056TIP3    H224660   3.681   4.948   5.129  2.1727  0.1079  0.2082
 1057TIP3   OH224661   6.828   3.508   4.807 -0.2511 -0.1046 -0.0545
 1057TIP3    H124662   6.804   3.594   4.840  1.7094  0.5433 -0.1929
 1057TIP3    H224663   6.837   3.453   4.885 -3.2099 -0.7414 -0.0478
 1058TIP3   OH224664   0.818   6.496   2.133  0.3837  0.1673 -0.0457
 1058TIP3    H124665   0.818   6.437   2.209  2.6177 -1.3892 -1.1486
 1058TIP3    H224666   0.839   6.582   2.168 -1.6894  0.1359  1.4445
 1059TIP3   OH224667   1.732   3.431  15.050 -0.1776  0.0276 -0.1253
 1059TIP3    H124668   1.735   3.461  15.140  1.6275  0.2285 -0.2269
 1059TIP3    H224669   1.822   3.406  15.029 -0.0262  2.2551 -2.6212
 1060TIP3   OH224670   2.751   1.896   3.855 -0.2685  0.4082 -0.2194
 1060TIP3    H124671   2.785   1.848   3.931 -0.9276  1.0447  0.5088
 1060TIP3    H224672   2.817   1.963   3.838 -1.1777  1.7883  1.3348
 1061TIP3   OH224673   2.892   4.662   2.386  0.0358 -0.3798 -0.1070
 1061TIP3    H124674   2.922   4.709   2.464 -1.7822 -0.7291  0.8613
 1061TIP3    H224675   2.895   4.570   2.412 -1.6832 -0.4371  0.0216
 1062TIP3   OH224676   3.946   1.559   5.740 -0.5829  0.1754 -0.0096
 1062TIP3    H124677   3.952   1.617   5.816 -0.7326  0.2079 -0.0229
 1062TIP3    H224678   3.955   1.617   5.664 -1.5998  0.3019 -0.0458
 1063TIP3   OH224679   4.925   2.497  11.470 -0.8014 -0.1692  0.0632
 1063TIP3    H124680   4.893   2.561  11.408 -3.4800 -1.7898 -0.3879
 1063TIP3    H224681   4.859   2.495  11.539  0.5035 -0.6747  1.3689
 1064TIP3   OH224682   4.844   6.656   3.851 -0.0219 -0.2374  0.0659
 1064TIP3    H124683   4.780   6.727   3.850 -1.2258 -1.2751 -0.1076
 1064TIP3    H224684   4.886   6.660   3.765  0.1746  0.4678  0.1906
 1065TIP3   OH224685   5.767   0.322   1.427 -0.2495 -0.1094 -0.7059
 1065TIP3    H124686   5.799   0.241   1.387  2.3396  0.3168  0.2989
 1065TIP3    H224687   5.796   0.391   1.368  1.1806  0.3173  0.4207
 1066TIP3   OH224688   5.846   6.750  14.282 -0.3021  0.6615 -0.0461
 1066TIP3    H124689   5.782   6.693  14.240 -0.9355  1.5942 -0.3728
 1066TIP3    H224690   5.928   6.733  14.235 -0.3536 -0.3510  0.2069
 1067TIP3   OH224691   3.633   3.617  14.667 -0.0067 -0.8591 -0.7307
 1067TIP3    H124692   3.634   3.587  14.758  1.8286  0.1115 -0.3768
 1067TIP3    H224693   3.693   3.558  14.621  0.3167 -0.3775 -0.9447
 1068TIP3   OH224694   3.745   5.569  12.115  0.2532  0.7093  0.1248
 1068TIP3    H124695   3.733   5.478  12.141  1.4130 -0.0961 -1.9379
 1068TIP3    H224696   3.840   5.582  12.119  0.3265  1.0693 -1.7803
 1069TIP3   OH224697   1.210   3.421   0.363 -0.5897 -0.4234 -0.4219
 1069TIP3    H124698   1.162   3.376   0.293 -1.1004  0.4071 -0.6190
 1069TIP3    H224699   1.165   3.505   0.372 -0.6977 -0.6162  1.0809
 1070TIP3   OH224700   6.444   3.668  12.183 -0.6612 -0.8440  0.2132
 1070TIP3    H124701   6.457   3.584  12.140 -0.9916 -0.8362  0.0899
 1070TIP3    H224702   6.474   3.654  12.273  2.4521 -0.1418 -0.6111
 1071TIP3   OH224703   2.104   6.289  16.160  0.1518  0.0685  0.0555
 1071TIP3    H124704   2.160   6.269  16.085 -0.8697  0.5939 -0.8876
 1071TIP3    H224705   2.041   6.353  16.126  1.1892  2.2807  2.0234
 1072TIP3   OH224706   2.675   0.163   6.097  0.5816 -0.4317 -0.3313
 1072TIP3    H124707   2.662   0.247   6.053  0.4888 -1.9044 -3.3588
 1072TIP3    H224708   2.604   0.108   6.064  0.2627 -1.5634  2.0718
 1073TIP3   OH224709   6.394   4.839   2.316  0.2468  0.3755 -0.4163
 1073TIP3    H124710   6.332   4.773   2.348 -0.2498  0.4298 -1.2347
 1073TIP3    H224711   6.461   4.844   2.384  0.6549 -1.4506 -0.6302
 1074TIP3   OH224712   2.085   4.991   3.313  0.4306  0.3053  0.7660
 1074TIP3    H124713   2.148   4.990   3.240 -0.6836  1.0761 -0.2396
 1074TIP3    H224714   2.000   5.006   3.271 -0.6187 -1.7731  1.9754
 1075TIP3   OH224715   4.781   3.378  16.554 -0.3003  0.1559  0.1276
 1075TIP3    H124716   4.723   3.446  16.587 -0.0673  0.0401  0.7740
 1075TIP3    H224717   4.764   3.376  16.459 -2.2669 -0.7353  0.4432
 1076TIP3   OH224718   0.821   2.506  11.467 -0.1881  0.7398 -0.1325
 1076TIP3    H124719   0.802   2.536  11.378 -1.6227  3.5334  0.9823
 1076TIP3    H224720   0.740   2.465  11.497  0.0875  0.3518  0.0948
 1077TIP3   OH224721   1.566   5.976   2.581 -0.7340 -0.5558  0.8098
 1077TIP3    H124722   1.561   6.069   2.557 -1.2898 -0.8798 -0.4020
 1077TIP3    H224723   1.605   5.933   2.505 -0.5009 -1.3272  1.3536
 1078TIP3   OH224724   0.300   1.853  14.793  0.5229 -0.5659  0.3623
 1078TIP3    H124725   0.386   1.819  14.814  0.5789 -1.3737 -1.0665
 1078TIP3    H224726   0.275   1.808  14.712 -0.8804  0.2647  0.2962
 1079TIP3   OH224727   6.479   3.712  16.467  0.2840 -0.4485 -0.1323
 1079TIP3    H124728   6.557   3.745  16.423  0.9584  0.4723  1.6667
 1079TIP3    H224729   6.457   3.632  16.419  0.2863  1.0471 -2.8255
 1080TIP3   OH224730   2.375   0.340  11.363 -0.1469 -0.4612  0.2847
 1080TIP3    H124731   2.376   0.338  11.459  2.1612 -2.4693  0.3251
 1080TIP3    H224732   2.466   0.354  11.339 -0.6668 -0.1656 -1.6385
 1081TIP3   OH224733   5.644   4.291  16.690 -0.1762  0.2504  0.0506
 1081TIP3    H124734   5.725   4.263  16.647 -0.7810 -4.0044  1.1407
 1081TIP3    H224735   5.588   4.322  16.620  2.0278  2.5627 -0.8224
 1082TIP3   OH224736   2.083   4.212   1.991 -0.4481 -0.0079 -0.3355
 1082TIP3    H124737   2.047   4.286   2.038  2.4702  1.4350 -0.1422
 1082TIP3    H224738   2.176   4.212   2.013 -0.4993 -4.7303  0.9310
 1083TIP3   OH224739   5.832   1.765  12.716 -0.0931 -0.3647 -0.0723
 1083TIP3    H124740   5.778   1.760  12.637  0.4304 -0.2312 -0.4461
 1083TIP3    H224741   5.858   1.675  12.733 -3.9102 -1.2258  2.6233
 1084TIP3   OH224742   5.379   0.394  15.448  0.2583  0.2237 -0.4293
 1084TIP3    H124743   5.432   0.425  15.374  2.3450 -0.8969  0.5226
 1084TIP3    H224744   5.342   0.473  15.486 -1.9887  0.7736 -3.3739
 1085TIP3   OH224745   5.187   4.149   0.165  0.3982 -0.0736  0.2122
 1085TIP3    H124746   5.225   4.141   0.253  0.0304  0.0037  0.3835
 1085TIP3    H224747   5.112   4.208   0.177  0.1741 -0.2900 -0.0982
 1086TIP3   OH224748   1.504   0.827  11.821  0.3383 -1.0593 -0.1396
 1086TIP3    H124749   1.576   0.891  11.815  0.0251 -0.4985  1.6448
 1086TIP3    H224750   1.433   0.875  11.862  0.3212 -2.7201  1.9051
 1087TIP3   OH224751   4.979   5.007  14.655  0.7659 -0.6445 -0.3130
 1087TIP3    H124752   4.965   4.920  14.691 -1.9902 -0.0149  0.3273
 1087TIP3    H224753   4.898   5.055  14.672  2.6843  2.5770  0.7605
 1088TIP3   OH224754   3.748   3.972  12.339  0.7154  0.2137 -0.3116
 1088TIP3    H124755   3.817   3.914  12.306  0.3403  1.2390 -3.1510
 1088TIP3    H224756   3.792   4.057  12.348  0.4380  0.2787  0.4871
 1089TIP3   OH224757   5.934   3.537   6.250  0.1082 -1.1545 -0.3188
 1089TIP3    H124758   5.961   3.478   6.180 -0.0680 -1.5380 -0.0630
 1089TIP3    H224759   5.990   3.615   6.238  0.5510 -1.4892 -0.4706
 1090TIP3   OH224760   3.381   5.178   2.868 -0.0834  0.4987  0.5432
 1090TIP3    H124761   3.469   5.153   2.840  0.0263  0.8585  0.5562
 1090TIP3    H224762   3.388   5.271   2.889 -1.0119  1.1751 -1.8042
 1091TIP3   OH224763   2.666   5.948  12.745  0.3645 -0.1027  0.5840
 1091TIP3    H124764   2.686   6.008  12.672  1.6940 -0.3695  0.7062
 1091TIP3    H224765   2.604   5.886  12.708  1.2422 -0.4056 -0.4307
 1092TIP3   OH224766   0.648   1.877  16.329  0.6981 -0.5671  0.3411
 1092TIP3    H124767   0.602   1.841  16.405 -0.3324 -1.9564 -0.8821
 1092TIP3    H224768   0.739   1.850  16.341  0.3160 -1.8621  0.4771
 1093TIP3   OH224769   3.122   2.795  13.440  0.0467  0.0655  0.4880
 1093TIP3    H124770   3.089   2.850  13.512 -0.7413 -0.1382  0.2893
 1093TIP3    H224771   3.181   2.733  13.483 -0.2678  0.0690  0.9371
 1094TIP3   OH224772   3.830   6.076  13.773  0.1066  0.0416 -0.1163
 1094TIP3    H124773   3.798   6.034  13.693  1.0400 -0.4556 -0.2500
 1094TIP3    H224774   3.801   6.019  13.844 -0.5224  0.3588 -0.1162
 1095TIP3   OH224775   2.938   1.187   2.938 -0.2683  0.0106  0.3716
 1095TIP3    H124776   2.888   1.120   2.984 -1.1508 -0.8342 -1.6814
 1095TIP3    H224777   2.874   1.255   2.917  0.3296  0.8609  1.1957
 1096TIP3   OH224778   5.801   1.449  15.810 -0.1010  0.3588  0.2728
 1096TIP3    H124779   5.812   1.355  15.826  1.1703  0.6913  1.6531
 1096TIP3    H224780   5.707   1.463  15.810 -0.3269 -0.5245  2.9701
 1097TIP3   OH224781   4.979   4.246  16.861 -0.3309  0.2559 -0.2514
 1097TIP3    H124782   5.025   4.319  16.903  1.3794  0.6706 -2.6322
 1097TIP3    H224783   4.980   4.176  16.926 -0.2879  1.7089  1.3740
 1098TIP3   OH224784   2.944   3.680  11.549  0.3979 -0.8990 -0.9035
 1098TIP3    H124785   2.911   3.594  11.575 -0.1412 -0.2787  0.5606
 1098TIP3    H224786   3.039   3.671  11.555  0.3452 -1.3775 -0.7142
 1099TIP3   OH224787   2.771   3.954   2.747 -0.3808 -0.0531 -0.1620
 1099TIP3    H124788   2.849   3.902   2.726 -0.3335  0.3592 -1.0341
 1099TIP3    H224789   2.699   3.890   2.748  0.0352 -0.5389  1.2474
 1100TIP3   OH224790   0.007   1.389   2.012 -0.0072 -0.5061 -0.3826
 1100TIP3    H124791  -0.046   1.330   2.066  0.2667 -1.9848 -1.6676
 1100TIP3    H224792   0.097   1.361   2.026  0.5020  1.8000  1.5440
 1101TIP3   OH224793   6.713   0.089  16.170  0.0088 -0.1765 -0.1829
 1101TIP3    H124794   6.793   0.061  16.215  0.0888  0.1807 -0.0983
 1101TIP3    H224795   6.647   0.090  16.239  0.2530  0.9000  0.0574
 1102TIP3   OH224796   0.166   1.804   5.341 -0.5154  0.1828  0.1665
 1102TIP3    H124797   0.129   1.889   5.316  1.2608  0.8507 -0.3741
 1102TIP3    H224798   0.261   1.818   5.338 -0.1942 -1.6627  0.6799
 1103TIP3   OH224799   5.038   2.647   4.070 -0.8711  0.0832  0.0303
 1103TIP3    H124800   5.011   2.707   4.139 -1.0934 -1.3496  1.2424
 1103TIP3    H224801   5.126   2.619   4.095 -2.0072 -2.6386  1.3767
 1104TIP3   OH224802   2.940   1.952   1.427 -0.1209  0.1937  0.4763
 1104TIP3    H124803   2.851   1.983   1.439 -0.4014  0.9880 -2.7816
 1104TIP3    H224804   2.991   2.031   1.412  0.7265 -0.4005  0.1358
 1105TIP3   OH224805   2.823   5.432  12.055  0.4020 -0.1442  0.0544
 1105TIP3    H124806   2.908   5.475  12.059  0.2337  0.4075 -1.5755
 1105TIP3    H224807   2.839   5.351  12.007  0.1175 -0.3112  0.2394
 1106TIP3   OH224808   3.493   2.795   1.382 -0.1097 -0.3548  0.2094
 1106TIP3    H124809   3.454   2.781   1.296  0.0459  0.3303  0.0209
 1106TIP3    H224810   3.546   2.717   1.398 -1.9650 -1.5614  0.7147
 1107TIP3   OH224811   1.891   5.603  10.926  0.3005  0.1678 -0.4478
 1107TIP3    H124812   1.925   5.533  10.870 -0.7697 -0.5490 -0.2320
 1107TIP3    H224813   1.820   5.643  10.874  0.7727  0.9729 -0.4884
 1108TIP3   OH224814   5.291   5.893  14.711  0.7798 -0.0712  0.3937
 1108TIP3    H124815   5.259   5.894  14.621 -0.8832 -0.5624  0.9311
 1108TIP3    H224816   5.213   5.911  14.764  1.2025 -2.1578  1.8473
 1109TIP3   OH224817   4.789   1.897  12.516  0.3311  0.3131 -0.3195
 1109TIP3    H124818   4.741   1.979  12.523  0.7679  0.6228 -0.9481
 1109TIP3    H224819   4.840   1.892  12.597 -1.2194 -0.3395  0.6764
 1110TIP3   OH224820   0.995   5.112  14.445 -0.1386  0.0204 -0.1351
 1110TIP3    H124821   0.962   5.202  14.441  1.0851  0.7220  2.6679
 1110TIP3    H224822   1.081   5.116  14.404 -0.4541 -0.0996 -0.8199
 1111TIP3   OH224823   3.368   1.752   5.636 -0.4215 -0.2970 -0.3476
 1111TIP3    H124824   3.291   1.808   5.648 -0.2901 -0.2822  0.4840
 1111TIP3    H224825   3.370   1.697   5.715  0.8526  0.2164  0.0012
 1112TIP3   OH224826   5.855   1.180  16.091 -0.0754  0.0647  0.1686
 1112TIP3    H124827   5.768   1.141  16.099 -0.2513 -0.0029 -1.6719
 1112TIP3    H224828   5.841   1.274  16.100 -0.2515  0.0078  0.4841
 1113TIP3   OH224829   3.489   1.286   3.699  0.0639  0.4963 -0.6078
 1113TIP3    H124830   3.427   1.282   3.772 -0.4221  0.5116 -1.0156
 1113TIP3    H224831   3.564   1.236   3.730 -0.3597  0.0223 -0.3098
 1114TIP3   OH224832   5.854   6.027   5.331  0.0726 -0.7289  0.5143
 1114TIP3    H124833   5.835   5.964   5.401 -0.0035 -0.4627  0.7364
 1114TIP3    H224834   5.910   5.979   5.270  1.0949 -0.6212  1.3382
 1115TIP3   OH224835   4.733   5.928  11.647  0.3026  0.7194 -0.4813
 1115TIP3    H124836   4.783   6.007  11.627  0.8861  0.0478 -1.7842
 1115TIP3    H224837   4.683   5.951  11.726  2.3093  1.5658  0.6105
 1116TIP3   OH224838   4.773   3.780   6.145  0.1366  0.0443  0.2108
 1116TIP3    H124839   4.798   3.741   6.228  2.2741  0.5948 -0.1141
 1116TIP3    H224840   4.822   3.862   6.141 -0.4361  0.3539 -1.2852
 1117TIP3   OH224841   5.708   1.181  15.740  0.8152  0.0640 -0.1380
 1117TIP3    H124842   5.729   1.102  15.790 -0.3491  1.8539  3.5490
 1117TIP3    H224843   5.612   1.182  15.737  0.8294  1.0727 -0.6416
 1118TIP3   OH224844   0.911   1.246  14.478  0.5302 -0.0811 -0.0513
 1118TIP3    H124845   0.843   1.227  14.414 -0.9300  0.1579  1.3447
 1118TIP3    H224846   0.993   1.235  14.431 -0.4778  0.3063 -2.0012
 1119TIP3   OH224847   5.141   6.004  12.865 -0.1609 -0.9150 -0.3438
 1119TIP3    H124848   5.049   5.987  12.884 -0.6698  0.4089 -1.4818
 1119TIP3    H224849   5.173   5.922  12.828 -1.0416 -1.1968 -0.5017
 1120TIP3   OH224850   2.032   6.795   4.556 -0.3638 -0.0420 -0.3543
 1120TIP3    H124851   1.959   6.853   4.536  0.2866  0.0985 -2.5802
 1120TIP3    H224852   2.096   6.811   4.486  0.4775 -2.3453 -0.2197
 1121TIP3   OH224853   1.366   6.006  11.481 -0.1743 -0.7236  0.8695
 1121TIP3    H124854   1.420   6.052  11.544  1.9112  1.0123 -1.9290
 1121TIP3    H224855   1.331   6.075  11.425 -0.8300 -2.2271 -0.6614
 1122TIP3   OH224856   6.205   5.181   3.352 -0.2423  0.5660  0.2663
 1122TIP3    H124857   6.120   5.205   3.317 -1.0630  0.7075  2.2494
 1122TIP3    H224858   6.213   5.231   3.433  1.7291  0.5476  0.1298
 1123TIP3   OH224859   3.291   0.498   3.168  0.1292 -0.6528 -0.0787
 1123TIP3    H124860   3.262   0.460   3.086 -0.2780 -0.7732  0.1194
 1123TIP3    H224861   3.238   0.577   3.178  0.0036 -0.7680  0.1869
 1124TIP3   OH224862   1.707   5.819  12.982 -0.3034 -0.4726 -0.0757
 1124TIP3    H124863   1.641   5.853  13.042 -0.8127 -1.4013 -0.0928
 1124TIP3    H224864   1.658   5.795  12.903  0.1470 -0.5981 -0.3230
 1125TIP3   OH224865   1.597   3.035  13.743 -0.0634  0.1817  0.7736
 1125TIP3    H124866   1.587   3.083  13.825 -2.2865 -0.0331  0.6862
 1125TIP3    H224867   1.577   2.944  13.766  0.3681 -0.0610  0.1977
 1126TIP3   OH224868   6.580   6.306  14.153 -0.0936  0.0660 -0.5348
 1126TIP3    H124869   6.630   6.371  14.202 -3.3098  1.2779  1.4266
 1126TIP3    H224870   6.555   6.241  14.219 -3.3463  0.9959 -0.6906
 1127TIP3   OH224871   0.656   3.408  14.637 -0.3019 -0.4413  0.0640
 1127TIP3    H124872   0.747   3.426  14.616 -0.6413 -1.0812 -2.1303
 1127TIP3    H224873   0.605   3.457  14.572 -1.4671 -1.4707  0.1501
 1128TIP3   OH224874   3.261   2.204  11.700 -0.0643 -0.5086  0.4700
 1128TIP3    H124875   3.321   2.170  11.635  0.8823  0.1536  0.9677
 1128TIP3    H224876   3.221   2.280  11.659  0.0767 -0.4508  0.4396
 1129TIP3   OH224877   5.416   0.244  16.356 -0.5237 -0.7352 -0.1310
 1129TIP3    H124878   5.369   0.308  16.303  0.5028  0.6989  0.6204
 1129TIP3    H224879   5.352   0.176  16.375 -1.2982 -0.5751 -2.0115
 1130TIP3   OH224880   6.023   5.541   0.963 -0.1011  0.0544  0.6969
 1130TIP3    H124881   5.942   5.535   0.912 -0.0559 -0.1341  0.6448
 1130TIP3    H224882   6.052   5.631   0.950 -0.4144  0.1842  0.8878
 1131TIP3   OH224883   2.072   0.550  13.824  0.2021 -0.3224 -0.3383
 1131TIP3    H124884   2.093   0.478  13.883  0.4902  0.5645  0.6757
 1131TIP3    H224885   2.080   0.513  13.736  1.7916 -1.1355  0.1165
 1132TIP3   OH224886   2.805   5.958   3.767 -0.1263  0.0412  0.0805
 1132TIP3    H124887   2.742   5.890   3.748 -0.5048  0.3329  0.2673
 1132TIP3    H224888   2.814   5.956   3.863 -0.1920  0.2940  0.0940
 1133TIP3   OH224889   2.910   0.015  14.047  0.8256 -0.6745  0.3034
 1133TIP3    H124890   2.936  -0.019  14.132  0.6981 -1.4402  0.0404
 1133TIP3    H224891   2.984   0.070  14.019  1.1204 -0.8995  0.6358
 1134TIP3   OH224892   0.265   0.120   5.325  0.0467 -0.4762  0.0620
 1134TIP3    H124893   0.321   0.058   5.279 -0.6325  0.1440 -1.6796
 1134TIP3    H224894   0.271   0.201   5.273 -2.6437 -0.4728 -0.3449
 1135TIP3   OH224895   3.942   0.594  16.641 -0.1442 -0.4118  0.2846
 1135TIP3    H124896   3.964   0.571  16.551 -0.5816 -1.2101  0.3703
 1135TIP3    H224897   3.859   0.550  16.658  0.6527 -1.5274  1.5409
 1136TIP3   OH224898   5.421   5.060  16.122  0.0235 -0.1963 -0.5523
 1136TIP3    H124899   5.431   5.140  16.069 -0.8903  0.6969  0.5658
 1136TIP3    H224900   5.406   4.991  16.058  0.3689  0.6057 -1.5319
 1137TIP3   OH224901   6.609   4.045  14.579 -0.1916 -0.0574  0.0876
 1137TIP3    H124902   6.554   4.101  14.632 -0.9319 -1.3419  0.7260
 1137TIP3    H224903   6.552   3.971  14.555  0.6658 -0.4130 -0.9366
 1138TIP3   OH224904   4.481   5.396  17.171  0.0619 -0.0485 -0.4347
 1138TIP3    H124905   4.482   5.337  17.096 -1.3642 -0.9444  0.2137
 1138TIP3    H224906   4.396   5.382  17.212  0.4013  1.1657  0.7770
 1139TIP3   OH224907   1.477   0.621   3.974  0.2210  0.1284  0.4727
 1139TIP3    H124908   1.474   0.607   4.069 -2.9588 -1.6199  0.2427
 1139TIP3    H224909   1.468   0.716   3.965  4.0587  0.8064  1.8366
 1140TIP3   OH224910   2.759   4.075  10.212 -0.2593  0.2972  0.0867
 1140TIP3    H124911   2.825   4.006  10.211  0.8196  1.2655  1.3992
 1140TIP3    H224912   2.755   4.103  10.303  0.2766  2.8458 -0.5893
 1141TIP3   OH224913   2.181   0.046   0.348 -0.0111  0.2986 -0.4034
 1141TIP3    H124914   2.243   0.118   0.338  0.1065 -0.0410 -2.9590
 1141TIP3    H224915   2.237  -0.030   0.369  0.0586  0.5739  0.4547
 1142TIP3   OH224916   4.426   4.259  15.762  0.2757  0.3150  0.7454
 1142TIP3    H124917   4.396   4.220  15.680  3.0766  0.0394 -0.2554
 1142TIP3    H224918   4.348   4.259  15.818 -0.7274 -3.6052 -0.3351
 1143TIP3   OH224919   0.595   2.075  13.647 -0.1208 -0.0546  0.3947
 1143TIP3    H124920   0.689   2.060  13.646 -0.1793 -0.4981  1.0114
 1143TIP3    H224921   0.562   2.018  13.717 -0.7202  0.8353  0.8590
 1144TIP3   OH224922   1.020   3.249  16.832 -0.0357 -0.5209  0.8958
 1144TIP3    H124923   1.098   3.305  16.824  0.4759 -1.3339 -0.0288
 1144TIP3    H224924   0.977   3.280  16.911  1.4785 -0.3517  1.6942
 1145TIP3   OH224925   4.543   4.906  11.662 -0.6936 -0.9093 -0.5030
 1145TIP3    H124926   4.610   4.920  11.595  0.7001  0.1755  1.0536
 1145TIP3    H224927   4.582   4.842  11.722 -0.2588  1.0128  1.3588
 1146TIP3   OH224928   1.798   4.969   1.238 -0.7731 -0.5293 -0.2862
 1146TIP3    H124929   1.743   4.928   1.304 -0.1551 -2.4053 -0.8658
 1146TIP3    H224930   1.863   4.902   1.216 -0.9001  0.0395 -2.7033
 1147TIP3   OH224931   1.622   3.064   3.506  0.3775  0.1926  0.4074
 1147TIP3    H124932   1.684   3.119   3.458  1.5078 -0.4348  1.1053
 1147TIP3    H224933   1.662   3.054   3.593 -0.2005 -1.0595  0.5461
 1148TIP3   OH224934   0.772   2.714   0.989 -0.2342  0.3687  0.0019
 1148TIP3    H124935   0.860   2.676   0.986  0.2027  1.4066 -1.5162
 1148TIP3    H224936   0.749   2.713   1.082  0.4115 -2.0110  0.2265
 1149TIP3   OH224937   2.473   6.069  14.450  0.3255 -0.4497  0.2698
 1149TIP3    H124938   2.556   6.043  14.411  0.2652  1.0031 -0.9520
 1149TIP3    H224939   2.412   6.000  14.423  0.9579 -1.1103  0.4953
 1150TIP3   OH224940   5.013   3.034   4.034  0.0139 -0.6070 -0.7131
 1150TIP3    H124941   5.073   2.986   4.091 -1.7496 -0.9561  0.9831
 1150TIP3    H224942   5.040   3.125   4.042 -0.5388 -0.5546  1.2530
 1151TIP3   OH224943   0.697   3.808  12.107 -0.1513 -0.2024  0.2409
 1151TIP3    H124944   0.704   3.902  12.125 -0.7313  0.3023 -1.8865
 1151TIP3    H224945   0.619   3.780  12.156  0.1574  0.3394  1.0778
 1152TIP3   OH224946   2.672   2.566  14.820 -0.3597  0.0979  0.3213
 1152TIP3    H124947   2.657   2.559  14.726  0.6400  0.7768  0.0925
 1152TIP3    H224948   2.766   2.550  14.830 -0.5316 -0.3709  1.2544
 1153TIP3   OH224949   5.314   1.015  17.124 -0.0541  0.0893 -0.1094
 1153TIP3    H124950   5.251   1.005  17.052 -0.6678 -2.5536  0.7023
 1153TIP3    H224951   5.384   0.953  17.104 -0.0477 -0.4094  1.3704
 1154TIP3   OH224952   6.045   1.048   6.371  0.0902 -0.0123  0.4209
 1154TIP3    H124953   6.061   0.959   6.404  0.6974  0.4223  1.3278
 1154TIP3    H224954   6.063   1.105   6.446  1.8460  1.0490 -0.7498
 1155TIP3   OH224955   0.414   5.735   1.727 -0.1116  0.2885 -0.8151
 1155TIP3    H124956   0.354   5.771   1.792 -1.4542 -0.3397 -1.6447
 1155TIP3    H224957   0.419   5.802   1.659 -0.7813 -0.0931 -1.2626
 1156TIP3   OH224958   2.895   6.676  11.633  0.3489  0.5771 -0.0505
 1156TIP3    H124959   2.803   6.694  11.617  0.5980  2.3727  0.4104
 1156TIP3    H224960   2.912   6.596  11.583 -1.9694 -1.0836  1.6145
 1157TIP3   OH224961   1.878   2.878   4.150  0.0749  0.1006  0.1847
 1157TIP3    H124962   1.841   2.794   4.124 -1.9180  0.7792  0.6841
 1157TIP3    H224963   1.942   2.856   4.218 -0.6640 -0.9899  0.5514
 1158TIP3   OH224964   5.236   5.197   2.723  0.0820 -0.8316  0.0971
 1158TIP3    H124965   5.318   5.234   2.690 -0.4783  0.7467  0.3567
 1158TIP3    H224966   5.258   5.108   2.748  1.9685 -0.1490  1.0663
 1159TIP3   OH224967   4.774   4.566   6.201 -0.1464  0.7899 -0.2875
 1159TIP3    H124968   4.852   4.510   6.208 -0.0158  0.8899 -0.8722
 1159TIP3    H224969   4.794   4.642   6.256  0.1768  0.8165 -0.4390
 1160TIP3   OH224970   5.641   3.347  12.468  0.1317  1.0958 -0.0479
 1160TIP3    H124971   5.552   3.350  12.435  0.0157 -1.7722 -0.2789
 1160TIP3    H224972   5.632   3.363  12.562 -0.5496  1.4432 -0.1666
 1161TIP3   OH224973   1.510   3.945  14.282 -0.1203  0.0287 -0.1992
 1161TIP3    H124974   1.457   3.867  14.295 -0.4557  0.1678 -0.6885
 1161TIP3    H224975   1.596   3.923  14.318 -0.4681 -0.2415  0.4839
 1162TIP3   OH224976   0.043   3.759   3.779 -0.5478 -0.6062 -0.3737
 1162TIP3    H124977   0.055   3.750   3.685 -0.8986  0.7556 -0.5720
 1162TIP3    H224978   0.130   3.745   3.816  0.9737  4.2692 -1.3811
 1163TIP3   OH224979   4.339   0.397   0.063  0.4774 -0.0800 -0.0010
 1163TIP3    H124980   4.338   0.318   0.008 -0.1328  0.7412 -1.2032
 1163TIP3    H224981   4.248   0.411   0.086  0.2341  1.5170 -1.6814
 1164TIP3   OH224982   2.717   0.711   1.191  0.0286  0.1274 -0.4461
 1164TIP3    H124983   2.622   0.710   1.192 -0.0097 -1.7740 -1.5938
 1164TIP3    H224984   2.741   0.781   1.253 -2.0647 -0.1350  0.7509
 1165TIP3   OH224985   5.946   2.619  10.781  0.0847 -0.3067  0.4916
 1165TIP3    H124986   6.041   2.628  10.775  0.0851  1.4799  2.0588
 1165TIP3    H224987   5.913   2.654  10.698  0.7802  0.1549  0.3983
 1166TIP3   OH224988   0.064   1.560   0.984  0.4198 -0.0679  0.2079
 1166TIP3    H124989   0.037   1.477   0.944 -0.5956  0.8201 -1.0073
 1166TIP3    H224990   0.060   1.543   1.078 -0.1119 -1.3033 -0.0199
 1167TIP3   OH224991   5.160   3.261  11.300  0.1311  0.8363 -0.2416
 1167TIP3    H124992   5.168   3.316  11.378  2.2481  1.3506 -0.7679
 1167TIP3    H224993   5.150   3.324  11.228  1.6169  0.5370 -0.7381
 1168TIP3   OH224994   0.082   5.056  10.432  0.8550  0.4980  0.0633
 1168TIP3    H124995   0.123   5.104  10.360  0.8193  0.6095  0.1171
 1168TIP3    H224996  -0.002   5.027  10.396 -0.2067  2.5432  0.7860
 1169TIP3   OH224997   2.170   5.928   2.369  0.3043  0.2655 -0.3567
 1169TIP3    H124998   2.184   6.018   2.397 -0.7687  0.0134  1.1356
 1169TIP3    H224999   2.164   5.878   2.451  1.4931 -1.2772 -1.1591
 1170TIP3   OH225000   0.818   6.484  12.438 -0.0408  0.0033  1.2645
 1170TIP3    H125001   0.815   6.491  12.342  2.1724 -1.2178  1.0320
 1170TIP3    H225002   0.873   6.557  12.465 -0.9605  0.5625  1.6820
 1171TIP3   OH225003   1.033   5.374   5.682  0.2970  0.4111 -0.5186
 1171TIP3    H125004   1.128   5.382   5.690  0.3667 -0.4105 -0.5147
 1171TIP3    H225005   1.010   5.302   5.740 -0.2201  0.0019 -1.2278
 1172TIP3   OH225006   3.967   6.051   5.580  0.0622 -0.2799  0.0968
 1172TIP3    H125007   3.905   6.029   5.510 -0.2697  1.0982 -0.0725
 1172TIP3    H225008   4.043   5.995   5.564 -0.4016 -0.6669 -0.7898
 1173TIP3   OH225009   1.304   3.927   1.808  0.0304 -0.2487  0.0442
 1173TIP3    H125010   1.344   4.008   1.776  1.6098 -0.7101  0.7939
 1173TIP3    H225011   1.377   3.875   1.841 -0.9140 -2.0971 -0.6215
 1174TIP3   OH225012   4.104   6.459  17.010  0.0050  0.3364 -0.5710
 1174TIP3    H125013   4.149   6.490  16.932 -0.1463  2.6031  0.1711
 1174TIP3    H225014   4.171   6.414  17.061  0.8804  1.5677 -0.6037
 1175TIP3   OH225015   4.138   1.691   0.649  0.3110 -0.5298  0.0196
 1175TIP3    H125016   4.161   1.724   0.563 -0.4399  0.8122  0.2921
 1175TIP3    H225017   4.219   1.694   0.699  0.1366  1.7734  0.2624
 1176TIP3   OH225018   3.265   3.656  14.301  0.0917  0.5128  0.3827
 1176TIP3    H125019   3.205   3.597  14.256  1.5142  0.1148 -1.0929
 1176TIP3    H225020   3.266   3.624  14.392  0.5309 -1.5100 -0.2899
 1177TIP3   OH225021   1.915   2.281  11.289  0.3160  0.3514  0.2716
 1177TIP3    H125022   1.850   2.269  11.219  0.7273  0.4040 -0.1244
 1177TIP3    H225023   1.977   2.345  11.253 -0.5282  1.8856  1.4375
 1178TIP3   OH225024   2.964   1.120  14.168  0.1013  0.7473  0.0365
 1178TIP3    H125025   2.934   1.210  14.182  0.3832  0.7858  0.4097
 1178TIP3    H225026   2.933   1.098  14.080  2.4136  2.2148 -1.2408
 1179TIP3   OH225027   4.499   4.329   1.799 -0.1357  0.3904 -0.3883
 1179TIP3    H125028   4.593   4.312   1.807 -0.2354 -0.6241 -1.0627
 1179TIP3    H225029   4.462   4.245   1.772 -1.2724  0.7228  0.0763
 1180TIP3   OH225030   2.793   5.844  13.983 -0.0271  0.4382  0.0465
 1180TIP3    H125031   2.800   5.748  13.978 -1.4221  0.1944  1.7488
 1180TIP3    H225032   2.884   5.874  13.979  0.4388 -0.9619 -0.4877
 1181TIP3   OH225033   0.350   4.762  14.465  0.3389 -0.0925  0.9170
 1181TIP3    H125034   0.396   4.753  14.548 -0.3590  1.9326  1.5638
 1181TIP3    H225035   0.258   4.772  14.488  0.0988  0.2328 -0.1024
 1182TIP3   OH225036   0.059   5.409  11.550 -0.1933  0.1369 -0.0018
 1182TIP3    H125037   0.027   5.458  11.626 -0.3361  0.2351 -0.1239
 1182TIP3    H225038   0.050   5.317  11.575  0.8850  0.1728  0.5672
 1183TIP3   OH225039   2.518   6.844   2.539 -0.4965  0.3274  0.0196
 1183TIP3    H125040   2.427   6.827   2.563 -0.3710  0.6787  0.7728
 1183TIP3    H225041   2.558   6.878   2.619  0.7297 -1.3938  0.1873
 1184TIP3   OH225042   5.455   2.713   6.344 -0.3684  0.3261  0.0441
 1184TIP3    H125043   5.427   2.777   6.409  0.4706 -0.3908  1.1388
 1184TIP3    H225044   5.377   2.660   6.328 -0.9387  1.3082 -0.5281
 1185TIP3   OH225045   2.471   3.435   3.757  0.6266 -0.4582 -0.5589
 1185TIP3    H125046   2.468   3.510   3.698 -0.1742  0.0212  0.0632
 1185TIP3    H225047   2.384   3.396   3.750 -0.1980  0.7492  1.6888
 1186TIP3   OH225048   1.713   4.290  11.098 -0.7717  0.0803  0.5543
 1186TIP3    H125049   1.645   4.355  11.117 -1.1666 -0.5654  1.4742
 1186TIP3    H225050   1.696   4.262  11.008 -0.3857  1.4757  0.0349
 1187TIP3   OH225051   1.172   0.314   0.295 -0.3699 -0.5687 -0.5151
 1187TIP3    H125052   1.189   0.252   0.366 -1.0139 -0.4327 -0.2368
 1187TIP3    H225053   1.193   0.400   0.331  0.0775 -0.5767 -0.7521
 1188TIP3   OH225054   1.073   0.353   0.733  0.0288 -0.2656 -0.0227
 1188TIP3    H125055   1.168   0.350   0.720 -0.0014 -0.1988 -0.2626
 1188TIP3    H225056   1.056   0.440   0.771 -0.1861  0.6496 -2.0855
 1189TIP3   OH225057   2.211   0.919   3.644 -0.3748  0.8407 -1.0392
 1189TIP3    H125058   2.131   0.951   3.686  0.6445  2.4100 -0.2188
 1189TIP3    H225059   2.240   0.846   3.699 -1.9345 -0.6908 -2.1193
 1190TIP3   OH225060   0.904   0.078   4.677 -0.0578 -0.4288  0.1233
 1190TIP3    H125061   0.848   0.119   4.611  1.3297  0.9981 -0.2385
 1190TIP3    H225062   0.954   0.151   4.715 -0.2368 -1.3088  2.2180
 1191TIP3   OH225063   0.393   6.137   3.778  0.4367  0.2991  0.1784
 1191TIP3    H125064   0.368   6.051   3.743  2.6187 -1.1398  1.8646
 1191TIP3    H225065   0.319   6.162   3.834 -1.5827  1.0713 -2.6138
 1192TIP3   OH225066   6.544   1.275  14.558  0.3660 -0.6586  0.2461
 1192TIP3    H125067   6.517   1.234  14.640  0.3367 -0.7975  0.1662
 1192TIP3    H225068   6.607   1.214  14.520  0.2589 -0.6690  0.0869
 1193TIP3   OH225069   2.107   0.015  16.500  0.2101  0.3452  0.8028
 1193TIP3    H125070   2.151   0.082  16.447  1.0036 -0.7977 -0.0204
 1193TIP3    H225071   2.100   0.055  16.587  0.0441  1.7579  0.1710
 1194TIP3   OH225072   6.421   2.282   1.732 -0.4531 -0.6508 -0.0267
 1194TIP3    H125073   6.362   2.288   1.657 -1.2795 -1.6107  0.5122
 1194TIP3    H225074   6.449   2.372   1.749 -0.6003 -0.3728 -1.2049
 1195TIP3   OH225075   3.079   3.971  14.067 -0.4248  0.2531  0.3574
 1195TIP3    H125076   3.075   3.878  14.090 -2.0862  0.3702  0.6001
 1195TIP3    H225077   3.083   3.971  13.971 -0.7145 -0.0560  0.3430
 1196TIP3   OH225078   1.318   1.910   2.579  0.3019 -0.5600  0.2002
 1196TIP3    H125079   1.301   1.851   2.652  0.6646 -1.5882 -0.5259
 1196TIP3    H225080   1.271   1.990   2.602  0.1724 -0.9606  1.4196
 1197TIP3   OH225081   2.120   5.230   1.465 -0.3576 -0.1084  0.2733
 1197TIP3    H125082   2.059   5.187   1.525 -0.9676  0.2437 -0.0809
 1197TIP3    H225083   2.203   5.234   1.514 -0.9636  0.6251  1.3009
 1198TIP3   OH225084   3.063   1.748  11.128 -0.3912  0.5947 -0.0518
 1198TIP3    H125085   3.029   1.660  11.113 -0.9021  0.7087  0.4025
 1198TIP3    H225086   3.101   1.774  11.044  2.0387 -1.0239  0.4327
 1199TIP3   OH225087   1.821   5.135  10.952  0.0568  0.2116 -0.8428
 1199TIP3    H125088   1.758   5.079  10.907  0.9782 -1.5368 -0.0782
 1199TIP3    H225089   1.879   5.166  10.883 -0.1865 -0.1788 -1.2290
 1200TIP3   OH225090   3.138   6.267   1.127  0.6913  0.2599  0.0985
 1200TIP3    H125091   3.142   6.243   1.220  0.1559 -1.3360 -0.2535
 1200TIP3    H225092   3.146   6.362   1.127 -2.5052  0.6881  2.0502
 1201TIP3   OH225093   2.069   2.906   0.698 -0.2964  0.7813  0.2666
 1201TIP3    H125094   2.080   2.997   0.674 -0.0944  0.8766  0.7002
 1201TIP3    H225095   1.975   2.889   0.688 -0.2214  0.8247 -0.5253
 1202TIP3   OH225096   1.354   2.827  15.115 -0.1544 -0.3532  0.7120
 1202TIP3    H125097   1.281   2.776  15.152  1.0129 -2.1286  0.6671
 1202TIP3    H225098   1.351   2.910  15.162 -2.7478  0.0302  0.0878
 1203TIP3   OH225099   3.920   4.516   5.183 -0.3084  1.1025 -0.0683
 1203TIP3    H125100   4.003   4.493   5.142 -0.0614  0.5550  0.7151
 1203TIP3    H225101   3.869   4.556   5.113  0.3579  0.8153 -0.7325
 1204TIP3   OH225102   1.034   4.687   4.760 -0.7747  0.5606 -0.0628
 1204TIP3    H125103   0.976   4.610   4.761  0.7033 -0.6606  2.5007
 1204TIP3    H225104   1.012   4.732   4.679 -0.5403 -3.4716 -2.6741
 1205TIP3   OH225105   1.202   1.832  16.889 -0.1475 -0.3413 -0.3812
 1205TIP3    H125106   1.297   1.838  16.901 -0.0930 -1.5425 -0.0873
 1205TIP3    H225107   1.171   1.922  16.902  0.8395 -0.1044  0.5280
 1206TIP3   OH225108   1.478   0.528  11.289  0.6146 -0.1000  0.4626
 1206TIP3    H125109   1.529   0.448  11.279 -0.3583 -1.0743  2.6154
 1206TIP3    H225110   1.533   0.587  11.341  1.1880  0.5281 -0.8195
 1207TIP3   OH225111   6.020   5.360   4.424 -0.1111  0.3467 -0.1547
 1207TIP3    H125112   6.018   5.331   4.515 -0.8876  0.5346 -0.0966
 1207TIP3    H225113   6.109   5.390   4.410  0.1912 -0.2940  0.3482
 1208TIP3   OH225114   3.346   1.375  11.703 -0.4586 -0.2481  0.1372
 1208TIP3    H125115   3.318   1.297  11.750 -0.4630 -0.0487  0.4667
 1208TIP3    H225116   3.344   1.445  11.768 -0.8024  0.1016 -0.2424
 1209TIP3   OH225117   5.556   0.178  14.822  0.2979 -0.4156  0.0951
 1209TIP3    H125118   5.640   0.205  14.786 -0.7309  0.7220 -1.6020
 1209TIP3    H225119   5.541   0.091  14.786 -0.5463  0.5608 -2.1085
 1210TIP3   OH225120   2.919   6.676  15.560 -0.3945 -0.3924  0.5743
 1210TIP3    H125121   2.863   6.753  15.561 -0.1461 -0.2080  0.4353
 1210TIP3    H225122   2.997   6.703  15.608 -0.3587 -0.5980  0.6320
 1211TIP3   OH225123   0.173   3.531   2.164  0.0505  0.1032 -0.4718
 1211TIP3    H125124   0.261   3.565   2.184 -0.0297 -0.3611  0.8091
 1211TIP3    H225125   0.157   3.466   2.233 -1.4835  0.5014 -0.4258
 1212TIP3   OH225126   3.912   5.589  14.464 -0.2165 -0.4298 -0.1812
 1212TIP3    H125127   3.935   5.627  14.379  0.2986 -1.0311 -0.3187
 1212TIP3    H225128   3.940   5.498  14.458  1.1923 -0.1362  1.1490
 1213TIP3   OH225129   5.023   3.645  13.108 -0.1762 -0.8794 -0.2763
 1213TIP3    H125130   4.956   3.684  13.165  0.6420  0.1961 -0.0170
 1213TIP3    H225131   4.991   3.556  13.092 -1.7594 -0.3419 -0.3175
 1214TIP3   OH225132   5.352   6.476   5.773  0.0827 -0.2828  0.4293
 1214TIP3    H125133   5.315   6.409   5.831 -0.2814 -2.3904 -2.0192
 1214TIP3    H225134   5.413   6.427   5.717  1.0090  1.7630 -0.4365
 1215TIP3   OH225135   1.613   2.805  12.360  0.4799 -0.0160 -1.0016
 1215TIP3    H125136   1.614   2.811  12.455  1.3495  0.8206 -1.0418
 1215TIP3    H225137   1.591   2.714  12.341 -0.3989 -0.0145 -0.0175
 1216TIP3   OH225138   1.570   6.244  13.949 -0.1662 -0.3130  0.0567
 1216TIP3    H125139   1.614   6.215  14.029  0.6984 -0.5149 -0.4804
 1216TIP3    H225140   1.641   6.267  13.890 -0.7906 -0.4135 -0.7496
 1217TIP3   OH225141   4.534   6.696   1.904  0.3437  0.3495  0.3012
 1217TIP3    H125142   4.483   6.628   1.860  0.3658  0.6104 -0.1325
 1217TIP3    H225143   4.552   6.760   1.836 -0.8119  1.4615  0.9942
 1218TIP3   OH225144   3.082   3.977   4.071 -0.1756 -0.2293 -0.1493
 1218TIP3    H125145   3.139   3.913   4.114  1.8692  1.1201 -0.6824
 1218TIP3    H225146   3.125   3.994   3.987  0.4718  3.1505  0.7099
 1219TIP3   OH225147   6.134   4.130   3.687 -0.0256 -0.6729 -0.1582
 1219TIP3    H125148   6.129   4.180   3.768  4.0926  1.7054 -1.0452
 1219TIP3    H225149   6.158   4.042   3.714  3.0358  0.4691  1.3664
 1220TIP3   OH225150   1.412   3.367  15.764  0.0078 -0.4440  0.5081
 1220TIP3    H125151   1.415   3.412  15.679 -0.0332  0.1999  0.8407
 1220TIP3    H225152   1.371   3.430  15.823  3.6253  0.7839  1.9663
 1221TIP3   OH225153   6.814   3.064   5.960 -0.4093  0.1954 -0.3506
 1221TIP3    H125154   6.858   3.012   6.027  0.3284  0.0339 -0.9352
 1221TIP3    H225155   6.723   3.068   5.988 -0.3537 -0.8721  0.0378
 1222TIP3   OH225156   0.892   0.226  15.901 -0.3461 -0.1345  0.4382
 1222TIP3    H125157   0.894   0.321  15.889 -1.3007  0.1433  2.1189
 1222TIP3    H225158   0.942   0.212  15.982  0.6317 -1.1857 -0.3214
 1223TIP3   OH225159   1.453   0.792   5.468 -0.0086  0.0335 -0.4798
 1223TIP3    H125160   1.511   0.716   5.469 -0.5740 -0.4389 -1.8663
 1223TIP3    H225161   1.495   0.853   5.408 -0.9192 -0.3112 -1.4956
 1224TIP3   OH225162   5.541   2.608  13.008  0.2986  0.0708 -0.1032
 1224TIP3    H125163   5.454   2.637  13.036  0.0051 -0.6354 -0.2605
 1224TIP3    H225164   5.552   2.522  13.049  1.1287  0.3739  0.3117
 1225TIP3   OH225165   2.496   3.248   5.942  0.6698 -0.1406 -0.2137
 1225TIP3    H125166   2.471   3.190   5.870 -0.9788 -0.0109  0.2318
 1225TIP3    H225167   2.571   3.297   5.908  0.7003 -0.9604 -1.3860
 1226TIP3   OH225168   4.575   2.127   5.271 -0.6868 -0.4915  0.3133
 1226TIP3    H125169   4.630   2.057   5.235  1.3856  1.8904 -1.4776
 1226TIP3    H225170   4.489   2.113   5.232 -0.3113 -1.9542 -0.0647
 1227TIP3   OH225171   2.612   5.643   5.368 -0.1924 -0.1193  0.3480
 1227TIP3    H125172   2.689   5.612   5.417 -0.5813  0.5620  1.4378
 1227TIP3    H225173   2.621   5.603   5.282  1.1258 -0.4543  0.6098
 1228TIP3   OH225174   2.115   2.532  17.181 -0.0229  0.0882 -0.0735
 1228TIP3    H125175   2.188   2.592  17.167  0.4246 -0.2011  0.9102
 1228TIP3    H225176   2.156   2.447  17.191 -0.6031 -0.2782 -0.7751
 1229TIP3   OH225177   5.426   3.413  17.109  0.2887 -0.3598  0.4896
 1229TIP3    H125178   5.330   3.423  17.111  0.2128 -1.0306  0.3992
 1229TIP3    H225179   5.455   3.476  17.043 -0.3125 -1.7624 -1.1916
 1230TIP3   OH225180   0.579   5.202   5.089  0.0089  0.0716 -0.4482
 1230TIP3    H125181   0.552   5.139   5.156 -1.2447  0.3392 -0.6823
 1230TIP3    H225182   0.588   5.149   5.010 -1.7973  0.2807 -0.8230
 1231TIP3   OH225183   4.968   2.160   2.796 -0.5410  0.4510 -0.4696
 1231TIP3    H125184   5.061   2.176   2.812 -0.3953 -0.2662 -0.5367
 1231TIP3    H225185   4.967   2.084   2.738 -1.1761  0.0256  0.0816
 1232TIP3   OH225186   1.528   0.234  13.458 -0.2624  0.1380 -0.2989
 1232TIP3    H125187   1.501   0.310  13.407  0.3511  0.8306  0.3950
 1232TIP3    H225188   1.501   0.254  13.547  2.0534  0.6491  0.3439
 1233TIP3   OH225189   3.113   2.873  16.029 -0.1926 -1.1352  0.2431
 1233TIP3    H125190   3.051   2.866  15.957  0.1743  1.1441 -0.3614
 1233TIP3    H225191   3.058   2.871  16.108 -1.2624  1.9068 -0.3033
 1234TIP3   OH225192   2.284   2.141   4.240 -0.3286 -0.6052  0.4403
 1234TIP3    H125193   2.276   2.104   4.328 -1.8764  0.1105  0.6301
 1234TIP3    H225194   2.290   2.065   4.183 -2.0532 -1.1790  0.9444
 1235TIP3   OH225195   3.791   3.107  15.516  0.2131  0.6039  0.1389
 1235TIP3    H125196   3.706   3.087  15.475  0.8006 -0.6888 -0.5181
 1235TIP3    H225197   3.838   3.158  15.450  1.0213 -1.1730 -0.7508
 1236TIP3   OH225198   2.751   5.549   3.148 -0.2568  0.1157 -0.4812
 1236TIP3    H125199   2.765   5.459   3.176 -0.1413  0.1505 -0.4297
 1236TIP3    H225200   2.710   5.540   3.061  0.6151  0.0194 -0.8896
 1237TIP3   OH225201   6.183   0.166   4.291  0.5280  0.2968 -0.4488
 1237TIP3    H125202   6.133   0.247   4.280  0.8583  0.4586 -0.7802
 1237TIP3    H225203   6.265   0.182   4.244  0.5878 -0.2362 -0.5332
 1238TIP3   OH225204   6.623   3.737   2.102 -0.0626  0.1603 -0.4539
 1238TIP3    H125205   6.707   3.744   2.148  0.5416  1.2038 -1.6499
 1238TIP3    H225206   6.644   3.688   2.023 -0.7243 -0.0946 -0.4742
 1239TIP3   OH225207   6.064   6.009  13.856 -0.5622 -0.5160 -0.3528
 1239TIP3    H125208   6.092   5.936  13.911 -0.1784 -0.1935 -0.1089
 1239TIP3    H225209   6.145   6.042  13.817 -0.4592  0.9279  0.9698
 1240TIP3   OH225210   0.790   1.517   2.782  0.3750 -0.0127  0.2174
 1240TIP3    H125211   0.807   1.569   2.861  0.9199  0.0903  0.0341
 1240TIP3    H225212   0.770   1.429   2.815 -1.9262  0.5875  0.6266
 1241TIP3   OH225213   3.242   6.435   5.017 -0.5056  0.1136 -0.1760
 1241TIP3    H125214   3.276   6.436   5.106  0.3168 -1.7117 -0.4052
 1241TIP3    H225215   3.216   6.343   5.003 -1.7902  0.6289 -1.3957
 1242TIP3   OH225216   5.733   4.388  14.815 -0.8213 -0.2392  0.5457
 1242TIP3    H125217   5.818   4.346  14.833 -1.7741 -1.4129  2.7178
 1242TIP3    H225218   5.733   4.403  14.721  2.9329  2.3515  0.7261
 1243TIP3   OH225219   3.291   3.052   3.024 -0.4411 -0.1651  0.0930
 1243TIP3    H125220   3.327   3.125   2.974 -2.6725  2.3809  1.9409
 1243TIP3    H225221   3.214   3.024   2.973 -0.3225 -0.3772  0.0291
 1244TIP3   OH225222   2.623   1.351  15.408  0.3252 -0.0048 -0.2820
 1244TIP3    H125223   2.712   1.371  15.439  1.2798 -2.0912 -1.4081
 1244TIP3    H225224   2.578   1.435  15.407  1.9542  0.9477  1.3458
 1245TIP3   OH225225   0.101   6.823  14.017 -0.1548  0.1105  0.2126
 1245TIP3    H125226   0.031   6.887  14.021 -0.2418 -0.0099  0.6937
 1245TIP3    H225227   0.156   6.843  14.093 -1.0624 -1.3771  1.3227
 1246TIP3   OH225228   1.031   6.748  15.495 -0.7143 -0.0476  0.5291
 1246TIP3    H125229   0.980   6.829  15.486 -1.7247 -0.6839  0.4826
 1246TIP3    H225230   1.122   6.778  15.499 -0.8191  0.9285 -2.4519
 1247TIP3   OH225231   2.361   4.219   5.546  0.3331 -0.2550 -0.1951
 1247TIP3    H125232   2.307   4.142   5.530 -0.3649  0.6493 -2.6414
 1247TIP3    H225233   2.315   4.291   5.503  2.0634  1.1103  0.0739
 1248TIP3   OH225234   1.597   3.930  11.325 -0.3024  0.5648  0.7545
 1248TIP3    H125235   1.646   4.011  11.341  0.4445  0.0533  1.0990
 1248TIP3    H225236   1.596   3.922  11.230  3.2747 -1.1436  0.6946
 1249TIP3   OH225237   3.362   0.675  10.930 -1.0670 -0.1647  0.1967
 1249TIP3    H125238   3.404   0.739  10.873  1.3321 -0.5630  1.3612
 1249TIP3    H225239   3.376   0.591  10.886  1.0078 -0.5036  1.3613
 1250TIP3   OH225240   2.523   1.272   3.292 -0.1670  0.0918 -0.0711
 1250TIP3    H125241   2.575   1.311   3.362 -1.2488  1.0202  0.2660
 1250TIP3    H225242   2.496   1.187   3.326 -1.1478  0.7660  0.9063
 1251TIP3   OH225243   2.469   2.393   2.557 -0.5707  0.1302  0.2783
 1251TIP3    H125244   2.471   2.437   2.472  1.8228 -0.3935 -0.0215
 1251TIP3    H225245   2.527   2.317   2.546 -0.5678 -0.2081  2.2446
 1252TIP3   OH225246   0.075   2.526  12.287 -0.3286  0.8209  0.2358
 1252TIP3    H125247   0.066   2.433  12.303 -0.1184  0.7400 -0.0902
 1252TIP3    H225248   0.050   2.537  12.195 -2.9673  1.4875  0.9589
 1253TIP3   OH225249   4.537   5.475  15.721 -0.2223  0.7055  0.3698
 1253TIP3    H125250   4.612   5.479  15.661 -0.7299  1.2015 -0.2510
 1253TIP3    H225251   4.470   5.426  15.673 -0.1016 -0.2360  1.1489
 1254TIP3   OH225252   1.332   4.123  11.668  0.3517 -0.6475 -0.5191
 1254TIP3    H125253   1.273   4.195  11.647 -0.1310 -1.3711 -1.7293
 1254TIP3    H225254   1.357   4.138  11.760  0.9864  1.5433 -0.9854
 1255TIP3   OH225255   6.009   2.063   2.466 -0.5130 -0.6828  0.8967
 1255TIP3    H125256   5.940   2.106   2.415  1.8905  1.0156 -1.1352
 1255TIP3    H225257   6.031   1.985   2.415  0.9027  0.2509  0.0182
 1256TIP3   OH225258   1.818   5.572   3.320  0.0184  0.0613  0.4792
 1256TIP3    H125259   1.744   5.631   3.305 -1.0142 -1.1972  0.4252
 1256TIP3    H225260   1.785   5.507   3.383  1.8752  0.8635  2.3699
 1257TIP3   OH225261   5.174   3.307   5.368  0.1274 -0.2833  0.5782
 1257TIP3    H125262   5.177   3.379   5.306 -0.2900  0.1824  1.0831
 1257TIP3    H225263   5.251   3.254   5.348 -1.7705 -2.0970 -2.6082
 1258TIP3   OH225264   0.042   3.676  12.928 -0.1287  0.5427 -0.1009
 1258TIP3    H125265   0.113   3.674  12.863  0.8056  2.3053  0.7861
 1258TIP3    H225266   0.076   3.624  13.001 -1.1898 -1.4613 -0.9651
 1259TIP3   OH225267   3.283   1.178   5.072 -0.0487 -0.4716  1.1355
 1259TIP3    H125268   3.193   1.182   5.041 -0.0030 -2.8524  0.5025
 1259TIP3    H225269   3.302   1.084   5.077  3.2502 -0.1018 -1.2955
 1260TIP3   OH225270   3.374   5.251  12.832  0.0840 -0.4126  0.4017
 1260TIP3    H125271   3.319   5.323  12.802  0.0651 -1.2201 -1.6862
 1260TIP3    H225272   3.315   5.194  12.882 -0.6472 -0.4949 -0.5278
 1261TIP3   OH225273   5.837   5.806  12.923  0.2528  0.0228  0.4005
 1261TIP3    H125274   5.834   5.894  12.961  0.4944  0.3136 -0.2366
 1261TIP3    H225275   5.858   5.749  12.996 -2.8849  0.0784  1.5066
 1262TIP3   OH225276   1.209   5.513   5.407 -0.0817  0.2498  0.1223
 1262TIP3    H125277   1.181   5.584   5.465 -0.2912  0.8019 -0.6438
 1262TIP3    H225278   1.154   5.439   5.432 -2.0004  1.1977 -1.0771
 1263TIP3   OH225279   0.249   6.639  13.636  0.0772  0.0377 -0.6009
 1263TIP3    H125280   0.331   6.589  13.639  0.2898  0.4146  1.5779
 1263TIP3    H225281   0.180   6.573  13.633  0.4078 -0.3298 -0.2124
 1264TIP3   OH225282   6.195   6.675  14.887 -0.0208 -0.0561 -0.0895
 1264TIP3    H125283   6.219   6.764  14.913  1.3862 -0.8323  1.4217
 1264TIP3    H225284   6.227   6.619  14.957 -1.3871 -1.7380 -0.7208
 1265TIP3   OH225285   1.469   2.014   5.485 -0.3987  0.1139  0.6902
 1265TIP3    H125286   1.381   1.997   5.451  0.4134 -1.7853 -0.6270
 1265TIP3    H225287   1.454   2.059   5.568 -2.5997 -0.1688  0.5137
 1266TIP3   OH225288   3.607   0.940   1.091  0.1561  0.0737  0.1185
 1266TIP3    H125289   3.642   0.851   1.078  0.5696  0.4107 -1.2790
 1266TIP3    H225290   3.512   0.929   1.089  0.1869 -0.4635  0.9842
 1267TIP3   OH225291   1.879   2.144   2.657  0.6704 -0.0389  0.1462
 1267TIP3    H125292   1.945   2.184   2.712 -0.4588  2.1000  0.0664
 1267TIP3    H225293   1.801   2.138   2.713 -0.0748  0.8341 -0.7561
 1268TIP3   OH225294   2.135   5.922   1.104 -0.3925  0.2635  0.0467
 1268TIP3    H125295   2.227   5.912   1.081 -0.6151 -0.6790 -0.4925
 1268TIP3    H225296   2.117   5.848   1.162 -1.0287 -0.0988 -0.5895
 1269TIP3   OH225297   5.255   2.285  12.950  0.1427 -0.3013  0.3599
 1269TIP3    H125298   5.205   2.367  12.950 -0.8348 -0.8834 -0.4213
 1269TIP3    H225299   5.306   2.289  13.031 -1.7201 -0.0176  1.5815
 1270TIP3   OH225300   1.872   5.351   1.714  0.0213  0.3678  0.5130
 1270TIP3    H125301   1.965   5.343   1.696  0.0529  2.8923 -0.8411
 1270TIP3    H225302   1.853   5.279   1.775  2.3209 -1.6459 -0.9696
 1271TIP3   OH225303   6.714   1.929   1.968  0.7670  0.4214 -0.2703
 1271TIP3    H125304   6.800   1.959   1.938  0.8525  1.0531  0.5616
 1271TIP3    H225305   6.699   1.978   2.048  1.2897 -2.3866  1.6928
 1272TIP3   OH225306   6.825   2.794   2.229 -0.1681  0.3968  0.1907
 1272TIP3    H125307   6.748   2.816   2.281 -0.2110  1.1528 -0.1754
 1272TIP3    H225308   6.867   2.878   2.212  0.9958 -0.0481  0.7753
 1273TIP3   OH225309   2.689   3.179  10.902 -0.2592 -0.6729  0.0514
 1273TIP3    H125310   2.648   3.265  10.888 -0.6585 -0.4801  2.1637
 1273TIP3    H225311   2.621   3.116  10.879  0.2682 -0.5203 -2.2426
 1274TIP3   OH225312   6.653   6.252  12.833  0.0407  0.3313  0.7325
 1274TIP3    H125313   6.688   6.340  12.816  0.5256  0.4972  2.3801
 1274TIP3    H225314   6.665   6.240  12.927 -0.3912 -1.3585  0.5946
 1275TIP3   OH225315   5.590   3.078  14.509 -0.1403 -0.2146 -0.1330
 1275TIP3    H125316   5.518   3.014  14.508 -0.4010  0.0709 -0.8946
 1275TIP3    H225317   5.605   3.098  14.416  0.5227  0.1817  0.0521
 1276TIP3   OH225318   1.067   1.069   3.224 -0.4394  0.2665 -0.5007
 1276TIP3    H125319   1.085   0.978   3.202  0.1292  0.5871 -1.4397
 1276TIP3    H225320   1.039   1.067   3.315  2.8359 -0.4779  0.6128
 1277TIP3   OH225321   2.019   1.101  13.586  0.1919 -0.5517 -0.1090
 1277TIP3    H125322   2.059   1.104  13.672 -0.4783 -0.7008  0.2134
 1277TIP3    H225323   2.079   1.047  13.533  0.6651 -0.3564  0.2218
 1278TIP3   OH225324   2.619   0.681   2.988  0.0127 -0.1973  0.3640
 1278TIP3    H125325   2.685   0.749   2.973  0.9960 -0.9779  1.0541
 1278TIP3    H225326   2.554   0.696   2.920 -0.0919  1.7867  0.8222
 1279TIP3   OH225327   6.199   2.342   1.214 -0.0798 -0.2532 -0.0522
 1279TIP3    H125328   6.136   2.278   1.248  1.3968 -1.5089  0.4062
 1279TIP3    H225329   6.173   2.424   1.256 -1.1888 -0.8068  0.4088
 1280TIP3   OH225330   3.010   1.878   4.762  0.6818 -0.4288  0.5540
 1280TIP3    H125331   3.099   1.913   4.758  0.5535 -0.2229 -1.2891
 1280TIP3    H225332   3.022   1.786   4.784  1.3981 -0.4996 -0.0900
 1281TIP3   OH225333   1.411   2.187   3.808  0.1504 -0.0112 -0.1521
 1281TIP3    H125334   1.482   2.201   3.745  0.1712  0.6286  0.0097
 1281TIP3    H225335   1.378   2.275   3.827 -0.8171 -0.3133 -0.3755
 1282TIP3   OH225336   3.526   0.246   6.944  0.7356  0.0389  0.0424
 1282TIP3    H125337   3.567   0.252   6.858  0.1282 -0.6573 -0.3044
 1282TIP3    H225338   3.441   0.291   6.934  0.1415 -1.0739 -0.0659
 1283TIP3   OH225339   5.046   6.438   6.133 -0.3068  0.0605  0.3916
 1283TIP3    H125340   5.139   6.417   6.142 -0.2857 -0.2065 -0.4024
 1283TIP3    H225341   5.023   6.408   6.045 -0.7559  1.5520 -0.0425
 1284TIP3   OH225342   6.667   4.850   1.683 -0.1227 -0.2093  0.0002
 1284TIP3    H125343   6.586   4.802   1.696 -0.8941  0.2592 -2.5292
 1284TIP3    H225344   6.708   4.808   1.608  0.0791  1.8896 -1.1352
 1285TIP3   OH225345   1.496   5.326  12.106 -0.1137  0.1412 -0.0459
 1285TIP3    H125346   1.529   5.345  12.193  1.0408  0.3876 -0.5251
 1285TIP3    H225347   1.471   5.411  12.071  1.0364  0.2741 -0.5842
 1286TIP3   OH225348   0.441   4.012  13.110  0.1050 -0.2810  0.2591
 1286TIP3    H125349   0.414   4.102  13.128 -1.1730 -0.9721  2.2014
 1286TIP3    H225350   0.371   3.976  13.056 -0.4384 -0.6482  1.1722
 1287TIP3   OH225351   3.015   4.678  11.728  0.7598  0.4094 -0.0780
 1287TIP3    H125352   3.051   4.672  11.640 -0.3219  1.3947 -0.6283
 1287TIP3    H225353   2.984   4.590  11.748  0.0822  0.3888 -1.1246
 1288TIP3   OH225354   2.441   0.909  12.558  0.1614 -0.0548 -0.1367
 1288TIP3    H125355   2.432   0.852  12.481 -0.7886  1.2168 -0.9841
 1288TIP3    H225356   2.402   0.858  12.629 -2.0322  0.0695 -1.1670
 1289TIP3   OH225357   1.431   5.245   2.659  0.1786  0.4117  0.4279
 1289TIP3    H125358   1.404   5.166   2.707 -0.2927 -0.4005 -1.1050
 1289TIP3    H225359   1.356   5.304   2.667  0.1912  0.3696  0.8742
 1290TIP3   OH225360   3.269   6.730  11.832 -0.3585  0.3948 -0.4462
 1290TIP3    H125361   3.286   6.795  11.900 -2.2991  3.1107 -2.3528
 1290TIP3    H225362   3.187   6.688  11.858 -0.4849  0.6019 -0.5084
 1291TIP3   OH225363   5.694   0.950  12.309  0.3809  0.3904  0.2550
 1291TIP3    H125364   5.653   1.036  12.315 -1.5848 -0.5526  1.4216
 1291TIP3    H225365   5.730   0.935  12.397  0.7196  0.0102  0.0533
 1292TIP3   OH225366   6.170   4.114   1.668  0.4640  0.8048  0.8450
 1292TIP3    H125367   6.078   4.103   1.692  0.1062  1.4685 -0.1811
 1292TIP3    H225368   6.215   4.045   1.716 -0.7540 -0.4378  0.2795
 1293TIP3   OH225369   5.023   4.931  15.682 -0.5340 -0.0103 -0.5194
 1293TIP3    H125370   4.988   5.019  15.695 -0.6716 -0.0312 -0.7417
 1293TIP3    H225371   4.994   4.882  15.759  0.8710  0.5379  0.3953
 1294TIP3   OH225372   5.986   6.191   4.673 -0.7967  0.3000 -0.7812
 1294TIP3    H125373   5.941   6.119   4.629 -0.8541 -0.1276 -0.0316
 1294TIP3    H225374   6.078   6.167   4.670 -1.0174 -1.4713  2.2973
 1295TIP3   OH225375   4.712   1.786   4.338  0.2909 -0.0136  0.0771
 1295TIP3    H125376   4.748   1.795   4.425  1.6858 -0.7074 -0.4038
 1295TIP3    H225377   4.631   1.736   4.350  0.8435 -0.7331  0.9056
 1296TIP3   OH225378   5.852   0.674  15.925 -0.1673 -0.6671 -0.2750
 1296TIP3    H125379   5.829   0.727  16.002 -0.1937  0.3100 -0.9513
 1296TIP3    H225380   5.780   0.611  15.918  0.1372 -1.1659  0.8512
 1297TIP3   OH225381   0.927   5.813   5.389 -0.0437 -0.3420  0.3817
 1297TIP3    H125382   0.954   5.905   5.390 -2.2887  0.3857  0.2674
 1297TIP3    H225383   0.845   5.812   5.439  0.4615 -2.4916  1.2826
 1298TIP3   OH225384   2.283   5.739   3.547 -0.3082 -0.0555 -0.4689
 1298TIP3    H125385   2.323   5.778   3.469  0.6051 -0.5923 -0.2759
 1298TIP3    H225386   2.204   5.695   3.514 -0.5759  0.7243 -0.9010
 1299TIP3   OH225387   5.546   1.165   4.938  0.3180 -0.3020 -0.1956
 1299TIP3    H125388   5.471   1.193   4.886  1.0257 -0.7849 -1.5193
 1299TIP3    H225389   5.560   1.236   5.001  0.1379  0.8465 -1.4171
 1300TIP3   OH225390   4.060   0.566  15.884  0.6047 -0.6195 -0.1568
 1300TIP3    H125391   3.980   0.618  15.883  0.8284 -0.2741 -0.7344
 1300TIP3    H225392   4.081   0.555  15.977  0.7502  0.6309 -0.0261
 1301TIP3   OH225393   4.007   3.907  13.160 -0.2835 -0.1904 -0.0073
 1301TIP3    H125394   4.054   3.925  13.241  0.5907 -1.9709 -0.0727
 1301TIP3    H225395   4.060   3.947  13.092  0.4415 -0.9978  0.0617
 1302TIP3   OH225396   3.516   2.356   5.266 -0.1879 -0.1311 -0.3997
 1302TIP3    H125397   3.578   2.318   5.328  0.2701  1.7360  0.3391
 1302TIP3    H225398   3.437   2.373   5.318  0.2677  1.6311 -0.2480
 1303TIP3   OH225399   5.526   6.565  13.175  0.2804  0.5730 -0.1146
 1303TIP3    H125400   5.524   6.610  13.260  0.8226  2.1796 -0.9110
 1303TIP3    H225401   5.440   6.585  13.136 -0.1652 -0.5815  0.2413
 1304TIP3   OH225402   5.548   6.169   2.081  0.1894 -0.0638 -0.2184
 1304TIP3    H125403   5.559   6.103   2.012  0.6020 -1.7541  1.3903
 1304TIP3    H225404   5.482   6.132   2.139 -0.2735  1.4017  0.2313
 1305TIP3   OH225405   2.402   0.527  14.934  0.6148 -0.5137  0.7127
 1305TIP3    H125406   2.486   0.534  14.889  0.4161 -0.3905  0.3538
 1305TIP3    H225407   2.365   0.616  14.929 -0.1270 -0.8520 -0.3161
 1306TIP3   OH225408   1.979   5.229   2.444  0.3795 -0.2879 -0.1504
 1306TIP3    H125409   2.000   5.138   2.426 -1.0929 -0.5679 -0.6445
 1306TIP3    H225410   1.894   5.242   2.402  0.4810  1.2602  0.0724
 1307TIP3   OH225411   3.389   3.463   5.559 -0.0457 -0.0187  0.0925
 1307TIP3    H125412   3.314   3.489   5.611  0.9374  0.5236  1.2912
 1307TIP3    H225413   3.365   3.378   5.522 -1.5140  0.4904 -0.1673
 1308TIP3   OH225414   0.497   4.011   2.109 -0.6586  0.7529 -0.1893
 1308TIP3    H125415   0.569   4.002   2.171 -0.0658  0.2649 -0.9295
 1308TIP3    H225416   0.425   4.046   2.161 -0.5770 -0.8248  1.0806
 1309TIP3   OH225417   3.355   5.356   4.336  0.0620 -0.1632 -0.0409
 1309TIP3    H125418   3.298   5.287   4.302  1.8696 -0.5640 -2.5933
 1309TIP3    H225419   3.437   5.312   4.356 -0.2269  0.4978  2.9670
 1310TIP3   OH225420   2.401   2.699  12.367  0.0877 -0.6257  0.1071
 1310TIP3    H125421   2.437   2.626  12.318  1.2955 -2.3717  3.2735
 1310TIP3    H225422   2.472   2.728  12.424 -0.2264  3.3783 -1.2005
 1311TIP3   OH225423   4.320   4.792  14.836  0.3256  0.2789 -0.0745
 1311TIP3    H125424   4.243   4.744  14.804  0.5031  0.2384 -0.4499
 1311TIP3    H225425   4.332   4.863  14.772  0.2489  0.6413  0.3071
 1312TIP3   OH225426   4.867   1.584  12.532 -0.4947  0.2724  0.0469
 1312TIP3    H125427   4.786   1.572  12.483  1.2342 -0.6453 -2.9056
 1312TIP3    H225428   4.863   1.521  12.604 -2.2274 -0.0024 -0.2646
 1313TIP3   OH225429   3.081   6.513  14.329  0.1278  0.3425 -0.4342
 1313TIP3    H125430   3.095   6.604  14.303  0.1285  0.8379  1.2104
 1313TIP3    H225431   3.005   6.516  14.387  1.1953 -0.4468  1.0510
 1314TIP3   OH225432   5.002   4.182  12.655  0.3891  0.1245  0.1028
 1314TIP3    H125433   5.005   4.232  12.574  0.5581 -0.8344 -0.4921
 1314TIP3    H225434   5.001   4.090  12.628 -1.6594 -0.2113  1.1149
 1315TIP3   OH225435   4.017   5.031  12.518 -0.3442  0.1898  0.5297
 1315TIP3    H125436   4.059   5.029  12.604 -0.2031 -0.7697  0.4518
 1315TIP3    H225437   4.035   5.118  12.484  0.5065  0.2167  1.0353
 1316TIP3   OH225438   4.639   2.941   4.241  0.1621  0.2327  0.0691
 1316TIP3    H125439   4.649   2.991   4.160  4.0493 -1.7091 -0.8645
 1316TIP3    H225440   4.642   2.849   4.214 -2.9629 -0.6404  2.1050
 1317TIP3   OH225441   1.984   4.978   2.323  0.0816  0.3747 -0.9113
 1317TIP3    H125442   1.889   4.987   2.317  0.2208  0.9224 -2.9342
 1317TIP3    H225443   2.010   4.940   2.239  1.3909 -2.7725  0.7243
 1318TIP3   OH225444   3.654   0.956  13.885  0.1409 -0.0349  0.2347
 1318TIP3    H125445   3.617   0.869  13.896 -1.1640  0.6177  1.3785
 1318TIP3    H225446   3.578   1.013  13.871  0.8547  1.0814  0.7276
 1319TIP3   OH225447   1.119   5.930   3.387  0.1329  0.0787 -0.1215
 1319TIP3    H125448   1.060   5.855   3.378 -1.6682  1.3953  0.2207
 1319TIP3    H225449   1.096   5.969   3.471  4.1756 -1.5028  2.0068
 1320TIP3   OH225450   0.317   4.831   1.413  0.3751 -0.4266  0.3564
 1320TIP3    H125451   0.289   4.739   1.417  1.1847 -0.6666  0.6438
 1320TIP3    H225452   0.236   4.881   1.426 -0.4062 -1.0585 -1.6474
 1321TIP3   OH225453   4.399   0.395   5.648 -0.2224 -0.1461  0.4665
 1321TIP3    H125454   4.427   0.467   5.704  2.1033 -0.9349  0.4112
 1321TIP3    H225455   4.349   0.338   5.707  0.5013  0.0167  1.2641
 1322TIP3   OH225456   5.284   0.659  11.866  0.5598  0.0193 -0.5389
 1322TIP3    H125457   5.216   0.706  11.816  0.7121 -0.3702 -1.1286
 1322TIP3    H225458   5.359   0.718  11.866 -0.3861  1.3638  1.8820
 1323TIP3   OH225459   3.437   1.879  14.836  0.1991  0.2246  0.2337
 1323TIP3    H125460   3.446   1.882  14.931  2.0042 -1.1327  0.1580
 1323TIP3    H225461   3.349   1.845  14.821  0.6009 -1.5268  1.5038
 1324TIP3   OH225462   5.870   4.499   4.022 -0.5070 -0.0495 -0.2334
 1324TIP3    H125463   5.867   4.457   4.108  0.3097  1.4011  0.5289
 1324TIP3    H225464   5.858   4.592   4.040 -1.6368  0.1534 -1.8278
 1325TIP3   OH225465   5.630   2.393  10.835  0.1017 -0.5924  0.2919
 1325TIP3    H125466   5.668   2.424  10.917 -0.2206  0.3511  0.0933
 1325TIP3    H225467   5.657   2.458  10.770 -0.4221 -0.8341 -0.1733
 1326TIP3   OH225468   0.381   1.169   2.224  0.0401  0.1486 -0.3021
 1326TIP3    H125469   0.453   1.183   2.162  0.9240 -1.6452  0.2560
 1326TIP3    H225470   0.423   1.162   2.309 -0.7568 -1.2336  0.0046
 1327TIP3   OH225471   2.774   3.369   1.539  0.2648  0.4328 -0.2032
 1327TIP3    H125472   2.844   3.354   1.476  0.0709  1.2491 -0.6208
 1327TIP3    H225473   2.699   3.324   1.503 -0.2853  2.2163 -1.3969
 1328TIP3   OH225474   2.592   6.841   5.122 -0.0840 -0.3045 -0.3151
 1328TIP3    H125475   2.562   6.806   5.206  0.5764  1.6940  0.8052
 1328TIP3    H225476   2.518   6.827   5.063 -0.6347 -1.5691  0.6226
 1329TIP3   OH225477   1.628   1.584  14.323 -0.2315  0.4791 -0.0329
 1329TIP3    H125478   1.716   1.614  14.303  0.2163 -0.0771  1.0025
 1329TIP3    H225479   1.609   1.517  14.257 -0.1998  1.1497 -0.7327
 1330TIP3   OH225480   5.806   6.786   4.154  0.0593  0.0851  0.0168
 1330TIP3    H125481   5.855   6.843   4.095 -2.0228 -0.5284 -2.4784
 1330TIP3    H225482   5.850   6.701   4.146  0.1218  0.1375 -0.2045
 1331TIP3   OH225483   2.850   1.731  12.072  0.0162 -0.1480  0.4385
 1331TIP3    H125484   2.830   1.712  11.981  2.1633 -1.4621  0.1602
 1331TIP3    H225485   2.779   1.787  12.102  0.1619  1.7872 -2.5249
 1332TIP3   OH225486   4.550   4.074   2.167  0.2804 -0.2367 -0.8361
 1332TIP3    H125487   4.573   4.039   2.253 -1.2215 -0.1285 -0.3515
 1332TIP3    H225488   4.523   3.998   2.116 -0.5413 -0.1002 -0.6161
 1333TIP3   OH225489   4.328   6.207  15.342  0.4442  0.0907 -0.2934
 1333TIP3    H125490   4.304   6.114  15.337  0.3602  0.1333 -0.7410
 1333TIP3    H225491   4.404   6.215  15.284  1.6314 -0.0597  1.1539
 1334TIP3   OH225492   4.079   5.431  10.592  0.6745 -0.2784 -0.1376
 1334TIP3    H125493   4.171   5.407  10.600  0.6834 -0.5692 -1.0211
 1334TIP3    H225494   4.078   5.527  10.596  0.8265 -0.3118  1.5552
 1335TIP3   OH225495   5.866   3.037   4.753 -0.4863 -0.0193  0.7420
 1335TIP3    H125496   5.877   2.951   4.712 -0.2097  1.1516 -1.8063
 1335TIP3    H225497   5.864   3.099   4.680 -1.7526  2.0705  2.4234
 1336TIP3   OH225498   4.483   2.341  16.562  0.0189 -0.1346  0.7188
 1336TIP3    H125499   4.421   2.399  16.606 -0.1049  1.5923 -1.5098
 1336TIP3    H225500   4.462   2.351  16.469  2.7360 -0.5273 -0.0176
 1337TIP3   OH225501   2.433   4.902   1.967 -0.4858 -0.1331  0.2321
 1337TIP3    H125502   2.398   4.844   1.901 -0.3628 -1.0401  0.9449
 1337TIP3    H225503   2.385   4.984   1.956 -1.4211 -0.7159 -0.0793
 1338TIP3   OH225504   3.297   5.581   0.512 -0.0670 -0.1757  0.1639
 1338TIP3    H125505   3.365   5.642   0.485  0.0916 -0.5981 -0.3985
 1338TIP3    H225506   3.345   5.507   0.551 -0.2888  0.5061  1.8309
 1339TIP3   OH225507   1.236   3.988   6.393  0.1807  0.2052 -0.0963
 1339TIP3    H125508   1.239   3.976   6.488 -0.2028 -0.6332 -0.1872
 1339TIP3    H225509   1.289   3.917   6.358 -2.6656 -1.7926 -0.6798
 1340TIP3   OH225510   3.860   1.039   4.653  0.0326  0.4978  0.3497
 1340TIP3    H125511   3.855   1.104   4.724  1.3552 -0.3194  1.2297
 1340TIP3    H225512   3.863   0.955   4.698  4.7039  0.0314 -0.3464
 1341TIP3   OH225513   2.715   2.636  15.487 -0.1345  1.0089  0.0100
 1341TIP3    H125514   2.798   2.589  15.482 -1.3497 -1.8595  2.9552
 1341TIP3    H225515   2.700   2.668  15.398  1.9260 -2.3711 -1.7688
 1342TIP3   OH225516   5.843   5.514   0.517 -0.0589 -0.4037  0.1858
 1342TIP3    H125517   5.762   5.477   0.483 -0.0263 -0.6564  0.3877
 1342TIP3    H225518   5.828   5.525   0.610 -0.1820  0.3900  0.0782
 1343TIP3   OH225519   4.727   2.327  14.159  0.1134  0.3484 -0.3451
 1343TIP3    H125520   4.762   2.242  14.186 -1.1208  0.4171  1.7039
 1343TIP3    H225521   4.647   2.306  14.111 -1.4939  0.2878  2.1608
 1344TIP3   OH225522   3.460   0.275   2.046  1.0111 -0.6841  0.2501
 1344TIP3    H125523   3.404   0.317   2.112 -0.4581 -1.2117 -0.6146
 1344TIP3    H225524   3.493   0.348   1.993 -0.3174 -0.4782 -0.3238
 1345TIP3   OH225525   1.633   3.812   3.399 -0.6355 -0.4431  0.2117
 1345TIP3    H125526   1.568   3.817   3.328 -1.5367  0.2103  1.0437
 1345TIP3    H225527   1.629   3.898   3.441  1.6431  0.0349 -0.4290
 1346TIP3   OH225528   2.997   4.237   1.167 -0.7539  0.0355 -0.0398
 1346TIP3    H125529   2.940   4.179   1.117 -0.7312  0.5271 -0.6464
 1346TIP3    H225530   2.961   4.237   1.255 -1.1863 -0.3267 -0.2151
 1347TIP3   OH225531   1.910   0.241  15.646  0.0083  0.3251  0.4194
 1347TIP3    H125532   1.966   0.219  15.571 -1.0961 -2.0789  0.1808
 1347TIP3    H225533   1.967   0.232  15.722  1.1571  2.8546 -0.0628
 1348TIP3   OH225534   0.950   2.643   0.204 -0.4904 -0.4531  0.1003
 1348TIP3    H125535   0.933   2.663   0.296  0.3315 -0.8035  0.3355
 1348TIP3    H225536   0.863   2.629   0.166 -0.8711  0.3133  0.6750
 1349TIP3   OH225537   1.779   4.495   0.241 -0.2931 -0.1659 -0.2713
 1349TIP3    H125538   1.807   4.495   0.149  1.7036 -1.4464  0.2680
 1349TIP3    H225539   1.788   4.404   0.269 -0.6953  0.2282  1.2430
 1350TIP3   OH225540   2.577   6.783  14.161  0.0757  0.0240 -0.2711
 1350TIP3    H125541   2.513   6.727  14.204 -1.2141  0.4177 -1.5881
 1350TIP3    H225542   2.630   6.819  14.233  0.3170 -2.0806  0.6651
 1351TIP3   OH225543   1.506   3.905   2.181  0.2465 -0.0690 -0.6449
 1351TIP3    H125544   1.582   3.948   2.219  0.6393 -1.2860  0.0111
 1351TIP3    H225545   1.535   3.815   2.165 -0.1372  0.1608 -3.1370
 1352TIP3   OH225546   0.909   3.136   5.472 -0.3387  0.1101 -0.2529
 1352TIP3    H125547   0.969   3.065   5.452  0.7498  0.9601 -0.1047
 1352TIP3    H225548   0.917   3.148   5.567  0.7641  1.5178 -0.4977
 1353TIP3   OH225549   3.461   1.873  15.106 -0.8194  0.2914  0.4498
 1353TIP3    H125550   3.432   1.830  15.186 -0.8828 -0.2810  0.1232
 1353TIP3    H225551   3.424   1.961  15.111 -1.0219  0.1821  0.9345
 1354TIP3   OH225552   3.778   2.108  15.107 -0.2748  0.3776  0.4699
 1354TIP3    H125553   3.851   2.152  15.063  0.3628  0.1770  1.2923
 1354TIP3    H225554   3.815   2.024  15.137 -0.7731  0.3693  1.0972
 1355TIP3   OH225555   0.904   5.456   3.381 -0.2999  0.2433 -0.5479
 1355TIP3    H125556   0.882   5.429   3.292 -2.9803 -1.7246  0.5696
 1355TIP3    H225557   0.929   5.375   3.425  1.0570  1.1966  0.5103
 1356TIP3   OH225558   0.446   0.222   2.197 -0.2808 -0.0015  0.5017
 1356TIP3    H125559   0.366   0.270   2.219  0.0394  0.8140 -0.0524
 1356TIP3    H225560   0.516   0.272   2.239 -0.2729 -2.6224  4.0299
 1357TIP3   OH225561   6.099   0.164   1.073  0.2221 -0.3859 -0.0544
 1357TIP3    H125562   6.172   0.103   1.063 -0.3406 -1.0257 -0.2797
 1357TIP3    H225563   6.134   0.247   1.041  1.7575  0.0239  2.3670
 1358TIP3   OH225564   6.150   5.099  15.811 -0.4339 -0.1690  0.1827
 1358TIP3    H125565   6.065   5.070  15.847 -0.0912  1.1332  2.1998
 1358TIP3    H225566   6.129   5.131  15.723 -2.1426  0.5443  0.7989
 1359TIP3   OH225567   4.597   1.912  14.418 -0.3910 -0.6118  0.3121
 1359TIP3    H125568   4.617   2.002  14.394  0.5479 -1.0180 -0.4635
 1359TIP3    H225569   4.506   1.899  14.390 -0.6984  0.2179  0.8607
 1360TIP3   OH225570   0.305   6.267  16.713  0.1180  0.4845  0.3729
 1360TIP3    H125571   0.385   6.315  16.737  0.5094  1.0944 -1.9406
 1360TIP3    H225572   0.317   6.245  16.621 -2.1615  0.1100  0.1087
 1361TIP3   OH225573   2.907   1.669   4.378  0.2978  0.1413 -0.5375
 1361TIP3    H125574   2.959   1.728   4.433 -0.4540  1.5770 -1.2948
 1361TIP3    H225575   2.831   1.721   4.354  0.2590 -0.6942 -2.3442
 1362TIP3   OH225576   5.431   4.360  12.745  0.4205  0.9695 -0.0728
 1362TIP3    H125577   5.518   4.328  12.768  0.1075  0.6612  0.7410
 1362TIP3    H225578   5.441   4.454  12.734  1.3180  0.6830 -2.2808
 1363TIP3   OH225579   0.892   0.059   5.031  0.1426  0.3845 -0.5404
 1363TIP3    H125580   0.866  -0.033   5.026 -1.0389  0.5680  1.4634
 1363TIP3    H225581   0.823   0.102   5.081 -0.8564  3.0100 -3.8052
 1364TIP3   OH225582   4.070   3.300  11.090  0.3273  0.2577  0.4145
 1364TIP3    H125583   4.142   3.256  11.044  0.4514  0.9435 -0.0612
 1364TIP3    H225584   4.110   3.335  11.170  1.0543  2.4500 -0.8281
 1365TIP3   OH225585   4.168   1.194   4.988 -0.3795 -0.6327 -0.3847
 1365TIP3    H125586   4.130   1.136   4.922 -0.7519  0.8863 -1.5664
 1365TIP3    H225587   4.262   1.185   4.976 -0.4430 -0.5054 -1.0040
 1366TIP3   OH225588   6.124   2.841  15.453  0.1094 -0.5141 -0.5896
 1366TIP3    H125589   6.139   2.826  15.359  0.8060 -1.0294 -0.4047
 1366TIP3    H225590   6.158   2.763  15.495  1.6614  0.5643  0.2488
 1367TIP3   OH225591   2.822   5.931  15.042  0.0436 -0.1455  0.1656
 1367TIP3    H125592   2.799   6.012  15.087 -0.4541  0.1771 -0.6525
 1367TIP3    H225593   2.866   5.878  15.109 -0.2622  0.5080  0.8964
 1368TIP3   OH225594   5.967   1.280   0.968 -0.4902 -0.1893  0.0914
 1368TIP3    H125595   6.043   1.241   0.925 -0.0780  1.0091 -0.2998
 1368TIP3    H225596   6.003   1.318   1.049 -0.5170  0.9966 -0.4325
 1369TIP3   OH225597   1.563   2.869   5.080  0.1785 -0.3308  0.4315
 1369TIP3    H125598   1.493   2.830   5.027  0.2859 -0.0999  0.1166
 1369TIP3    H225599   1.525   2.949   5.114  0.2018 -0.3405  0.4801
 1370TIP3   OH225600   1.716   6.339   5.933  0.3271  0.0509 -0.7624
 1370TIP3    H125601   1.708   6.267   5.870  0.3784 -0.0892 -0.6082
 1370TIP3    H225602   1.638   6.333   5.987  0.8717 -0.5812 -0.0291
 1371TIP3   OH225603   3.400   4.022   2.273  0.2363  0.3112 -0.4965
 1371TIP3    H125604   3.348   4.033   2.193 -0.3992 -1.1601 -0.3306
 1371TIP3    H225605   3.340   4.046   2.344  1.0929  2.5342 -0.4607
 1372TIP3   OH225606   4.315   1.673   3.200  0.5001  0.3734 -0.1752
 1372TIP3    H125607   4.396   1.713   3.167  0.4333  2.0775  1.5501
 1372TIP3    H225608   4.344   1.604   3.260  0.6844  0.7148  0.1316
 1373TIP3   OH225609   2.749   5.377  17.029  0.2476 -0.3642  0.1369
 1373TIP3    H125610   2.832   5.418  17.054  1.2301 -2.3812  0.4128
 1373TIP3    H225611   2.762   5.351  16.937 -0.4153  0.0668 -0.0849
 1374TIP3   OH225612   5.781   1.273  10.776 -0.2378  0.8756 -0.1641
 1374TIP3    H125613   5.769   1.284  10.682 -1.2560 -1.2342 -0.3304
 1374TIP3    H225614   5.870   1.238  10.786  0.3805  2.3668 -0.1893
 1375TIP3   OH225615   4.115   1.789   2.553 -0.5161 -0.0155  0.3625
 1375TIP3    H125616   4.099   1.709   2.602  0.2277 -1.0370 -0.9828
 1375TIP3    H225617   4.211   1.794   2.545 -0.5937  0.4425 -0.4533
 1376TIP3   OH225618   1.055   0.217   4.871 -0.0371 -0.6057  0.1321
 1376TIP3    H125619   1.015   0.150   4.927 -0.3098 -0.6651 -0.1344
 1376TIP3    H225620   1.109   0.268   4.931 -1.1765  0.0092  0.6742
 1377TIP3   OH225621   4.657   6.365  15.175 -0.0676 -0.1722 -0.0701
 1377TIP3    H125622   4.585   6.427  15.180 -0.2218 -0.2192 -1.3074
 1377TIP3    H225623   4.616   6.279  15.182  0.0252 -0.1631  0.5882
 1378TIP3   OH225624   3.288   1.842  12.123  0.4095  0.3178 -0.0932
 1378TIP3    H125625   3.202   1.884  12.119  0.5713  0.6620  0.0393
 1378TIP3    H225626   3.273   1.762  12.174 -0.1993 -0.5456 -1.5760
 1379TIP3   OH225627   2.805   3.350  14.071  0.0491 -0.4538  0.1146
 1379TIP3    H125628   2.824   3.277  14.012  0.0708  0.1496 -0.6405
 1379TIP3    H225629   2.886   3.363  14.121  0.1798 -0.6759 -0.0410
 1380TIP3   OH225630   5.080   1.969  12.732 -0.4085 -0.0515  0.3819
 1380TIP3    H125631   5.032   2.046  12.762 -2.9715 -1.2104 -0.4644
 1380TIP3    H225632   5.078   1.974  12.637  0.7806 -0.3957  0.3186
 1381TIP3   OH225633   3.326   6.819  13.123  0.0509  0.0329 -0.3015
 1381TIP3    H125634   3.369   6.743  13.163  0.6439  1.5323  2.1179
 1381TIP3    H225635   3.244   6.784  13.089  1.3096 -2.1134 -1.3823
 1382TIP3   OH225636   1.704   1.379   5.089 -0.2215  0.5094  0.0404
 1382TIP3    H125637   1.791   1.415   5.103 -0.8134  1.4873  1.3237
 1382TIP3    H225638   1.651   1.452   5.058 -0.7539  0.0898 -0.0726
 1383TIP3   OH225639   3.710   4.700  15.438  0.2220 -0.5106 -0.3664
 1383TIP3    H125640   3.709   4.780  15.386 -0.2705 -0.7184 -0.6937
 1383TIP3    H225641   3.649   4.718  15.510  0.6961 -0.3196 -0.0119
 1384TIP3   OH225642   5.412   3.230  10.831 -0.1899  0.4234 -0.4271
 1384TIP3    H125643   5.481   3.294  10.851  0.4237 -0.3498 -0.0063
 1384TIP3    H225644   5.398   3.238  10.737  1.3710 -0.2580 -0.7516
 1385TIP3   OH225645   0.362   4.569   4.508 -0.0710 -0.4911  0.0296
 1385TIP3    H125646   0.416   4.554   4.431 -1.8162  1.2246 -1.6433
 1385TIP3    H225647   0.379   4.659   4.533  1.5254 -1.4116  2.6354
 1386TIP3   OH225648   5.503   3.079  15.535  0.2527 -0.1160  0.5976
 1386TIP3    H125649   5.537   3.144  15.473 -0.0685 -0.1038  0.4342
 1386TIP3    H225650   5.481   3.004  15.481 -2.0437  0.6437  0.3707
 1387TIP3   OH225651   1.503   4.403   0.249  0.2637  0.0080  0.3383
 1387TIP3    H125652   1.480   4.340   0.180 -2.4373  0.7942  0.4013
 1387TIP3    H225653   1.536   4.479   0.201  1.5355 -0.6426  0.1445
 1388TIP3   OH225654   3.031   6.808  14.312 -0.4117  0.3720 -0.3669
 1388TIP3    H125655   3.056   6.899  14.327 -1.7379  0.5934  0.6760
 1388TIP3    H225656   3.010   6.774  14.399 -0.1283 -0.8796 -0.7657
 1389TIP3   OH225657   1.978   2.202   2.384 -0.1632 -0.4631 -0.1051
 1389TIP3    H125658   1.935   2.142   2.445 -1.5561 -0.7073 -1.2673
 1389TIP3    H225659   2.033   2.257   2.439 -0.0901 -1.7585  1.1735
 1390TIP3   OH225660   2.462   5.797   4.687  0.4491 -0.0319 -0.4194
 1390TIP3    H125661   2.458   5.702   4.697  1.2647 -0.1567 -1.1700
 1390TIP3    H225662   2.519   5.827   4.758 -0.6603  0.0296  0.4745
 1391TIP3   OH225663   5.626   5.975   5.650  0.0198  0.0876 -0.3514
 1391TIP3    H125664   5.667   5.899   5.607 -0.5745 -2.3859  3.0484
 1391TIP3    H225665   5.537   5.977   5.616  0.4899  0.2496 -1.6107
 1392TIP3   OH225666   2.966   2.051  15.636  0.2552 -0.7060  0.2711
 1392TIP3    H125667   3.006   2.114  15.577 -0.1467 -0.7905 -0.0951
 1392TIP3    H225668   2.877   2.040  15.603 -0.8254  1.1120  2.3159
 1393TIP3   OH225669   1.860   1.491  16.145  0.0157 -0.2901  0.2595
 1393TIP3    H125670   1.938   1.435  16.145  0.8616  0.8445  0.0710
 1393TIP3    H225671   1.837   1.499  16.237  1.4435  1.0993  0.5317
 1394TIP3   OH225672   0.663   4.692   0.249 -0.3680  0.3404  0.1127
 1394TIP3    H125673   0.729   4.709   0.316 -0.7512 -0.1577  0.6269
 1394TIP3    H225674   0.621   4.611   0.277  0.3862 -0.6323 -1.4778
 1395TIP3   OH225675   2.909   4.780   5.530  0.7534  0.0020 -0.0333
 1395TIP3    H125676   2.922   4.874   5.542 -0.4850  0.0366  1.4710
 1395TIP3    H225677   2.923   4.743   5.617  0.6139 -1.1329 -0.4736
 1396TIP3   OH225678   2.981   0.205   3.770  0.1970 -0.1341 -0.1208
 1396TIP3    H125679   2.965   0.170   3.682  0.7100 -1.4669  0.2879
 1396TIP3    H225680   2.901   0.253   3.791  0.1165  0.3085 -1.3557
 1397TIP3   OH225681   3.209   3.624  11.611 -0.1037 -0.0359 -0.0511
 1397TIP3    H125682   3.234   3.546  11.659  0.3411  1.0400  1.5397
 1397TIP3    H225683   3.194   3.690  11.678 -1.4494  0.9897 -1.2887
 1398TIP3   OH225684   5.494   5.471  11.842  0.5728 -0.6501 -0.2177
 1398TIP3    H125685   5.556   5.543  11.858  0.5016 -0.9025  1.4488
 1398TIP3    H225686   5.550   5.394  11.831  0.5973 -0.7603  0.5986
 1399TIP3   OH225687   3.544   3.134   3.364 -0.3259 -0.2479 -0.3030
 1399TIP3    H125688   3.601   3.120   3.440 -1.0692 -0.5758  0.2027
 1399TIP3    H225689   3.603   3.169   3.296  0.2533  0.5392  0.5734
 1400TIP3   OH225690   1.651   5.006   1.525  0.2202 -0.2791 -0.3188
 1400TIP3    H125691   1.580   5.052   1.480 -0.1039  2.0254  2.3279
 1400TIP3    H225692   1.617   4.917   1.538 -2.3639  0.7879  1.0075
 1401TIP3   OH225693   0.667   0.782  11.792  0.4007  0.7215 -0.3268
 1401TIP3    H125694   0.582   0.798  11.751 -0.3511 -1.7106  0.1129
 1401TIP3    H225695   0.646   0.772  11.885  0.6988 -2.3550 -0.4957
 1402TIP3   OH225696   2.254   4.470   0.576  0.0536 -0.0873 -0.1693
 1402TIP3    H125697   2.218   4.523   0.505 -1.8737 -1.7298 -0.5297
 1402TIP3    H225698   2.212   4.504   0.655  2.1027  1.6562  0.2856
 1403TIP3   OH225699   0.697   5.080  10.279  0.4421  0.3439 -0.0703
 1403TIP3    H125700   0.724   4.989  10.292 -0.0735 -0.0110 -1.3104
 1403TIP3    H225701   0.603   5.075  10.264  0.6264  0.9020 -1.6136
 1404TIP3   OH225702   4.599   2.079  12.342 -0.7234 -0.0260  0.0278
 1404TIP3    H125703   4.680   2.128  12.361 -1.3678  0.7687  0.8455
 1404TIP3    H225704   4.626   2.012  12.280  0.2641  1.1900 -0.9213
 1405TIP3   OH225705   0.620   3.806   4.099 -0.5766 -0.2353 -0.6423
 1405TIP3    H125706   0.676   3.871   4.142  3.0092 -1.6836 -2.6101
 1405TIP3    H225707   0.575   3.856   4.031 -0.2649  0.7165 -0.1750
 1406TIP3   OH225708   4.954   4.785   1.204 -0.3042  0.0303  0.3176
 1406TIP3    H125709   4.890   4.723   1.171 -0.5126  0.8714 -0.9176
 1406TIP3    H225710   4.979   4.838   1.128  1.6347 -0.0647  0.8118
 1407TIP3   OH225711   3.255   5.571  15.344  0.7880 -0.1989  0.0144
 1407TIP3    H125712   3.198   5.508  15.298  0.1409 -0.4225  1.0900
 1407TIP3    H225713   3.283   5.631  15.276  2.3045 -2.2560 -1.2880
 1408TIP3   OH225714   3.348   4.641   4.889  0.0020  0.2477  0.0716
 1408TIP3    H125715   3.426   4.634   4.835  0.7718 -0.4104  1.2222
 1408TIP3    H225716   3.377   4.617   4.977 -1.3714  0.5480  0.6397
 1409TIP3   OH225717   3.719   5.587   1.130 -0.2261  0.3982  0.3910
 1409TIP3    H125718   3.801   5.633   1.116 -0.4103  0.9743  1.1518
 1409TIP3    H225719   3.745   5.498   1.156  0.2936  1.3134  3.4544
 1410TIP3   OH225720   4.814   5.429   3.800 -0.2258 -0.4783  0.1046
 1410TIP3    H125721   4.762   5.412   3.721 -0.2548  1.9318 -0.4639
 1410TIP3    H225722   4.874   5.500   3.775  0.6260 -0.5004  1.9011
 1411TIP3   OH225723   1.193   6.389   6.019 -0.4050  0.3427  0.1530
 1411TIP3    H125724   1.185   6.385   5.923  1.3372  0.1673 -0.0242
 1411TIP3    H225725   1.114   6.346   6.052 -0.2132 -1.1892 -1.2397
 1412TIP3   OH225726   2.718   5.017  14.271  0.2147  0.1504  0.1721
 1412TIP3    H125727   2.812   5.027  14.288  0.2883 -1.3437  0.7810
 1412TIP3    H225728   2.677   5.088  14.320  0.9782  0.4595  0.3803
 1413TIP3   OH225729   3.892   0.732  15.705  0.0443  0.7248 -0.2673
 1413TIP3    H125730   3.872   0.811  15.755  0.2223 -1.3020  3.3173
 1413TIP3    H225731   3.985   0.738  15.685  0.5696  0.5265  1.9018
 1414TIP3   OH225732   0.268   5.131  13.845  0.1495 -0.6560 -0.6917
 1414TIP3    H125733   0.182   5.089  13.847 -0.2352  0.0796 -1.3853
 1414TIP3    H225734   0.261   5.204  13.906  0.5603 -1.1164 -0.0920
 1415TIP3   OH225735   1.373   1.476   1.077 -0.2974 -0.3924 -0.4605
 1415TIP3    H125736   1.398   1.452   0.987 -0.2906  2.1428 -1.2262
 1415TIP3    H225737   1.453   1.509   1.116 -0.7369  0.4979 -0.2797
 1416TIP3   OH225738   3.943   0.558  12.334  0.0295  0.1302 -0.0305
 1416TIP3    H125739   3.906   0.646  12.342 -0.4222 -0.0737  0.1784
 1416TIP3    H225740   3.941   0.539  12.241 -0.3022  0.1668 -0.0349
 1417TIP3   OH225741   0.908   3.682   3.191  0.0769  0.4896  0.2417
 1417TIP3    H125742   0.834   3.623   3.182  0.4080 -0.1211  1.4280
 1417TIP3    H225743   0.981   3.626   3.216  0.6934  1.2383  0.1648
 1418TIP3   OH225744   1.327   2.116   6.059 -0.1194 -0.5850 -0.1210
 1418TIP3    H125745   1.308   2.203   6.024 -0.8211 -1.1003 -1.0558
 1418TIP3    H225746   1.418   2.123   6.091  1.1805 -0.4649 -3.4457
 1419TIP3   OH225747   5.020   2.211   1.749 -0.4093  0.3678  0.1018
 1419TIP3    H125748   4.955   2.193   1.681  0.2057 -2.4550  0.1660
 1419TIP3    H225749   5.098   2.162   1.721  0.5639  0.9043  1.7625
 1420TIP3   OH225750   0.050   3.495  14.551  0.4205 -0.1723  0.4665
 1420TIP3    H125751   0.036   3.517  14.643  0.3581  0.4696  0.3112
 1420TIP3    H225752   0.064   3.580  14.508  2.1327 -0.5597  0.1655
 1421TIP3   OH225753   1.185   1.969  11.093 -0.1917 -0.1479 -0.0810
 1421TIP3    H125754   1.133   2.018  11.030  0.7280  3.2672  1.6105
 1421TIP3    H225755   1.143   1.883  11.097 -2.5499  0.7704 -2.4609
 1422TIP3   OH225756   5.209   4.427  14.493  0.5675  0.3285 -0.6097
 1422TIP3    H125757   5.227   4.522  14.491 -0.5675  0.5695 -0.1687
 1422TIP3    H225758   5.237   4.399  14.580 -1.7150  0.8454  0.3539
 1423TIP3   OH225759   5.508   0.567   4.223 -0.3892  0.0834 -0.0339
 1423TIP3    H125760   5.552   0.581   4.307  0.2662 -0.8857 -0.1987
 1423TIP3    H225761   5.538   0.481   4.194 -3.8149 -1.5163  0.7158
 1424TIP3   OH225762   6.545   5.834  16.113  0.4313 -0.8023 -0.1997
 1424TIP3    H125763   6.476   5.777  16.146 -0.2975 -0.2668 -0.7692
 1424TIP3    H225764   6.550   5.813  16.019  0.9809 -0.7681 -0.1812
 1425TIP3   OH225765   1.859   0.542   1.117  0.0296  0.1649 -0.2651
 1425TIP3    H125766   1.823   0.611   1.062  0.0282 -0.0154 -0.4933
 1425TIP3    H225767   1.795   0.471   1.111  0.9288 -0.5846 -1.5603
 1426TIP3   OH225768   2.215   1.900  14.012  0.0653  0.4973 -0.0735
 1426TIP3    H125769   2.161   1.842  14.065 -0.6041  1.3941  0.2408
 1426TIP3    H225770   2.248   1.844  13.941  2.1332 -1.1101  2.0096
 1427TIP3   OH225771   2.585   5.944  14.134  0.0688 -0.2111  0.2891
 1427TIP3    H125772   2.639   5.969  14.209  0.1926 -2.2261  0.9326
 1427TIP3    H225773   2.647   5.907  14.071 -0.5546 -3.5618  1.4816
 1428TIP3   OH225774   4.137   1.901  14.750 -0.2455  0.3088 -1.1106
 1428TIP3    H125775   4.231   1.899  14.734 -0.2727 -1.7327 -1.2755
 1428TIP3    H225776   4.115   1.813  14.778 -2.1859  0.6216 -1.4605
 1429TIP3   OH225777   3.603   1.766  13.888  0.4330 -0.6600  0.2109
 1429TIP3    H125778   3.624   1.711  13.963  0.4649 -0.3494  0.4320
 1429TIP3    H225779   3.684   1.768  13.837  0.9456  0.4641  1.0153
 1430TIP3   OH225780   3.671   3.469   3.006 -0.1100 -0.3114 -0.1538
 1430TIP3    H125781   3.628   3.443   3.088 -3.1452  0.1530 -1.4838
 1430TIP3    H225782   3.745   3.408   2.998  0.2448 -0.4352  2.8107
 1431TIP3   OH225783   5.111   1.423  11.493  0.0699 -0.3764 -0.1835
 1431TIP3    H125784   5.135   1.459  11.578  3.2559  1.2383 -1.5951
 1431TIP3    H225785   5.151   1.482  11.429 -2.8565 -1.0346 -2.9101
 1432TIP3   OH225786   2.364   0.968   2.533 -0.0258 -0.0682 -0.3295
 1432TIP3    H125787   2.356   1.063   2.523 -0.2257 -0.1908 -1.5437
 1432TIP3    H225788   2.350   0.953   2.626 -0.2481  1.0715 -0.1535
 1433TIP3   OH225789   1.415   6.332  12.809 -0.6611  0.0249  0.3728
 1433TIP3    H125790   1.450   6.344  12.898 -0.6175 -1.4414  0.5753
 1433TIP3    H225791   1.445   6.245  12.783 -2.4241 -0.4320 -0.2511
 1434TIP3   OH225792   3.898   4.967  17.158  0.6424 -0.2061  0.0147
 1434TIP3    H125793   3.983   4.952  17.118  0.5269 -0.9387  0.0346
 1434TIP3    H225794   3.870   5.052  17.124  1.2819 -0.0618 -0.1604
 1435TIP3   OH225795   2.159   1.114   0.595 -0.0261 -0.8828  0.0017
 1435TIP3    H125796   2.154   1.190   0.652 -0.3543 -1.2624  0.4858
 1435TIP3    H225797   2.132   1.147   0.509  0.7393 -0.2495 -0.0056
 1436TIP3   OH225798   1.938   3.413  12.385  0.4358  0.1567 -0.4788
 1436TIP3    H125799   1.855   3.459  12.377  0.3890  0.1919  0.1449
 1436TIP3    H225800   1.958   3.382  12.297 -0.7800 -0.7866 -0.4410
 1437TIP3   OH225801   3.344   6.459  14.230  0.1425  0.0519  0.1153
 1437TIP3    H125802   3.262   6.450  14.279  0.6385 -0.7751  0.8091
 1437TIP3    H225803   3.379   6.544  14.257 -0.6617  0.5886 -0.4782
 1438TIP3   OH225804   5.761   2.425   4.271  0.4155  0.3525  0.1182
 1438TIP3    H125805   5.695   2.372   4.315  1.1687 -0.0334  0.8341
 1438TIP3    H225806   5.712   2.482   4.212 -0.4225 -1.1361 -0.6732
 1439TIP3   OH225807   0.067   5.374  13.232  0.6780  0.0377 -0.3594
 1439TIP3    H125808  -0.016   5.391  13.187  1.1020  0.3071 -1.0561
 1439TIP3    H225809   0.097   5.291  13.194  0.1716 -0.6734  0.7330
 1440TIP3   OH225810   6.504   4.614  10.760  0.0230 -0.0794 -0.3534
 1440TIP3    H125811   6.434   4.648  10.704  0.1370  0.3638 -0.2319
 1440TIP3    H225812   6.536   4.536  10.714  0.6045  0.6807 -1.2950
 1441TIP3   OH225813   4.426   4.766   4.652  0.0694  0.3146  0.3681
 1441TIP3    H125814   4.415   4.672   4.635 -0.2745  0.3091  0.6095
 1441TIP3    H225815   4.391   4.778   4.740 -0.4835  0.7787  0.0918
 1442TIP3   OH225816   4.659   3.545  15.302  0.3374 -0.5530 -0.0232
 1442TIP3    H125817   4.584   3.557  15.361  0.9930 -1.3223  1.0070
 1442TIP3    H225818   4.724   3.608  15.334  0.2517 -0.0849 -0.7409
 1443TIP3   OH225819   1.868   4.157  15.336  0.1599 -0.1431  0.4346
 1443TIP3    H125820   1.827   4.072  15.354 -1.0442 -0.2384 -2.2575
 1443TIP3    H225821   1.803   4.221  15.364  0.8230 -0.0577  1.9007
 1444TIP3   OH225822   2.155   1.723   0.510  0.1055 -0.1795 -0.0020
 1444TIP3    H125823   2.245   1.697   0.531 -0.2986 -0.3449  1.7077
 1444TIP3    H225824   2.128   1.777   0.584 -0.3684  2.0410 -1.6958
 1445TIP3   OH225825   5.526   1.161   1.245  0.5186 -0.1135 -0.4158
 1445TIP3    H125826   5.613   1.198   1.233  0.4322 -0.0609 -0.8908
 1445TIP3    H225827   5.529   1.077   1.199  0.9550 -1.0820  1.2731
 1446TIP3   OH225828   3.199   2.145  15.447  0.1134  0.8546 -0.7996
 1446TIP3    H125829   3.278   2.114  15.493 -1.3879  1.2821  2.2651
 1446TIP3    H225830   3.151   2.065  15.426  0.5517  0.6803 -1.1514
 1447TIP3   OH225831   0.195   6.246   0.523 -0.0625  0.4483 -0.3550
 1447TIP3    H125832   0.129   6.178   0.537  0.3756  0.2839  1.0478
 1447TIP3    H225833   0.218   6.239   0.430 -0.7613 -0.6373 -0.4558
 1448TIP3   OH225834   3.425   0.635   5.541 -0.6036  0.1976 -0.0912
 1448TIP3    H125835   3.355   0.693   5.513 -1.1313 -0.3027  0.1732
 1448TIP3    H225836   3.381   0.565   5.589  0.2835  1.7067  3.2974
 1449TIP3   OH225837   4.902   3.994   4.492 -0.2637 -0.5492 -0.2613
 1449TIP3    H125838   4.922   4.087   4.475 -2.0324 -0.2614 -0.9229
 1449TIP3    H225839   4.967   3.946   4.441  0.4353  0.3236 -0.2215
 1450TIP3   OH225840   1.851   4.943   5.294 -0.2313 -0.4795 -0.1916
 1450TIP3    H125841   1.766   4.968   5.331 -0.0425  0.2100 -0.2069
 1450TIP3    H225842   1.915   4.982   5.353  0.0740 -0.6926 -0.3810
 1451TIP3   OH225843   4.181   6.105   4.509  0.4314 -0.1745 -0.1130
 1451TIP3    H125844   4.182   6.015   4.476 -3.1388 -0.1034 -0.8875
 1451TIP3    H225845   4.179   6.095   4.604  2.4741 -0.7452 -0.0886
 1452TIP3   OH225846   0.039   4.254   2.937  0.0392  0.4888  0.0297
 1452TIP3    H125847   0.101   4.270   2.866 -0.7679 -2.6130 -1.5666
 1452TIP3    H225848   0.039   4.159   2.949 -0.5849  0.7933  3.6166
 1453TIP3   OH225849   6.800   5.931   0.900 -0.7721  0.5897  0.1401
 1453TIP3    H125850   6.886   5.955   0.933 -1.3657  1.0211  1.4460
 1453TIP3    H225851   6.816   5.856   0.842  0.6144  1.5107 -0.7130
 1454TIP3   OH225852   5.509   0.627   5.584 -0.5158  0.1336 -0.1769
 1454TIP3    H125853   5.441   0.559   5.591 -0.1709 -0.1581  0.4246
 1454TIP3    H225854   5.591   0.578   5.576 -0.1762  0.4615  1.1127
 1455TIP3   OH225855   3.650   4.652  10.512  0.5971 -0.0902 -0.9477
 1455TIP3    H125856   3.677   4.743  10.499  0.3082 -0.1283 -1.9410
 1455TIP3    H225857   3.555   4.655  10.514  0.5812 -0.0231  2.0499
 1456TIP3   OH225858   3.462   1.749   1.188 -0.0691 -0.3802  0.0703
 1456TIP3    H125859   3.463   1.654   1.204 -1.8745 -0.6354 -1.1129
 1456TIP3    H225860   3.432   1.758   1.098  2.7179  1.2638 -0.8092
 1457TIP3   OH225861   3.217   5.163   4.222 -0.0771  0.6933 -0.2214
 1457TIP3    H125862   3.176   5.153   4.308  0.8684 -0.1696  0.1535
 1457TIP3    H225863   3.156   5.121   4.162 -0.9562  1.6837 -0.0566
 1458TIP3   OH225864   4.013   6.779   1.273  0.3044 -0.4511  0.5621
 1458TIP3    H125865   4.104   6.769   1.301  1.5667  0.2968 -2.8289
 1458TIP3    H225866   3.995   6.873   1.286  1.3685  0.2047 -2.0575
 1459TIP3   OH225867   2.109   1.711   6.080  0.9298  0.5375 -0.4174
 1459TIP3    H125868   2.197   1.718   6.117  0.5213  1.4327  0.4152
 1459TIP3    H225869   2.061   1.785   6.117 -0.7426 -1.0057  0.7394
 1460TIP3   OH225870   2.610   2.257   5.222 -0.4966  0.7020  0.3300
 1460TIP3    H125871   2.630   2.223   5.135 -1.0022  1.7663 -0.2253
 1460TIP3    H225872   2.638   2.188   5.282 -0.1770 -0.0670 -0.6746
 1461TIP3   OH225873   6.798   1.064   3.104 -0.4254  0.1217 -0.1114
 1461TIP3    H125874   6.763   1.048   3.191 -0.0988  2.0819  0.4249
 1461TIP3    H225875   6.891   1.081   3.117 -0.0127 -1.1759 -1.0716
 1462TIP3   OH225876   0.170   2.089  12.084  0.2038  0.0054  0.2960
 1462TIP3    H125877   0.213   2.068  12.002 -2.0240 -2.9639 -0.2681
 1462TIP3    H225878   0.224   2.047  12.151 -0.0192 -0.8904 -0.0719
 1463TIP3   OH225879   5.581   4.813   0.403  0.0802 -0.0832 -0.3923
 1463TIP3    H125880   5.601   4.736   0.350 -0.9889  0.8065 -2.1900
 1463TIP3    H225881   5.665   4.858   0.414  0.7193 -1.4307  0.6799
 1464TIP3   OH225882   4.748   2.551  11.662  0.6518 -0.2394 -1.0237
 1464TIP3    H125883   4.669   2.599  11.635  1.2564  0.3722 -1.7735
 1464TIP3    H225884   4.715   2.477  11.712 -0.3837  0.2131 -0.9996
 1465TIP3   OH225885   5.683   1.365   0.105 -0.3484  0.1116  0.2624
 1465TIP3    H125886   5.652   1.286   0.149 -1.3266  0.3584  0.0363
 1465TIP3    H225887   5.616   1.431   0.124  0.8723  1.1339  1.1566
 1466TIP3   OH225888   0.472   0.881   0.995 -1.3440  0.2878 -0.5082
 1466TIP3    H125889   0.388   0.920   1.019 -0.5108  1.0080  1.3245
 1466TIP3    H225890   0.533   0.954   0.993 -0.5700 -0.3590 -1.0065
 1467TIP3   OH225891   6.515   1.374   0.181  0.2593 -0.1206  0.7771
 1467TIP3    H125892   6.603   1.348   0.153  1.5165  1.4221  3.0105
 1467TIP3    H225893   6.488   1.306   0.243  1.2056  0.9181  2.3872
 1468TIP3   OH225894   1.446   6.636   3.410 -0.4122 -0.2053 -0.2157
 1468TIP3    H125895   1.371   6.646   3.351 -0.7216  0.2579  0.2463
 1468TIP3    H225896   1.448   6.543   3.431  0.3177 -0.5606 -1.7605
 1469TIP3   OH225897   4.820   6.225   0.882 -0.1862  0.1473 -0.3025
 1469TIP3    H125898   4.905   6.238   0.925  1.1748 -0.1631 -2.7428
 1469TIP3    H225899   4.765   6.294   0.918  1.4538  1.1185  0.4807
 1470TIP3   OH225900   4.908   0.135  14.766  0.4485  0.4399  0.1010
 1470TIP3    H125901   4.927   0.229  14.758 -0.8144  0.6530 -0.6202
 1470TIP3    H225902   4.910   0.102  14.677  0.2370 -0.0845  0.2856
 1471TIP3   OH225903   4.130   6.663   3.637  0.3829 -0.7577 -0.4715
 1471TIP3    H125904   4.125   6.735   3.574  3.0233  0.3195  0.4173
 1471TIP3    H225905   4.045   6.663   3.681 -0.1480  0.9207 -1.4168
 1472TIP3   OH225906   3.890   2.263   4.717 -0.3384  0.2213  0.1308
 1472TIP3    H125907   3.820   2.244   4.654  1.8090  1.0234 -2.7454
 1472TIP3    H225908   3.929   2.345   4.685  1.8381 -0.1474  1.6091
 1473TIP3   OH225909   1.822   6.021  15.206  0.1851  0.3258  0.0179
 1473TIP3    H125910   1.733   6.049  15.188  0.4752  0.2840 -1.6439
 1473TIP3    H225911   1.876   6.071  15.145  1.1741 -0.4510  0.2235
 1474TIP3   OH225912   2.366   2.557   4.965  0.1467  0.2598  0.2115
 1474TIP3    H125913   2.312   2.576   5.042 -0.0836 -0.1242  0.1480
 1474TIP3    H225914   2.335   2.618   4.898  0.7628  1.0166  0.6010
 1475TIP3   OH225915   3.703   1.655   1.733 -0.4685  0.0335  0.6365
 1475TIP3    H125916   3.622   1.696   1.703 -0.3011  0.7839  1.1842
 1475TIP3    H225917   3.686   1.632   1.825 -0.0164  0.3198  0.7939
 1476TIP3   OH225918   0.629   6.175  16.898  0.1425 -0.1097 -0.1632
 1476TIP3    H125919   0.568   6.145  16.965  1.5006  1.1426  1.7616
 1476TIP3    H225920   0.715   6.147  16.930  1.0659  2.4727 -0.1579
 1477TIP3   OH225921   1.400   1.603   5.250 -0.1359  0.0752  0.3578
 1477TIP3    H125922   1.322   1.588   5.303 -0.3503 -1.4422 -0.3269
 1477TIP3    H225923   1.472   1.564   5.300  0.7991  3.8459  2.3271
 1478TIP3   OH225924   0.551   5.591   3.944  0.0569  0.0899 -0.1748
 1478TIP3    H125925   0.554   5.604   4.039  0.6851 -0.4048 -0.1162
 1478TIP3    H225926   0.493   5.517   3.932 -0.5344  0.5549 -0.2302
 1479TIP3   OH225927   5.386   0.359  12.547  0.0376 -0.5681 -0.7165
 1479TIP3    H125928   5.466   0.307  12.552  0.6328  0.0960 -2.4500
 1479TIP3    H225929   5.331   0.312  12.484  0.3720  0.5516 -1.9015
 1480TIP3   OH225930   3.681   3.375  11.998 -0.5231 -0.2102  0.0479
 1480TIP3    H125931   3.775   3.389  12.003 -0.4800 -0.4515 -0.0770
 1480TIP3    H225932   3.659   3.329  12.079 -0.2795 -1.5634 -0.6412
 1481TIP3   OH225933   0.641   0.372  11.275  0.3171 -0.3063 -0.4938
 1481TIP3    H125934   0.680   0.455  11.245  3.6938 -1.2846  0.7288
 1481TIP3    H225935   0.703   0.339  11.340 -1.1305 -3.6068 -0.6193
 1482TIP3   OH225936   1.035   0.575  12.579 -0.5538  0.4938  0.5500
 1482TIP3    H125937   0.957   0.615  12.540 -0.5876  2.0149  2.0967
 1482TIP3    H225938   1.012   0.482  12.589 -1.0788  0.3358 -1.5967
 1483TIP3   OH225939   1.040   1.604  14.846 -0.5731 -0.1038  0.4647
 1483TIP3    H125940   1.100   1.561  14.908  0.8355 -0.2931 -0.9547
 1483TIP3    H225941   0.958   1.612  14.894 -0.2477 -2.3903  1.5686
 1484TIP3   OH225942   4.236   4.627  15.361 -0.1689  0.4728 -0.5485
 1484TIP3    H125943   4.198   4.669  15.283 -0.7991 -0.3257 -0.6898
 1484TIP3    H225944   4.160   4.590  15.407  0.3242 -0.1619 -0.2315
 1485TIP3   OH225945   1.626   1.255   1.560  0.4140  1.0741 -0.6196
 1485TIP3    H125946   1.705   1.209   1.589  0.3267  0.4017 -1.4139
 1485TIP3    H225947   1.607   1.217   1.474 -0.1185  2.0411 -0.9362
 1486TIP3   OH225948   3.668   2.422  12.847  0.0842  0.3144 -0.3374
 1486TIP3    H125949   3.677   2.393  12.756  0.6107 -0.5186 -0.0268
 1486TIP3    H225950   3.646   2.343  12.896  0.7133  0.5733  0.3941
 1487TIP3   OH225951   6.769   2.945   4.942  0.1243  0.1868  0.2954
 1487TIP3    H125952   6.772   3.032   4.901  0.5251  0.6306  1.2479
 1487TIP3    H225953   6.840   2.946   5.006  1.3652 -1.5285 -0.9687
 1488TIP3   OH225954   3.055   5.489  11.912 -0.4222 -0.4412  0.1133
 1488TIP3    H125955   3.053   5.409  11.858 -1.5589 -1.3268  1.4011
 1488TIP3    H225956   3.143   5.492  11.947  0.6116  0.5880 -2.3520
 1489TIP3   OH225957   4.894   5.039   6.177  0.2876 -0.2982 -0.6987
 1489TIP3    H125958   4.979   5.082   6.164  0.1655  0.4673  0.8270
 1489TIP3    H225959   4.831   5.095   6.132  0.1562  1.1224  1.1222
 1490TIP3   OH225960   3.534   6.287  14.116 -0.4717 -0.0787  1.0138
 1490TIP3    H125961   3.464   6.345  14.142  0.8759  1.1428  2.0575
 1490TIP3    H225962   3.614   6.331  14.144  0.9299 -0.2332 -2.2383
 1491TIP3   OH225963   0.110   4.759   1.165  0.1442  0.3007 -0.0085
 1491TIP3    H125964   0.119   4.784   1.073 -0.1734  1.1882  0.1971
 1491TIP3    H225965   0.079   4.838   1.209 -4.0762 -1.1803  0.1402
 1492TIP3   OH225966   2.135   0.577   0.669 -0.5068 -0.2958  0.6970
 1492TIP3    H125967   2.161   0.628   0.746 -2.2045 -1.2619  2.0103
 1492TIP3    H225968   2.043   0.553   0.686 -0.3452 -2.1931 -0.7019
 1493TIP3   OH225969   6.089   1.754  15.200  0.3850 -0.0129  0.6265
 1493TIP3    H125970   6.014   1.778  15.145  0.3190 -0.9794  0.2676
 1493TIP3    H225971   6.103   1.661  15.182  1.4972  0.0831  0.9009
 1494TIP3   OH225972   5.579   1.746   0.692 -0.2824 -0.0257  0.8935
 1494TIP3    H125973   5.661   1.786   0.665 -0.5384 -0.9297 -1.5358
 1494TIP3    H225974   5.523   1.819   0.719 -0.0122  1.0782 -1.3325
 1495TIP3   OH225975   1.431   1.625  15.207  0.5117  0.4032 -0.2109
 1495TIP3    H125976   1.472   1.709  15.230  0.1763  0.4951  0.0478
 1495TIP3    H225977   1.505   1.565  15.198  0.6594  0.3600  1.1004
 1496TIP3   OH225978   5.389   6.756  15.857 -0.2193  0.2703  0.7212
 1496TIP3    H125979   5.436   6.836  15.882  0.5171  0.0149  0.1638
 1496TIP3    H225980   5.328   6.785  15.789  1.3900  0.0442 -0.8932
 1497TIP3   OH225981   2.168   3.875   3.190  0.9470  0.1285  0.2071
 1497TIP3    H125982   2.169   3.860   3.285 -1.1488 -1.2762  0.0713
 1497TIP3    H225983   2.076   3.894   3.170  1.6293  2.0414 -1.3503
 1498TIP3   OH225984   0.292   4.351   4.942  0.1062  0.5873 -0.4275
 1498TIP3    H125985   0.327   4.263   4.929 -0.9080  0.0059  0.5941
 1498TIP3    H225986   0.352   4.393   5.004  0.5510  0.5926 -0.8625
 1499TIP3   OH225987   3.621   4.863  17.175  0.0203  0.2027 -0.3761
 1499TIP3    H125988   3.604   4.829  17.263  0.8270  0.1206 -0.2518
 1499TIP3    H225989   3.681   4.936  17.188 -0.0368  0.3370 -0.8412
 1500TIP3   OH225990   6.311   4.688  10.553 -0.3270 -0.6521  0.4464
 1500TIP3    H125991   6.319   4.661  10.461  0.5391  0.2196  0.2496
 1500TIP3    H225992   6.321   4.783  10.551  1.9443 -0.8043  1.6638
 1501TIP3   OH225993   0.517   5.826  14.562 -0.3567 -0.2742  0.2858
 1501TIP3    H125994   0.546   5.878  14.487 -1.5196 -0.7120 -0.4906
 1501TIP3    H225995   0.504   5.891  14.632 -2.9517  0.7131 -1.0106
 1502TIP3   OH225996   6.001   4.966   4.877  0.5253 -0.0090 -0.0799
 1502TIP3    H125997   5.979   5.055   4.849  0.7962  0.1274  0.1352
 1502TIP3    H225998   6.053   4.978   4.957 -1.3789 -0.4316  1.2718
 1503TIP3   OH225999   2.134   0.552   3.901  0.3594 -0.6570 -0.2983
 1503TIP3    H126000   2.085   0.575   3.822  0.3970  2.7095  0.5159
 1503TIP3    H226001   2.211   0.608   3.899  2.5897 -3.4444  0.1552
 1504TIP3   OH226002   6.134   0.488   2.815 -0.4644 -0.6809 -0.1692
 1504TIP3    H126003   6.178   0.495   2.900  0.2006  0.8013 -0.5888
 1504TIP3    H226004   6.044   0.463   2.836 -0.3783 -0.0767  1.0039
 1505TIP3   OH226005   3.858   0.502  11.191  0.1087 -0.3397 -0.1542
 1505TIP3    H126006   3.869   0.408  11.201 -1.5728 -0.4404  1.1642
 1505TIP3    H226007   3.946   0.539  11.207  0.6083 -1.6163  0.1474
 1506TIP3   OH226008   5.102   2.938   6.441  0.2182  0.0328  0.2152
 1506TIP3    H126009   5.018   2.930   6.397 -0.3076  1.5382  0.8889
 1506TIP3    H226010   5.121   3.032   6.440  1.4281 -0.1809  0.9251
 1507TIP3   OH226011   2.217   3.362   0.580 -0.5372  0.3806  0.1614
 1507TIP3    H126012   2.299   3.313   0.592  0.2848  1.4478 -0.8507
 1507TIP3    H226013   2.149   3.303   0.614  0.7187 -0.1976  1.8185
 1508TIP3   OH226014   0.982   1.731  13.945 -0.5766  0.5330 -0.4295
 1508TIP3    H126015   0.942   1.812  13.975 -1.1142 -0.1513  0.8042
 1508TIP3    H226016   1.062   1.759  13.900 -1.8917  1.8615 -2.0714
 1509TIP3   OH226017   0.783   3.493   1.899 -0.5727 -0.5940 -0.2934
 1509TIP3    H126018   0.717   3.508   1.832  0.6736 -2.5194 -2.0750
 1509TIP3    H226019   0.841   3.569   1.893 -0.7310 -0.5271 -1.1035
 1510TIP3   OH226020   5.325   6.039   2.387  0.8745 -0.0990 -0.4699
 1510TIP3    H126021   5.400   5.983   2.370  0.6530 -0.4303 -0.3615
 1510TIP3    H226022   5.260   6.014   2.321  0.4015 -0.6767  0.1928
 1511TIP3   OH226023   3.948   6.078   6.196  0.4133 -0.4783  0.3042
 1511TIP3    H126024   3.876   6.015   6.198 -0.5622  0.5966 -0.0279
 1511TIP3    H226025   3.997   6.061   6.276 -1.3672  0.0741  1.5785
 1512TIP3   OH226026   4.029   2.240   1.092  0.3953  0.6180 -0.0640
 1512TIP3    H126027   4.107   2.287   1.123 -0.2327  1.6375  0.0385
 1512TIP3    H226028   4.017   2.270   1.002 -0.2496  0.9779  0.1364
 1513TIP3   OH226029   2.634   1.356   3.584  0.4303  0.3426  0.5252
 1513TIP3    H126030   2.623   1.276   3.634 -0.6514 -0.2642 -0.6346
 1513TIP3    H226031   2.729   1.369   3.580  0.6262 -1.0027  0.5408
 1514TIP3   OH226032   0.106   6.094  11.114  0.3175  0.4258  0.0506
 1514TIP3    H126033   0.103   6.082  11.209  0.1992  1.6140  0.2163
 1514TIP3    H226034   0.036   6.037  11.081 -1.5189  2.0335  0.9393
 1515TIP3   OH226035   3.455   1.666  11.148 -0.3583  0.0143  0.2226
 1515TIP3    H126036   3.394   1.690  11.078  0.3545  0.6176 -0.1986
 1515TIP3    H226037   3.541   1.671  11.108  0.0714  0.4945  1.1800
 1516TIP3   OH226038   5.991   4.957  15.062  0.0963 -0.3386 -0.2539
 1516TIP3    H126039   6.013   4.867  15.041  0.9423 -0.3402  0.5601
 1516TIP3    H226040   6.048   5.009  15.006  1.0666 -0.3389  0.6870
 1517TIP3   OH226041   4.758   0.833  12.301  0.7274 -0.3004  0.4035
 1517TIP3    H126042   4.697   0.767  12.269  1.5731 -0.0403 -1.9185
 1517TIP3    H226043   4.805   0.790  12.373  0.0301 -1.6002  0.1069
 1518TIP3   OH226044   2.454   3.617   5.232  0.4955  0.4499 -0.3927
 1518TIP3    H126045   2.405   3.593   5.153 -0.8280  0.9710  0.2252
 1518TIP3    H226046   2.527   3.669   5.201  0.4235  0.0104 -1.3309
 1519TIP3   OH226047   5.436   0.396   5.092 -0.1971 -0.2269 -0.2439
 1519TIP3    H126048   5.492   0.339   5.040 -1.9824 -2.5026  0.1198
 1519TIP3    H226049   5.393   0.453   5.028  0.6182 -0.2017 -0.7792
 1520TIP3   OH226050   1.862   3.303  16.171  0.1624 -0.5590 -0.1711
 1520TIP3    H126051   1.799   3.351  16.116 -2.4211  0.6159  3.4668
 1520TIP3    H226052   1.937   3.289  16.113 -1.8001  1.5591 -3.6125
 1521TIP3   OH226053   0.805   4.348  15.369  0.3740  0.3188 -0.0005
 1521TIP3    H126054   0.738   4.392  15.421 -0.7951 -0.9098 -0.4016
 1521TIP3    H226055   0.757   4.307  15.297  1.4895 -0.9436 -0.0849
 1522TIP3   OH226056   1.829   3.073  11.056 -0.1919 -0.2204  0.0321
 1522TIP3    H126057   1.853   3.146  11.114  0.2302 -0.4710  0.1785
 1522TIP3    H226058   1.785   3.115  10.982  0.4221  0.2343 -0.0904
 1523TIP3   OH226059   3.641   1.507   3.221  0.2050  0.6779  0.4514
 1523TIP3    H126060   3.621   1.432   3.278 -0.4170  0.3621 -0.1569
 1523TIP3    H226061   3.732   1.528   3.239  0.5827 -0.6511  0.1562
 1524TIP3   OH226062   6.520   6.548   2.967 -0.3900  0.5114 -0.3470
 1524TIP3    H126063   6.576   6.501   3.028 -0.1292 -0.7963 -1.5459
 1524TIP3    H226064   6.440   6.497   2.963 -0.9102  1.2994 -0.1310
 1525TIP3   OH226065   1.051   4.431  11.160  0.5089  0.1157 -0.2815
 1525TIP3    H126066   0.956   4.439  11.168  0.4109 -0.1008 -1.1727
 1525TIP3    H226067   1.076   4.370  11.229  0.1282  0.8849  0.5660
 1526TIP3   OH226068   0.916   3.355  15.519 -0.5146  0.0361  0.2694
 1526TIP3    H126069   0.977   3.282  15.511 -0.1613  0.2941  0.5362
 1526TIP3    H226070   0.972   3.432  15.531 -0.8864  0.3042  0.3247
 1527TIP3   OH226071   3.740   2.715  11.488  0.1097 -0.6351 -0.5366
 1527TIP3    H126072   3.709   2.785  11.546  0.2922  0.3422 -1.5697
 1527TIP3    H226073   3.818   2.680  11.533  0.0674 -0.1181 -0.0405
 1528TIP3   OH226074   3.988   0.184  11.644  0.6899 -0.4488 -0.3899
 1528TIP3    H126075   3.925   0.112  11.654  1.6637 -1.3921 -0.7590
 1528TIP3    H226076   4.073   0.144  11.665  0.9632  1.3148  2.3123
 1529TIP3   OH226077   6.371   2.066  13.455 -0.2552  0.4732  0.9930
 1529TIP3    H126078   6.317   2.127  13.406  0.5569  1.5348  1.3761
 1529TIP3    H226079   6.393   1.998  13.392 -1.1962  0.5509  0.5660
 1530TIP3   OH226080   6.311   1.592   1.969 -0.0495 -0.1944 -0.3961
 1530TIP3    H126081   6.283   1.670   2.017 -0.5199 -0.3278 -0.4498
 1530TIP3    H226082   6.275   1.603   1.881  0.0828 -0.3606 -0.4725
 1531TIP3   OH226083   2.671   4.721  13.942 -0.4812  0.0583 -0.2174
 1531TIP3    H126084   2.689   4.702  14.035  0.2052  0.5444 -0.2401
 1531TIP3    H226085   2.606   4.790  13.944 -2.9196 -2.0774 -0.1314
 1532TIP3   OH226086   3.353   0.904   1.388  0.7049  0.6808  0.1626
 1532TIP3    H126087   3.265   0.920   1.421  0.7456 -0.1259  0.6997
 1532TIP3    H226088   3.341   0.846   1.313  0.8722 -1.3752  1.6167
 1533TIP3   OH226089   5.213   5.363   3.395  0.0733  0.2430 -0.3761
 1533TIP3    H126090   5.185   5.322   3.313 -1.0457  1.2144 -0.5133
 1533TIP3    H226091   5.175   5.308   3.463 -0.3772  0.3398 -0.5416
 1534TIP3   OH226092   3.995   3.194  16.871 -0.4909  0.9326  0.0441
 1534TIP3    H126093   4.068   3.218  16.814 -0.3290  1.9776  0.6630
 1534TIP3    H226094   4.029   3.123  16.925 -0.6832 -0.1475 -1.2083
 1535TIP3   OH226095   2.210   5.979   2.994 -0.0732 -0.3276 -0.1438
 1535TIP3    H126096   2.191   6.041   3.064 -2.4257  0.2836 -1.2156
 1535TIP3    H226097   2.201   5.893   3.035 -0.0060  0.0347  0.6351
 1536TIP3   OH226098   0.266   5.148  13.182  0.3000  0.1343 -0.6334
 1536TIP3    H126099   0.333   5.092  13.222  1.8548  0.1992 -2.9942
 1536TIP3    H226100   0.305   5.236  13.182 -1.5440  1.0759  1.7337
 1537TIP3   OH226101   4.242   2.028   5.230  0.5728 -0.3616 -0.6847
 1537TIP3    H126102   4.272   1.937   5.240 -1.1826 -0.7167  2.1542
 1537TIP3    H226103   4.176   2.024   5.161  0.0811 -1.3532 -0.1666
 1538TIP3   OH226104   5.540   3.587  16.873  0.1647  0.1861  0.3076
 1538TIP3    H126105   5.491   3.649  16.819 -1.0992 -1.0674 -0.0488
 1538TIP3    H226106   5.547   3.508  16.819  2.6934  0.3160  0.3219
 1539TIP3   OH226107   3.020   1.223  14.749  0.1777 -0.1534  0.2006
 1539TIP3    H126108   2.957   1.271  14.695  0.8084 -0.1195 -0.5124
 1539TIP3    H226109   2.983   1.228  14.838  0.1637  1.5772  0.1415
 1540TIP3   OH226110   5.487   0.344   2.350  0.2373  0.4168  0.2204
 1540TIP3    H126111   5.471   0.374   2.439  1.7828  0.8571  0.3869
 1540TIP3    H226112   5.478   0.248   2.355  0.2190  0.4501  0.8373
 1541TIP3   OH226113   2.982   4.691  16.554  0.1530  0.0549 -0.1038
 1541TIP3    H126114   2.959   4.671  16.463  0.0672  1.1632 -0.3319
 1541TIP3    H226115   2.938   4.623  16.605 -0.0299 -0.4113 -0.8664
 1542TIP3   OH226116   5.360   6.113  11.582  0.0259  0.1273  0.0415
 1542TIP3    H126117   5.329   6.163  11.506 -1.0256  1.6195  1.3943
 1542TIP3    H226118   5.284   6.108  11.640  0.9255 -0.5930  1.1982
 1543TIP3   OH226119   5.003   6.736   0.286 -0.2260  0.2101 -0.0244
 1543TIP3    H126120   4.979   6.802   0.220 -0.5214  0.2407  0.1131
 1543TIP3    H226121   5.088   6.765   0.318 -0.7544  1.0470  0.6958
 1544TIP3   OH226122   3.228   3.293   0.487  0.6459 -0.3033 -0.3242
 1544TIP3    H126123   3.148   3.240   0.479 -0.4917  1.4114 -0.7979
 1544TIP3    H226124   3.277   3.273   0.407  0.6813 -1.3255 -0.0577
 1545TIP3   OH226125   6.729   4.724   0.550 -0.5807 -0.3660  0.2180
 1545TIP3    H126126   6.755   4.794   0.610 -0.2409 -0.1251 -0.1966
 1545TIP3    H226127   6.634   4.728   0.547 -0.5689  0.0126  0.2812
 1546TIP3   OH226128   1.729   3.314  12.652  0.2691  0.4155  0.3123
 1546TIP3    H126129   1.738   3.348  12.741  0.0985 -2.9332  1.7623
 1546TIP3    H226130   1.805   3.258  12.640 -0.6658 -0.6711 -0.8934
 1547TIP3   OH226131   6.500   6.220  11.192 -0.2190  0.5104  0.4696
 1547TIP3    H126132   6.405   6.234  11.198 -0.2248  0.6753  0.0171
 1547TIP3    H226133   6.518   6.153  11.259 -0.7681 -0.0407  0.0798
 1548TIP3   OH226134   3.258   3.366  13.552  0.0257 -0.2965  0.0380
 1548TIP3    H126135   3.285   3.429  13.484 -0.8313  0.4964  0.4050
 1548TIP3    H226136   3.228   3.290  13.503 -2.0747  0.8520 -0.6038
 1549TIP3   OH226137   1.878   6.658   0.167 -0.3623  1.0891  1.0184
 1549TIP3    H126138   1.940   6.679   0.237 -1.0076 -0.2922  2.0419
 1549TIP3    H226139   1.933   6.628   0.095  0.1892 -0.7718  2.1440
 1550TIP3   OH226140   0.388   3.254   5.120 -0.1752  0.0382  0.2575
 1550TIP3    H126141   0.413   3.315   5.050 -1.7939 -1.2936 -1.5702
 1550TIP3    H226142   0.303   3.285   5.150 -1.0065 -1.2560 -0.6784
 1551TIP3   OH226143   1.744   0.919  16.932  0.2052 -0.0859  0.3093
 1551TIP3    H126144   1.796   0.953  16.859  1.7458 -1.6179  0.6356
 1551TIP3    H226145   1.654   0.915  16.898  0.0059  3.5421  0.0441
 1552TIP3   OH226146   4.099   5.116   1.141 -0.2980  0.0467  0.0618
 1552TIP3    H126147   4.071   5.034   1.101 -0.4209 -0.8547  1.8954
 1552TIP3    H226148   4.170   5.147   1.085 -1.5571 -0.2428 -1.7875
 1553TIP3   OH226149   1.138   6.624  13.812 -0.2991 -0.2965  0.0429
 1553TIP3    H126150   1.172   6.691  13.752 -1.3718 -1.6330 -2.1626
 1553TIP3    H226151   1.048   6.608  13.782 -0.3719 -2.0928  1.0729
 1554TIP3   OH226152   0.339   1.816  11.553  0.0664  0.5734 -0.2920
 1554TIP3    H126153   0.384   1.893  11.519  1.2977 -0.1855 -0.4677
 1554TIP3    H226154   0.246   1.834  11.541  0.3946  1.0425 -2.5129
 1555TIP3   OH226155   0.696   1.443  13.061  0.5961  0.2919 -0.4572
 1555TIP3    H126156   0.646   1.426  13.141 -0.9681 -0.2044 -1.4989
 1555TIP3    H226157   0.651   1.517  13.020  0.7716 -0.1001 -1.3789
 1556TIP3   OH226158   1.960   2.280   1.818 -0.3396 -0.2469 -0.2644
 1556TIP3    H126159   2.020   2.275   1.743  0.5417 -1.7463  0.4945
 1556TIP3    H226160   1.882   2.233   1.789 -0.1090 -0.5853 -0.3438
 1557TIP3   OH226161   3.399   5.391  14.212 -0.5789 -0.4567 -0.2404
 1557TIP3    H126162   3.356   5.407  14.296 -0.6181 -0.2464 -0.2998
 1557TIP3    H226163   3.417   5.297  14.212 -2.2208 -0.8149 -0.7723
 1558TIP3   OH226164   5.265   2.840   2.454  0.9059  0.4133  0.1164
 1558TIP3    H126165   5.287   2.839   2.547  1.1140  3.0638  0.1555
 1558TIP3    H226166   5.172   2.862   2.451 -0.0542 -3.0828 -0.2977
 1559TIP3   OH226167   0.821   5.546   4.819  0.2373 -0.1778  0.1643
 1559TIP3    H126168   0.899   5.532   4.873  0.1062  2.6906  1.2852
 1559TIP3    H226169   0.754   5.575   4.881 -0.6980  0.6954 -1.2016
 1560TIP3   OH226170   5.279   2.604   1.316 -0.5862 -0.2486 -0.0736
 1560TIP3    H126171   5.357   2.551   1.331 -1.1580 -0.6040  1.9787
 1560TIP3    H226172   5.240   2.566   1.237  1.4399  0.1581 -1.3511
 1561TIP3   OH226173   4.074   4.541  12.502 -0.3615 -0.0476 -0.8693
 1561TIP3    H126174   4.129   4.618  12.519 -0.5800 -0.0517 -0.1463
 1561TIP3    H226175   4.002   4.576  12.447 -1.8620  0.8484  1.5070
 1562TIP3   OH226176   3.524   6.014  14.092 -0.0150  0.3357 -0.5039
 1562TIP3    H126177   3.548   6.102  14.123 -1.0548  0.4157  0.1001
 1562TIP3    H226178   3.526   6.021  13.997  1.2636  0.6296 -0.4810
 1563TIP3   OH226179   0.594   1.156   3.301  0.0202  0.3016 -0.2993
 1563TIP3    H126180   0.653   1.116   3.365 -0.6733 -1.9332 -0.9581
 1563TIP3    H226181   0.556   1.231   3.348  2.5610  1.2077  0.4627
 1564TIP3   OH226182   4.926   6.343   3.914 -0.2904 -0.5889 -0.1316
 1564TIP3    H126183   5.016   6.313   3.930  0.7186  1.6681 -1.1405
 1564TIP3    H226184   4.933   6.439   3.913 -3.0389 -0.2662  1.4297
 1565TIP3   OH226185   3.642   4.656   3.611  0.1989  0.1456 -0.2184
 1565TIP3    H126186   3.683   4.742   3.613  1.5200 -0.3772 -1.9444
 1565TIP3    H226187   3.592   4.654   3.529 -0.7795 -0.3351  0.3668
 1566TIP3   OH226188   2.721   4.497   4.545  0.3397  0.0387 -0.5167
 1566TIP3    H126189   2.744   4.570   4.602  1.9698  1.2715 -2.5895
 1566TIP3    H226190   2.763   4.421   4.585 -2.2702 -0.1197  2.2652
 1567TIP3   OH226191   4.289   4.811  12.851 -0.5027 -0.9874  0.5093
 1567TIP3    H126192   4.240   4.893  12.853 -0.3748 -0.7280 -2.4051
 1567TIP3    H226193   4.225   4.745  12.827 -0.1460 -1.2987  0.3996
 1568TIP3   OH226194   4.952   1.242   2.268 -0.5958 -0.5721 -0.3462
 1568TIP3    H126195   4.879   1.230   2.208  0.4136 -1.0283 -1.5277
 1568TIP3    H226196   5.020   1.183   2.236  1.0627  1.3281 -0.5714
 1569TIP3   OH226197   6.282   4.174   0.542 -0.4944 -0.5151  0.0529
 1569TIP3    H126198   6.341   4.134   0.606 -0.0185 -0.0516 -0.0954
 1569TIP3    H226199   6.312   4.143   0.457  0.2635  0.6223 -0.1142
 1570TIP3   OH226200   1.556   4.309  14.451 -0.0627 -0.2580  0.6146
 1570TIP3    H126201   1.548   4.220  14.416 -2.0890 -0.2831  1.0237
 1570TIP3    H226202   1.598   4.297  14.537 -0.3630 -0.8189  0.6841
 1571TIP3   OH226203   0.009   4.015  14.430  0.1984  0.0812  0.3156
 1571TIP3    H126204   0.043   4.102  14.413  0.9052  0.1104  1.7871
 1571TIP3    H226205  -0.078   4.029  14.467  0.5240  0.1812  1.0437
 1572TIP3   OH226206   0.493   3.075  14.957  0.3868 -0.4016  0.1292
 1572TIP3    H126207   0.408   3.055  14.917  0.6230  1.3197 -1.3553
 1572TIP3    H226208   0.558   3.045  14.893  0.7735  2.1706 -0.7897
 1573TIP3   OH226209   3.860   4.953  12.922  0.5043 -0.7552 -0.4563
 1573TIP3    H126210   3.825   5.039  12.944  0.5055 -0.8334 -0.1485
 1573TIP3    H226211   3.793   4.891  12.950  0.6999 -0.8810 -0.2616
 1574TIP3   OH226212   0.828   5.133  13.129  0.2268  0.7815  0.6987
 1574TIP3    H126213   0.872   5.140  13.044  0.1572  0.2093  0.6096
 1574TIP3    H226214   0.894   5.160  13.192  0.9014 -0.5584  0.6110
 1575TIP3   OH226215   3.232   3.971  11.534 -0.5842  0.0971  0.4716
 1575TIP3    H126216   3.213   3.908  11.603  0.2665 -0.4265  0.2477
 1575TIP3    H226217   3.300   3.929  11.482  0.0890  1.2385  0.3907
 1576TIP3   OH226218   5.952   4.074   0.164 -0.3618  0.1000  0.5145
 1576TIP3    H126219   5.905   4.129   0.226  0.1812 -0.2099  1.2212
 1576TIP3    H226220   6.029   4.044   0.213  0.3990  0.3318 -0.5007
 1577TIP3   OH226221   4.645   0.084  13.147 -0.6196 -0.4660  0.0365
 1577TIP3    H126222   4.615   0.112  13.234 -0.5134 -1.2184  0.3228
 1577TIP3    H226223   4.638   0.163  13.093 -2.8889 -0.5375  0.1457
 1578TIP3   OH226224   3.973   4.593  10.419 -0.0822 -0.2374  0.1887
 1578TIP3    H126225   4.022   4.653  10.363 -0.9893  0.6059  0.2607
 1578TIP3    H226226   3.923   4.539  10.357  1.0443 -1.2077  0.1110
 1579TIP3   OH226227   4.437   5.950  16.692  0.2794 -0.4039 -0.1553
 1579TIP3    H126228   4.448   5.986  16.780 -0.8038 -2.2748  0.8073
 1579TIP3    H226229   4.352   5.984  16.662  1.2583  1.3449 -1.1025
 1580TIP3   OH226230   6.026   5.563   3.131 -0.0758 -0.3946 -0.0646
 1580TIP3    H126231   5.961   5.579   3.200 -0.6733 -0.9372 -0.4805
 1580TIP3    H226232   5.985   5.597   3.051  0.4223 -0.1732 -0.2308
 1581TIP3   OH226233   6.611   6.053  15.650 -0.5356 -0.0053 -0.1102
 1581TIP3    H126234   6.603   6.148  15.659 -1.4450 -0.2011  1.3621
 1581TIP3    H226235   6.523   6.019  15.666 -0.1420 -1.1290 -0.2356
 1582TIP3   OH226236   6.842   5.133   4.161  0.0632  0.1623  0.5701
 1582TIP3    H126237   6.793   5.178   4.230 -1.6776  0.3347 -0.7330
 1582TIP3    H226238   6.860   5.046   4.198 -1.0141  0.1862  1.1735
 1583TIP3   OH226239   4.824   4.497   2.839  0.5976  0.1022 -0.1590
 1583TIP3    H126240   4.783   4.412   2.854 -0.4595  0.5245 -0.6375
 1583TIP3    H226241   4.873   4.486   2.757 -0.0869  0.1507 -0.5779
 1584TIP3   OH226242   6.659   0.202  16.962 -0.9089  0.7178 -0.2245
 1584TIP3    H126243   6.634   0.248  17.042  3.0210  1.3696  0.8472
 1584TIP3    H226244   6.637   0.110  16.980  0.1119  0.8068  1.7963
 1585TIP3   OH226245   5.887   5.228  14.462 -0.4242 -0.0387 -0.6943
 1585TIP3    H126246   5.882   5.323  14.475  0.9722 -0.0116 -0.1108
 1585TIP3    H226247   5.924   5.218  14.374  3.6671  0.1576  0.7491
 1586TIP3   OH226248   3.154   1.415   2.635 -0.6456 -0.0998  0.1271
 1586TIP3    H126249   3.231   1.388   2.685 -0.3925 -1.6382 -1.0165
 1586TIP3    H226250   3.176   1.502   2.603  0.3089 -0.2039  0.4591
 1587TIP3   OH226251   0.254   1.298  12.011  0.4824  0.8918  0.3703
 1587TIP3    H126252   0.280   1.390  12.001 -2.4363  1.7729 -0.0066
 1587TIP3    H226253   0.196   1.282  11.937  0.3833 -1.0646  0.8252
 1588TIP3   OH226254   5.266   5.735   2.801 -0.0459  0.2585 -0.6610
 1588TIP3    H126255   5.175   5.743   2.771  0.0019  2.1163 -0.4256
 1588TIP3    H226256   5.282   5.816   2.849  0.9388 -1.1250  1.5241
 1589TIP3   OH226257   5.383   4.616   2.912  0.0019 -0.0860  0.0097
 1589TIP3    H126258   5.295   4.585   2.933 -0.6876  1.5775 -0.2951
 1589TIP3    H226259   5.383   4.629   2.817  0.0088  1.4890  0.1976
 1590TIP3   OH226260   1.375   4.454  15.954  0.1649 -0.1389 -1.1546
 1590TIP3    H126261   1.317   4.415  16.020 -0.2287  0.7807 -0.9416
 1590TIP3    H226262   1.423   4.380  15.918 -1.1916 -0.9483 -1.3828
 1591TIP3   OH226263   1.025   5.176   4.990  0.7431  0.4416 -0.4494
 1591TIP3    H126264   1.112   5.162   5.028  0.4614  0.8703  0.3830
 1591TIP3    H226265   0.986   5.244   5.044 -0.0921  0.3075 -0.8630
 1592TIP3   OH226266   4.433   6.015  14.270  0.0044  0.5122  0.2913
 1592TIP3    H126267   4.440   6.110  14.267  1.8643  0.3754 -1.2775
 1592TIP3    H226268   4.513   5.983  14.229  1.2916 -1.8015  4.0717
 1593TIP3   OH226269   3.837   1.894  12.225  0.2569  0.2090 -0.7879
 1593TIP3    H126270   3.771   1.959  12.247  0.1864 -0.6083  1.7245
 1593TIP3    H226271   3.787   1.818  12.195 -0.0348 -0.5270  1.4289
 1594TIP3   OH226272   4.981   5.440  12.775  0.0222 -0.0906  0.2914
 1594TIP3    H126273   4.898   5.480  12.750  1.7181  2.8339 -1.2435
 1594TIP3    H226274   5.015   5.496  12.844  1.4503 -0.2024 -0.2748
 1595TIP3   OH226275   6.048   1.361   0.205  0.3436 -0.1030 -0.0715
 1595TIP3    H126276   5.988   1.436   0.201 -0.3073 -0.5611  0.8080
 1595TIP3    H226277   5.993   1.287   0.230  1.0613 -0.7969 -0.4977
 1596TIP3   OH226278   3.315   0.261  16.824  0.6323 -0.0205  0.0762
 1596TIP3    H126279   3.337   0.340  16.875  0.6282 -0.3077  0.5257
 1596TIP3    H226280   3.281   0.200  16.888  0.7692 -0.4445 -0.2525
 1597TIP3   OH226281   4.780   5.047  12.952 -0.1408  0.1103  0.1072
 1597TIP3    H126282   4.714   4.988  12.987 -0.6421 -0.1215 -1.1790
 1597TIP3    H226283   4.807   5.008  12.869  1.8500  0.0498  0.7381
 1598TIP3   OH226284   5.370   0.329  13.910 -0.4308  0.5092 -0.3518
 1598TIP3    H126285   5.444   0.319  13.850  0.5511  1.7260  0.5883
 1598TIP3    H226286   5.375   0.252  13.967  2.0683  1.9758  1.6548
 1599TIP3   OH226287   6.292   3.816  13.261  0.1128  0.0535  0.0407
 1599TIP3    H126288   6.331   3.833  13.347 -0.9227 -0.2504  0.5893
 1599TIP3    H226289   6.314   3.725  13.242  0.7305  0.2537 -0.2386
 1600TIP3   OH226290   4.746   1.799   1.941 -0.1425 -0.3386 -0.4415
 1600TIP3    H126291   4.830   1.766   1.972  0.1463 -1.2371 -2.0885
 1600TIP3    H226292   4.762   1.892   1.925  1.5136 -1.0130 -3.5733
 1601TIP3   OH226293   0.399   0.800  13.946  0.2816  0.3932 -0.3592
 1601TIP3    H126294   0.420   0.893  13.953 -0.3888  0.4945  0.4348
 1601TIP3    H226295   0.305   0.798  13.932  0.1605 -0.1830  0.4687
 1602TIP3   OH226296   6.232   4.230   1.122 -0.0307 -0.4576 -0.0665
 1602TIP3    H126297   6.255   4.169   1.192  1.4347  2.2091  1.9582
 1602TIP3    H226298   6.200   4.308   1.167  0.4446  1.1829 -2.3903
 1603TIP3   OH226299   6.008   5.851   5.207  0.5137 -0.4948 -0.2784
 1603TIP3    H126300   5.994   5.872   5.115  2.9760 -1.4963 -0.9558
 1603TIP3    H226301   5.954   5.773   5.223 -1.2475  0.6476 -0.3306
 1604TIP3   OH226302   0.881   2.037  15.843 -0.0599 -0.0378  0.4880
 1604TIP3    H126303   0.865   2.121  15.886 -0.4097  1.2424 -1.9798
 1604TIP3    H226304   0.908   1.979  15.914  3.8955  3.0516  1.9260
 1605TIP3   OH226305   0.243   3.309   1.841  0.8693  0.1602  0.2063
 1605TIP3    H126306   0.149   3.314   1.855  0.9470 -0.2469  0.9088
 1605TIP3    H226307   0.253   3.262   1.758  0.4482  0.7759 -0.2004
 1606TIP3   OH226308   6.115   6.766  12.940 -0.1705 -0.0107 -0.5841
 1606TIP3    H126309   6.164   6.756  12.858 -0.8285  0.0371 -0.9866
 1606TIP3    H226310   6.178   6.744  13.008  0.5678  0.5618 -1.0680
 1607TIP3   OH226311   3.043   3.870  10.973 -0.0059  0.1053  0.6608
 1607TIP3    H126312   3.032   3.964  10.966 -1.2446  0.0532  1.5914
 1607TIP3    H226313   3.019   3.836  10.887 -3.1019  0.3960  1.3048
 1608TIP3   OH226314   0.664   1.252   2.733 -0.3978 -0.2917 -0.1763
 1608TIP3    H126315   0.609   1.315   2.686  0.1519 -0.6496 -1.3545
 1608TIP3    H226316   0.623   1.167   2.716 -0.1813 -0.4278 -0.0163
 1609TIP3   OH226317   3.235   3.806   2.860 -0.0453  0.1111 -0.9438
 1609TIP3    H126318   3.249   3.865   2.934  0.8436 -0.7266 -0.4215
 1609TIP3    H226319   3.310   3.746   2.862 -0.4115 -0.4237 -2.0534
 1610TIP3   OH226320   6.108   5.342   1.970  0.3301  0.1957 -0.0256
 1610TIP3    H126321   6.156   5.339   2.052  2.0235  1.2241 -0.9116
 1610TIP3    H226322   6.055   5.422   1.976  1.6548  1.1488 -0.5101
 1611TIP3   OH226323   3.770   1.294   5.498 -0.3530 -0.3742 -0.1136
 1611TIP3    H126324   3.815   1.274   5.580  0.4379 -0.8062 -0.6442
 1611TIP3    H226325   3.810   1.235   5.434 -1.9084 -1.0262 -0.5381
 1612TIP3   OH226326   0.878   2.632  10.680 -0.0263  0.3274 -0.0453
 1612TIP3    H126327   0.872   2.537  10.668 -3.3093  0.6345 -2.1155
 1612TIP3    H226328   0.937   2.661  10.611 -0.9006 -0.0213 -0.9546
 1613TIP3   OH226329   6.610   2.729   6.116 -0.4165 -0.0074  0.4691
 1613TIP3    H126330   6.570   2.813   6.095  2.8395  1.3663 -1.0587
 1613TIP3    H226331   6.668   2.748   6.189  1.7310 -0.3529 -1.0502
 1614TIP3   OH226332   4.733   6.606   0.817  0.2400 -0.3020  0.1484
 1614TIP3    H126333   4.650   6.650   0.836  2.1212  3.2754  0.9730
 1614TIP3    H226334   4.752   6.628   0.726  0.2576 -1.2436 -0.0885
 1615TIP3   OH226335   0.740   5.392  12.404  0.4618  0.5802  0.0532
 1615TIP3    H126336   0.739   5.392  12.308  1.2308  1.2255  0.0338
 1615TIP3    H226337   0.785   5.473  12.427 -0.4562  0.8394  0.9817
 1616TIP3   OH226338   6.045   4.615   2.857  0.0782  0.4970  0.3087
 1616TIP3    H126339   6.086   4.565   2.927  1.2544  0.8368 -0.1027
 1616TIP3    H226340   5.965   4.650   2.896  0.5142  0.3586  1.3639
 1617TIP3   OH226341   1.656   6.084  11.932 -0.2885  0.1701 -0.1566
 1617TIP3    H126342   1.720   6.149  11.961 -0.1911  0.4175 -0.9068
 1617TIP3    H226343   1.685   6.002  11.972  0.8986  0.1344 -1.0288
 1618TIP3   OH226344   5.033   0.810  10.558 -0.0488 -0.5014  0.4415
 1618TIP3    H126345   5.101   0.860  10.515 -0.8310  0.2094  0.0162
 1618TIP3    H226346   4.983   0.770  10.487 -0.7628 -0.0961  0.7082
 1619TIP3   OH226347   4.800   5.113   4.248 -0.3175  0.0399 -0.2101
 1619TIP3    H126348   4.716   5.109   4.202 -0.2866  0.4213 -0.3076
 1619TIP3    H226349   4.837   5.025   4.238 -0.7574 -0.1641 -0.0642
 1620TIP3   OH226350   1.284   3.872  11.571 -0.3305 -0.5310  0.2758
 1620TIP3    H126351   1.292   3.966  11.587  1.6934 -0.4980 -0.5962
 1620TIP3    H226352   1.205   3.863  11.517 -0.4501  0.6810  0.2240
 1621TIP3   OH226353   3.323   6.141   5.531  0.3559 -0.4839  0.1731
 1621TIP3    H126354   3.314   6.199   5.607 -0.9268  0.8710 -0.9521
 1621TIP3    H226355   3.418   6.130   5.521  0.6284  1.1542  0.6551
 1622TIP3   OH226356   4.926   5.031  12.591  0.5720  0.1922  0.3092
 1622TIP3    H126357   4.913   4.950  12.640  0.2963  0.0503  0.0075
 1622TIP3    H226358   4.908   5.007  12.500  1.6389  0.3103  0.0496
 1623TIP3   OH226359   3.078   4.028   5.844 -0.5735  0.4382 -0.1159
 1623TIP3    H126360   3.042   4.110   5.878 -0.6057  0.2569  0.2954
 1623TIP3    H226361   3.116   3.985   5.921  0.4605  0.5919 -0.5307
 1624TIP3   OH226362   1.901   3.174  14.356 -0.3572 -0.5535  0.0222
 1624TIP3    H126363   1.888   3.235  14.428  0.5220 -1.6661  1.1570
 1624TIP3    H226364   1.986   3.198  14.319 -0.4304 -0.5076 -0.1166
 1625TIP3   OH226365   3.231   2.469   5.991  0.1172  0.0813 -0.4493
 1625TIP3    H126366   3.272   2.388   5.961 -0.7894 -0.3474 -0.5660
 1625TIP3    H226367   3.163   2.440   6.052 -0.5848  0.7109 -0.9064
 1626TIP3   OH226368   1.656   0.393  12.966 -0.0207  0.1691 -0.5822
 1626TIP3    H126369   1.638   0.373  12.875  0.4517  0.1283 -0.6720
 1626TIP3    H226370   1.646   0.310  13.012 -3.9181  0.7983  0.0540
 1627TIP3   OH226371   5.234   5.174  13.460  0.3253  0.2245  0.2849
 1627TIP3    H126372   5.290   5.242  13.497  0.6410  1.5962 -2.4701
 1627TIP3    H226373   5.195   5.214  13.382  0.5750 -2.7209 -1.5276
 1628TIP3   OH226374   0.912   6.026  12.180 -0.0904  0.3932  0.2741
 1628TIP3    H126375   0.897   5.947  12.127  1.1067  0.6114 -0.4268
 1628TIP3    H226376   0.953   6.088  12.119  0.4983  0.9685  1.2326
 1629TIP3   OH226377   0.193   4.783  16.377 -0.5945  0.0673 -0.2751
 1629TIP3    H126378   0.149   4.698  16.383  1.4175 -0.9620  1.0032
 1629TIP3    H226379   0.200   4.800  16.283 -1.3697 -1.0060 -0.5373
 1630TIP3   OH226380   2.975   3.467  12.793 -0.1503  0.1875  0.6238
 1630TIP3    H126381   2.892   3.505  12.765  0.5992  0.0809 -2.0236
 1630TIP3    H226382   3.037   3.540  12.791 -0.0934  0.2052  2.2931
 1631TIP3   OH226383   5.019   6.450  14.037  0.4262 -0.0368  0.4178
 1631TIP3    H126384   5.011   6.463  13.942  2.1353  0.2605  0.2855
 1631TIP3    H226385   4.997   6.535  14.075 -1.3998 -0.4657  0.3843
 1632TIP3   OH226386   1.257   5.953  16.920  0.2001 -0.0386  0.3774
 1632TIP3    H126387   1.219   6.019  16.978  0.4491 -0.6111  1.2108
 1632TIP3    H226388   1.303   6.003  16.853 -0.0700  0.6352  0.6901
 1633TIP3   OH226389   4.311   1.993   4.831 -0.3608  0.4007 -0.3933
 1633TIP3    H126390   4.339   2.071   4.878  2.3679 -0.6716 -0.0749
 1633TIP3    H226391   4.333   2.011   4.739  1.1996 -0.3187 -0.1874
 1634TIP3   OH226392   4.784   2.955  15.329  0.7979  0.0554 -0.3044
 1634TIP3    H126393   4.818   3.043  15.346  0.1209  0.3231 -0.3175
 1634TIP3    H226394   4.863   2.901  15.316  1.2625  0.4031  0.9305
 1635TIP3   OH226395   3.224   0.342  17.103  0.2593 -0.3421 -0.1321
 1635TIP3    H126396   3.161   0.392  17.154  0.5391 -0.5773  0.4622
 1635TIP3    H226397   3.211   0.251  17.131  0.1770 -0.5224 -0.7427
 1636TIP3   OH226398   0.399   2.319   5.876  0.4912  0.2571 -0.2071
 1636TIP3    H126399   0.329   2.384   5.878  1.3516  1.2826 -1.3736
 1636TIP3    H226400   0.417   2.299   5.968 -1.8861 -0.6865  0.1089
 1637TIP3   OH226401   5.304   1.779   2.655  0.0880  0.1174  0.1334
 1637TIP3    H126402   5.284   1.696   2.697  0.2096 -0.0244 -0.0887
 1637TIP3    H226403   5.299   1.760   2.561 -1.5213  0.7343  0.0616
 1638TIP3   OH226404   6.437   3.844  13.757  0.4432  0.4005 -0.8067
 1638TIP3    H126405   6.443   3.816  13.848 -1.8319 -0.7846 -0.9509
 1638TIP3    H226406   6.492   3.782  13.709  0.3404 -0.0036 -0.4095
 1639TIP3   OH226407   4.189   2.420   0.090  0.2578  0.2206 -0.0457
 1639TIP3    H126408   4.144   2.349   0.135  0.6470 -0.8428 -1.2795
 1639TIP3    H226409   4.118   2.473   0.052 -0.0674 -1.8776 -2.6451
 1640TIP3   OH226410   0.323   4.163  13.478 -0.0427  0.2001  0.0422
 1640TIP3    H126411   0.270   4.084  13.468  0.7293 -0.0832 -2.6787
 1640TIP3    H226412   0.390   4.139  13.541 -1.0226 -0.6311  0.7897
 1641TIP3   OH226413   0.088   2.987  14.473  0.4621 -0.0628  0.5106
 1641TIP3    H126414   0.078   2.920  14.406 -0.5393  1.9631 -1.4992
 1641TIP3    H226415   0.009   2.980  14.527 -0.3394  0.3796 -0.5718
 1642TIP3   OH226416   0.408   5.536  13.885  0.1213 -0.6766  0.4349
 1642TIP3    H126417   0.411   5.625  13.850 -0.5738 -1.1149 -0.7907
 1642TIP3    H226418   0.447   5.481  13.817 -0.2613 -1.4251  0.8037
 1643TIP3   OH226419   4.368   2.184  16.119  1.1781 -0.0091 -0.2664
 1643TIP3    H126420   4.364   2.107  16.175  1.1524  0.5034  0.4524
 1643TIP3    H226421   4.325   2.253  16.170 -1.6776 -0.2385 -2.1300
 1644TIP3   OH226422   3.796   2.580  11.874 -0.2750  0.8741 -0.1203
 1644TIP3    H126423   3.842   2.645  11.927  0.6031  0.8422 -0.8151
 1644TIP3    H226424   3.852   2.568  11.797  0.5155 -1.9822  0.7746
 1645TIP3   OH226425   4.267   0.316  15.002  1.0498  0.5557 -0.0493
 1645TIP3    H126426   4.322   0.351  14.931  0.4610  2.0498  0.1801
 1645TIP3    H226427   4.182   0.359  14.989  0.6393  0.0768  0.9637
 1646TIP3   OH226428   2.230   4.411   5.374  0.5204 -0.5768  0.0138
 1646TIP3    H126429   2.246   4.505   5.379  1.1007 -0.6105 -1.0189
 1646TIP3    H226430   2.288   4.380   5.304 -2.1222 -1.1507 -2.0831
 1647TIP3   OH226431   5.522   0.728  14.016  0.7756 -0.2461  0.1398
 1647TIP3    H126432   5.598   0.779  13.986  1.2185 -0.5722  0.6856
 1647TIP3    H226433   5.546   0.699  14.104 -0.3763  0.4340  0.6958
 1648TIP3   OH226434   4.585   0.638  12.687 -0.2078 -0.0749 -0.2045
 1648TIP3    H126435   4.551   0.726  12.706  0.3842 -0.0134  0.6363
 1648TIP3    H226436   4.654   0.625  12.752  1.3713 -0.1980 -1.8307
 1649TIP3   OH226437   1.456   0.549   3.624 -0.5094 -0.0503  0.3529
 1649TIP3    H126438   1.418   0.623   3.670 -0.0230  0.2942  0.2085
 1649TIP3    H226439   1.409   0.545   3.540 -2.7501 -1.8453  1.5658
 1650TIP3   OH226440   0.737   2.133   4.734 -0.2323  0.1578  0.0744
 1650TIP3    H126441   0.712   2.191   4.806 -0.9096  1.9053 -1.4787
 1650TIP3    H226442   0.663   2.073   4.725 -0.0514 -0.2142  0.9374
 1651TIP3   OH226443   3.928   0.142   0.395 -0.3452 -0.5058  0.4575
 1651TIP3    H126444   3.857   0.154   0.457  1.4727 -0.7832  2.7226
 1651TIP3    H226445   3.974   0.064   0.425  1.9478  0.6469  0.1738
 1652TIP3   OH226446   2.596   2.796  11.105  0.4317 -0.3437  0.1533
 1652TIP3    H126447   2.574   2.727  11.042  0.8940 -0.2286 -0.1351
 1652TIP3    H226448   2.554   2.875  11.069  1.3217 -0.1187 -0.4102
 1653TIP3   OH226449   5.790   6.839  11.715  0.2878 -0.4640 -0.2126
 1653TIP3    H126450   5.783   6.765  11.775  0.1166 -1.9674 -2.0188
 1653TIP3    H226451   5.720   6.899  11.743  0.8431 -0.6331  1.6752
 1654TIP3   OH226452   6.350   2.802  11.980 -0.3568  0.1928 -0.0323
 1654TIP3    H126453   6.265   2.766  11.954 -0.2271 -0.6244  0.6378
 1654TIP3    H226454   6.328   2.874  12.039 -0.5970 -1.1494  1.5928
 1655TIP3   OH226455   2.657   4.731   2.220 -0.0687  0.2253  0.3743
 1655TIP3    H126456   2.688   4.775   2.141 -1.1002  1.0033  0.3784
 1655TIP3    H226457   2.730   4.739   2.282  0.9800 -0.9117 -0.6515
 1656TIP3   OH226458   0.857   2.167  12.748  0.2468  0.5894 -0.2918
 1656TIP3    H126459   0.870   2.174  12.654  0.5066 -0.6342 -0.3532
 1656TIP3    H226460   0.912   2.237  12.785  1.5310 -0.0342 -0.9575
 1657TIP3   OH226461   4.046   4.780   5.780  0.1565 -0.0295  0.8050
 1657TIP3    H126462   4.048   4.810   5.689 -1.9667  0.2877  0.8187
 1657TIP3    H226463   3.973   4.827   5.819 -0.5512 -2.0052  2.0024
 1658TIP3   OH226464   0.780   4.416  11.336  0.6922 -0.1741  0.2489
 1658TIP3    H126465   0.693   4.391  11.368  0.4350 -1.0722 -1.0518
 1658TIP3    H226466   0.839   4.396  11.408  0.0670 -1.5465  0.4083
 1659TIP3   OH226467   4.713   5.509  16.125 -0.1968 -0.2420  0.1798
 1659TIP3    H126468   4.793   5.469  16.160  0.3780  0.8537  0.1586
 1659TIP3    H226469   4.743   5.590  16.083 -1.4490  0.7620  1.1389
 1660TIP3   OH226470   2.200   3.908  12.322  0.0551 -0.7348  0.0847
 1660TIP3    H126471   2.139   3.901  12.248  0.9676 -0.9088 -0.6731
 1660TIP3    H226472   2.169   3.984  12.371 -0.1392 -0.1521 -0.8959
 1661TIP3   OH226473   3.361   0.658  16.461 -0.4573  0.0421  0.2597
 1661TIP3    H126474   3.300   0.692  16.396  0.7243  1.9462  0.0732
 1661TIP3    H226475   3.325   0.688  16.545 -1.0222 -0.8960  0.3734
 1662TIP3   OH226476   0.704   0.644   5.403  0.1630  0.5219  0.6777
 1662TIP3    H126477   0.692   0.666   5.496  1.2817  0.1452  0.9309
 1662TIP3    H226478   0.762   0.712   5.370  1.7979 -0.7166  0.8983
 1663TIP3   OH226479   1.898   4.734  11.875  0.3337 -0.1022 -0.1025
 1663TIP3    H126480   1.963   4.799  11.903  0.3617  0.9498 -2.3578
 1663TIP3    H226481   1.816   4.765  11.912  0.4431  0.9876 -0.7025
 1664TIP3   OH226482   3.240   0.131  15.852  0.6001 -0.5133 -0.4350
 1664TIP3    H126483   3.261   0.210  15.902 -0.3758 -1.1174  1.0057
 1664TIP3    H226484   3.181   0.161  15.783 -0.2337 -0.0452  0.4583
 1665TIP3   OH226485   3.217   6.848   2.508 -0.0488  0.3811 -0.2367
 1665TIP3    H126486   3.150   6.816   2.448 -0.0430  1.9325 -1.1196
 1665TIP3    H226487   3.294   6.794   2.488 -0.9134 -1.2734  0.6381
 1666TIP3   OH226488   3.069   0.487   2.156  0.5003 -0.6561 -0.4311
 1666TIP3    H126489   2.976   0.506   2.163  0.1016 -1.1524 -3.1338
 1666TIP3    H226490   3.113   0.564   2.192 -0.9696  0.0512 -0.1062
 1667TIP3   OH226491   0.621   5.437   2.080 -0.3399  0.1381  0.0374
 1667TIP3    H126492   0.632   5.462   1.988  1.8080  1.6508  0.6238
 1667TIP3    H226493   0.536   5.473   2.105  0.9423  3.7231 -0.2358
 1668TIP3   OH226494   0.679   1.706   4.759  0.4969 -0.2307 -0.1341
 1668TIP3    H126495   0.609   1.642   4.768 -1.4828  1.9766  1.4984
 1668TIP3    H226496   0.721   1.684   4.675 -1.7847 -1.9944 -0.9231
 1669TIP3   OH226497   4.193   2.119  17.184 -0.1362  0.3834  0.8138
 1669TIP3    H126498   4.127   2.177  17.222  1.0837  1.4576  1.3532
 1669TIP3    H226499   4.233   2.170  17.115  0.5237 -0.0425  0.8748
 1670TIP3   OH226500   1.067   6.043   2.900  0.2871 -0.2174 -0.3029
 1670TIP3    H126501   1.014   6.092   2.962  1.1536  1.6506 -0.9433
 1670TIP3    H226502   1.112   5.977   2.953 -1.2938 -0.6702  0.5155
 1671TIP3   OH226503   5.810   1.257   4.010 -0.3371 -0.4473 -1.1090
 1671TIP3    H126504   5.735   1.296   3.965 -0.3541 -0.8659 -1.4489
 1671TIP3    H226505   5.812   1.301   4.095 -0.8716 -0.3187 -1.1579
 1672TIP3   OH226506   1.008   3.689   2.467 -0.0855  0.4775  0.7578
 1672TIP3    H126507   1.088   3.733   2.496 -0.0110  2.4951 -2.1259
 1672TIP3    H226508   0.943   3.711   2.534  1.6556 -1.3796  3.2921
 1673TIP3   OH226509   6.321   5.457  13.496 -0.0603 -0.1144  0.1357
 1673TIP3    H126510   6.365   5.513  13.560  0.9376  0.3269 -0.9019
 1673TIP3    H226511   6.392   5.423  13.441 -0.9643  0.3057 -1.3373
 1674TIP3   OH226512   6.155   0.039   0.740 -0.4225  0.8941 -0.6544
 1674TIP3    H126513   6.245   0.006   0.732 -0.0220  1.8428 -0.2617
 1674TIP3    H226514   6.129   0.017   0.829 -0.3430  1.1727 -0.5605
 1675TIP3   OH226515   1.908   0.645  15.937 -0.3433  0.3818 -0.0061
 1675TIP3    H126516   1.870   0.659  16.023 -0.2518 -0.0936  0.1169
 1675TIP3    H226517   1.832   0.629  15.880 -0.4615  1.5022 -0.1876
 1676TIP3   OH226518   2.022   3.585   1.691  0.2666  0.3409  0.1113
 1676TIP3    H126519   2.087   3.551   1.630 -0.6506 -1.2068 -0.0815
 1676TIP3    H226520   1.952   3.619   1.636  0.7624  1.7748  0.3189
 1677TIP3   OH226521   1.229   3.572   0.962  0.1518  0.5328  0.5491
 1677TIP3    H126522   1.199   3.640   0.902  0.4523  1.6241  1.5935
 1677TIP3    H226523   1.272   3.508   0.906 -0.6857  0.8807 -0.5335
 1678TIP3   OH226524   4.925   3.928   2.360 -0.1677  0.0487 -0.0367
 1678TIP3    H126525   4.947   3.840   2.330 -0.3154 -0.3600  0.9906
 1678TIP3    H226526   4.993   3.949   2.424 -1.7584 -0.5665  1.9719
 1679TIP3   OH226527   2.915   5.065   2.842  0.1642  0.1745 -0.5615
 1679TIP3    H126528   2.887   4.983   2.882 -0.1532  1.1572  1.3873
 1679TIP3    H226529   3.010   5.060   2.840  0.1001 -0.8294 -1.8526
 1680TIP3   OH226530   4.884   0.470   0.061  0.7950 -0.4454  0.3526
 1680TIP3    H126531   4.935   0.478  -0.019  0.8959 -1.9570  0.2408
 1680TIP3    H226532   4.824   0.398   0.044 -0.3506  0.3096  1.0417
 1681TIP3   OH226533   6.406   0.020   4.853  0.3147 -0.0779 -0.3274
 1681TIP3    H126534   6.400  -0.009   4.944 -1.3468 -0.2706 -0.4779
 1681TIP3    H226535   6.382  -0.056   4.801 -2.5417  0.9907 -0.7665
 1682TIP3   OH226536   4.146   6.018  14.285 -0.4727  0.0379 -1.0110
 1682TIP3    H126537   4.120   5.956  14.218 -0.1428 -1.2103 -0.0107
 1682TIP3    H226538   4.242   6.023  14.277 -0.5337  0.7751 -1.3801
 1683TIP3   OH226539   1.859   2.254  11.856 -0.1497  1.0739  0.1252
 1683TIP3    H126540   1.917   2.330  11.865  0.7039  0.6136 -1.2057
 1683TIP3    H226541   1.796   2.280  11.788  0.9571  0.1545 -1.3079
 1684TIP3   OH226542   0.604   4.491  15.479  0.3181 -0.1894  0.2727
 1684TIP3    H126543   0.659   4.561  15.443  0.2814 -0.3544 -0.1055
 1684TIP3    H226544   0.551   4.535  15.546  0.8239 -0.0045  0.5586
 1685TIP3   OH226545   5.607   1.717   2.543 -0.3055 -0.0231  0.1916
 1685TIP3    H126546   5.620   1.786   2.608  0.2934 -2.3888  2.7623
 1685TIP3    H226547   5.520   1.734   2.506  0.6662  3.2722 -0.9152
 1686TIP3   OH226548   5.017   4.086  13.431  0.1449 -0.2848  0.1703
 1686TIP3    H126549   4.946   4.023  13.445 -0.5380  0.2700 -0.7080
 1686TIP3    H226550   5.030   4.087  13.336 -0.6424  1.7144  0.0337
 1687TIP3   OH226551   5.415   3.434  16.526 -0.8001  0.3253  0.4203
 1687TIP3    H126552   5.338   3.442  16.470 -2.5098  0.2275  2.6056
 1687TIP3    H226553   5.488   3.462  16.471 -2.5381  1.5918 -1.3821
 1688TIP3   OH226554   0.502   1.680  16.717  0.3307  0.0659  0.2797
 1688TIP3    H126555   0.438   1.614  16.742  0.6088 -0.6868 -0.9342
 1688TIP3    H226556   0.558   1.689  16.794 -1.4894  1.1207  1.5778
 1689TIP3   OH226557   6.138   1.090  11.921  0.2255 -0.1082  0.1496
 1689TIP3    H126558   6.230   1.116  11.918  0.2082 -0.0278  0.3437
 1689TIP3    H226559   6.115   1.093  12.013  0.0887 -0.3422  0.1230
 1690TIP3   OH226560   3.306   2.779   1.859  0.2243  0.2728  0.2253
 1690TIP3    H126561   3.395   2.786   1.892 -0.3308  0.6407  1.6992
 1690TIP3    H226562   3.312   2.808   1.768  1.6856 -0.1904  0.1514
 1691TIP3   OH226563   6.841   5.812   3.569  0.5882  0.6864 -0.4530
 1691TIP3    H126564   6.882   5.725   3.572  1.0035  0.8974  0.6319
 1691TIP3    H226565   6.812   5.822   3.478 -1.3137 -1.4250 -0.1631
 1692TIP3   OH226566   5.523   1.853   4.984 -0.2178  0.1206  0.3251
 1692TIP3    H126567   5.463   1.804   5.039  0.6390  0.3627  1.5148
 1692TIP3    H226568   5.481   1.854   4.898 -0.5672 -2.1525  0.3920
 1693TIP3   OH226569   6.257   6.455  12.167  0.1505  0.2296 -0.4842
 1693TIP3    H126570   6.325   6.516  12.196  0.2423 -0.2025  0.2089
 1693TIP3    H226571   6.249   6.472  12.073  1.1661  0.3369 -0.5624
 1694TIP3   OH226572   1.339   6.427  15.836 -0.1229 -0.3660  0.5279
 1694TIP3    H126573   1.299   6.340  15.847 -0.8878 -0.1384 -0.3313
 1694TIP3    H226574   1.304   6.479  15.908 -1.3435 -0.1960 -0.1597
 1695TIP3   OH226575   0.097   2.200   1.394 -0.0843 -0.6664  0.3886
 1695TIP3    H126576   0.104   2.259   1.319 -1.3226 -1.0621 -0.0732
 1695TIP3    H226577   0.175   2.217   1.446 -0.3186  1.2203  0.1690
 1696TIP3   OH226578   3.936   4.798   1.526  0.8173 -0.0011  0.6045
 1696TIP3    H126579   3.853   4.790   1.479  0.5274 -1.4164  1.3112
 1696TIP3    H226580   4.000   4.818   1.458 -0.2364  2.3780  0.1925
 1697TIP3   OH226581   0.344   1.559  14.307 -0.3079 -0.2252 -0.1966
 1697TIP3    H126582   0.345   1.618  14.232 -1.9228 -2.3157 -2.0437
 1697TIP3    H226583   0.258   1.572  14.347  0.8543  1.4964  1.9626
 1698TIP3   OH226584   6.693   2.544  11.507  0.3449  0.1041 -0.4077
 1698TIP3    H126585   6.661   2.515  11.592  0.4579  0.5860 -0.1990
 1698TIP3    H226586   6.661   2.633  11.498  0.1291 -0.0247 -0.9790
 1699TIP3   OH226587   6.215   6.173   4.370  0.2726 -0.7925 -0.3914
 1699TIP3    H126588   6.302   6.196   4.404 -0.5255 -0.6989  1.6984
 1699TIP3    H226589   6.206   6.080   4.388 -0.2270 -0.7062 -0.1940
 1700TIP3   OH226590   2.712   0.025   1.787  0.2013 -0.8303 -0.4170
 1700TIP3    H126591   2.724   0.046   1.694  0.1149 -2.0341 -0.7126
 1700TIP3    H226592   2.800   0.033   1.824 -0.1511  2.3691  0.0366
 1701TIP3   OH226593   5.204   2.167  16.359 -0.1142 -0.5771  0.4524
 1701TIP3    H126594   5.109   2.177  16.364  0.0042  0.0457  3.3578
 1701TIP3    H226595   5.237   2.257  16.353  0.3273 -0.6631  1.4778
 1702TIP3   OH226596   6.266   4.989   4.017  0.0727  0.1107  0.0484
 1702TIP3    H126597   6.202   4.940   4.069  1.3056 -1.1340  0.4511
 1702TIP3    H226598   6.237   4.976   3.927  0.6110 -1.8000  0.1088
 1703TIP3   OH226599   4.424   1.781   3.735  0.3766  0.0214 -0.3198
 1703TIP3    H126600   4.496   1.726   3.765  0.1224 -0.1205  0.0343
 1703TIP3    H226601   4.455   1.817   3.652 -0.4712 -2.7166 -1.9153
 1704TIP3   OH226602   4.640   1.749  14.634 -0.3287 -0.2218  0.0436
 1704TIP3    H126603   4.599   1.663  14.621  1.0482 -0.7127 -1.4332
 1704TIP3    H226604   4.639   1.789  14.547 -1.3567  1.4837  0.7922
 1705TIP3   OH226605   3.419   2.005  15.574 -0.2697  0.1526  0.1373
 1705TIP3    H126606   3.487   2.033  15.512  0.4681  0.0806  0.8877
 1705TIP3    H226607   3.466   1.952  15.638 -0.7763  1.1870  1.4217
 1706TIP3   OH226608   1.726   3.705   0.568  0.0104  0.1348  0.0320
 1706TIP3    H126609   1.669   3.671   0.637  1.0100  0.3005  0.9777
 1706TIP3    H226610   1.814   3.676   0.593  0.5723  1.3286 -0.4369
 1707TIP3   OH226611   5.037   5.874  14.034 -0.0688 -0.2306  0.2322
 1707TIP3    H126612   5.061   5.930  14.107  0.4673 -0.7920  0.4965
 1707TIP3    H226613   5.107   5.809  14.029 -0.8218 -1.0607  0.1217
 1708TIP3   OH226614   1.212   1.723  13.335 -0.1998 -0.2400 -0.7068
 1708TIP3    H126615   1.136   1.769  13.372 -0.7101 -2.0558  0.6591
 1708TIP3    H226616   1.287   1.773  13.368 -0.7556  0.3403 -0.2774
 1709TIP3   OH226617   5.067   5.627   1.076 -0.0080 -0.2695 -0.0518
 1709TIP3    H126618   5.148   5.582   1.100 -0.4736 -0.4385  1.3138
 1709TIP3    H226619   5.050   5.600   0.986  1.2839 -0.4750 -0.2546
 1710TIP3   OH226620   0.376   1.259  16.228 -0.3418  0.6902 -0.3402
 1710TIP3    H126621   0.457   1.310  16.220 -1.5251  2.5536 -1.0503
 1710TIP3    H226622   0.315   1.317  16.273 -1.5549 -0.3370 -0.6022
 1711TIP3   OH226623   4.777   3.668  12.725  0.0707  0.1484  0.0468
 1711TIP3    H126624   4.804   3.758  12.745  2.4603 -0.4851  0.0695
 1711TIP3    H226625   4.737   3.636  12.805  1.3311  0.5013  0.8556
 1712TIP3   OH226626   4.237   5.427   1.410 -1.2104  0.4748  0.3591
 1712TIP3    H126627   4.212   5.342   1.447 -0.2397 -0.4183 -0.9642
 1712TIP3    H226628   4.278   5.406   1.326 -3.0201  2.4002 -1.1193
 1713TIP3   OH226629   5.001   5.958   2.957  0.1964 -0.3144  0.4606
 1713TIP3    H126630   4.942   6.020   3.000  0.0053  2.3943 -3.2198
 1713TIP3    H226631   5.086   5.972   2.999 -0.4915  0.2095  1.7382
 1714TIP3   OH226632   6.432   6.577  12.971  0.0223  0.2638 -0.2358
 1714TIP3    H126633   6.517   6.548  13.004 -1.1174 -1.6644  1.1704
 1714TIP3    H226634   6.378   6.587  13.050 -1.2007  0.9829 -1.1372
 1715TIP3   OH226635   6.669   1.472  14.986  0.0167 -0.8710  0.1128
 1715TIP3    H126636   6.596   1.420  15.018 -0.1322 -0.8011 -0.1171
 1715TIP3    H226637   6.713   1.416  14.922  0.1533 -0.9042  0.2334
 1716TIP3   OH226638   2.504   3.384  16.646 -0.3638  0.4874  0.1206
 1716TIP3    H126639   2.496   3.466  16.695  0.5774  0.3825  0.4762
 1716TIP3    H226640   2.576   3.337  16.689 -1.7749 -1.1683  0.7909
 1717TIP3   OH226641   5.509   3.403   3.881  1.1301  0.2463  0.4764
 1717TIP3    H126642   5.537   3.312   3.889  3.0415  0.8072  0.7506
 1717TIP3    H226643   5.532   3.443   3.965 -0.7736  0.7453  0.8132
 1718TIP3   OH226644   5.201   4.624  12.811 -0.0784 -0.3179  0.2880
 1718TIP3    H126645   5.224   4.546  12.861  0.1120 -0.1584  0.4496
 1718TIP3    H226646   5.268   4.688  12.835 -0.3593 -0.0366  0.3149
 1719TIP3   OH226647   0.326   3.774  11.040  0.3537 -0.1424  0.1220
 1719TIP3    H126648   0.251   3.808  10.992  1.3400 -0.1627 -1.4782
 1719TIP3    H226649   0.394   3.763  10.975  1.9564  0.4206  1.6208
 1720TIP3   OH226650   0.527   3.544   0.471  0.0453  0.2689 -0.8177
 1720TIP3    H126651   0.445   3.573   0.511  0.8274  1.2994  0.1195
 1720TIP3    H226652   0.509   3.455   0.441 -0.6643 -0.5826  1.8093
 1721TIP3   OH226653   6.823   1.323   0.800 -0.5073 -0.0722 -0.4191
 1721TIP3    H126654   6.728   1.337   0.798 -0.7305 -1.4865 -1.9252
 1721TIP3    H226655   6.845   1.302   0.709  1.0491 -1.0439  0.1611
 1722TIP3   OH226656   2.266   5.359  15.044  0.1606 -0.4768  0.5043
 1722TIP3    H126657   2.264   5.318  15.130  2.0329 -0.1638  0.7499
 1722TIP3    H226658   2.307   5.444  15.059 -1.4036  0.4720 -0.3864
 1723TIP3   OH226659   0.385   1.876   0.753 -0.7086  0.4384 -0.0238
 1723TIP3    H126660   0.391   1.969   0.735 -0.4368  0.1009 -1.8678
 1723TIP3    H226661   0.297   1.851   0.726 -0.8293  0.1785  0.5894
 1724TIP3   OH226662   2.572   3.404  14.253  0.1859 -0.7999 -0.3877
 1724TIP3    H126663   2.653   3.377  14.210 -0.6323 -1.9572 -1.2698
 1724TIP3    H226664   2.553   3.334  14.316  1.1883  0.7083  1.7078
 1725TIP3   OH226665   5.178   4.048  15.981 -0.2440 -0.2139  0.0424
 1725TIP3    H126666   5.134   3.980  16.031 -1.2776  0.2972 -0.1442
 1725TIP3    H226667   5.108   4.092  15.933  0.3916  1.0195  0.2044
 1726TIP3   OH226668   0.132   5.436   1.342  0.2450  0.3530 -0.3798
 1726TIP3    H126669   0.070   5.445   1.414  0.7244  0.2703  0.0478
 1726TIP3    H226670   0.105   5.356   1.297 -0.6181  0.8928 -0.8550
 1727TIP3   OH226671   3.383   0.464  11.177 -0.1035 -0.1873 -0.5246
 1727TIP3    H126672   3.452   0.524  11.149 -1.0039 -0.3236 -3.4287
 1727TIP3    H226673   3.429   0.383  11.198  0.7391  0.1060 -1.1750
 1728TIP3   OH226674   0.601   4.078  17.105  0.4219 -0.0286 -0.2896
 1728TIP3    H126675   0.548   3.998  17.105 -0.0223  0.2553  0.4295
 1728TIP3    H226676   0.546   4.142  17.061  1.2246 -0.3798 -1.8858
 1729TIP3   OH226677   4.849   0.799   0.780  0.6637  0.0803  0.2216
 1729TIP3    H126678   4.868   0.744   0.704  1.9255  0.7921 -0.0011
 1729TIP3    H226679   4.764   0.838   0.761  0.8922  0.1277 -0.7486
 1730TIP3   OH226680   1.778   4.709   1.510  0.7853  0.1838 -0.8740
 1730TIP3    H126681   1.846   4.654   1.548  0.4822  1.1739  1.2887
 1730TIP3    H226682   1.735   4.654   1.446  1.9496 -1.3179 -0.4183
 1731TIP3   OH226683   1.601   4.754   3.077 -0.1247  0.0612 -0.2626
 1731TIP3    H126684   1.623   4.771   3.169 -2.6424 -1.6903  0.7877
 1731TIP3    H226685   1.608   4.840   3.035 -0.2370  1.2096  1.8767
 1732TIP3   OH226686   2.149   4.702  16.763  0.2451 -0.2459 -0.0125
 1732TIP3    H126687   2.200   4.750  16.698  0.7953 -0.0631  0.5488
 1732TIP3    H226688   2.213   4.647  16.809  0.4851  1.9476  2.5236
 1733TIP3   OH226689   3.067   0.232   6.103 -0.0783  0.0524  0.0789
 1733TIP3    H126690   3.072   0.265   6.013 -0.5274 -1.8494 -0.7014
 1733TIP3    H226691   3.153   0.193   6.119 -0.1694 -0.0619  0.2912
 1734TIP3   OH226692   2.559   1.268  11.473 -0.1746  0.2427  0.3504
 1734TIP3    H126693   2.574   1.320  11.552  0.8889  1.8076 -0.8214
 1734TIP3    H226694   2.588   1.180  11.496 -0.4280  0.5313  1.8681
 1735TIP3   OH226695   6.497   4.412  12.300  0.3034 -0.3471  0.3546
 1735TIP3    H126696   6.574   4.424  12.355  0.7262 -0.0913 -0.2945
 1735TIP3    H226697   6.531   4.378  12.218 -0.0287  1.7631 -0.7040
 1736TIP3   OH226698   2.220   6.396   5.176  0.0296 -0.0331 -0.2513
 1736TIP3    H126699   2.124   6.404   5.180 -0.0660  0.8455 -2.4136
 1736TIP3    H226700   2.247   6.472   5.123  1.8419 -0.6979 -0.3168
 1737TIP3   OH226701   1.326   0.862  14.308  0.8430  0.2394  0.2737
 1737TIP3    H126702   1.415   0.883  14.281  1.7797 -0.5518  2.4931
 1737TIP3    H226703   1.328   0.767  14.323 -0.4537  0.1685  0.0992
 1738TIP3   OH226704   3.792   6.830  11.645  0.1993  0.0024  0.2124
 1738TIP3    H126705   3.783   6.739  11.675  0.0249 -0.6476 -1.6703
 1738TIP3    H226706   3.707   6.850  11.605  1.0074  0.1089 -1.5517
 1739TIP3   OH226707   6.205   3.490   3.590  0.3942  0.9906  0.1579
 1739TIP3    H126708   6.163   3.520   3.510 -1.5735 -3.0301 -0.5524
 1739TIP3    H226709   6.140   3.503   3.659 -0.4804 -1.3386 -0.1588
 1740TIP3   OH226710   0.162   0.932  12.811 -0.2955  0.4158 -0.0116
 1740TIP3    H126711   0.243   0.965  12.849 -1.0514  0.3082  1.7498
 1740TIP3    H226712   0.144   0.994  12.739 -0.1104  2.1125  1.3315
 1741TIP3   OH226713   5.752   6.381  14.462  0.3898  0.0256 -0.2832
 1741TIP3    H126714   5.753   6.363  14.556  0.7251  0.7037 -0.1512
 1741TIP3    H226715   5.669   6.425  14.447  1.2530  1.8750  0.0924
 1742TIP3   OH226716   1.827   0.116   1.406 -0.0562  0.3108  0.0622
 1742TIP3    H126717   1.874   0.052   1.353 -1.2400 -1.1182  0.6519
 1742TIP3    H226718   1.881   0.127   1.485  0.1819  0.0776 -0.0673
 1743TIP3   OH226719   5.667   5.515  14.901 -0.2168 -0.3378 -0.5493
 1743TIP3    H126720   5.673   5.609  14.890  0.7613 -0.5138 -1.7835
 1743TIP3    H226721   5.694   5.499  14.992 -1.2505  0.6139 -0.0510
 1744TIP3   OH226722   4.576   4.076  13.283  0.1460  0.7163  0.4788
 1744TIP3    H126723   4.639   4.070  13.211 -0.3465 -0.0083  0.0908
 1744TIP3    H226724   4.629   4.064  13.362  0.7187  1.6796  0.2627
 1745TIP3   OH226725   1.331   4.404  13.389 -0.0918  0.5123  0.1690
 1745TIP3    H126726   1.377   4.342  13.334  0.0991  0.4367  0.4095
 1745TIP3    H226727   1.261   4.353  13.430  0.4939  0.2789  0.9091
 1746TIP3   OH226728   6.440   4.251  14.727 -0.1420  0.1918  0.1553
 1746TIP3    H126729   6.354   4.211  14.739 -0.0371  0.3311  1.4262
 1746TIP3    H226730   6.446   4.316  14.797  0.9398  0.2877 -0.0158
 1747TIP3   OH226731   2.647   0.719  14.649  0.2409 -0.2064 -0.2018
 1747TIP3    H126732   2.596   0.794  14.619 -1.4391 -1.4800 -0.6913
 1747TIP3    H226733   2.692   0.749  14.728 -2.3320  0.6212  1.0415
 1748TIP3   OH226734   3.813   0.475   2.190  0.0557  0.0713 -0.7869
 1748TIP3    H126735   3.866   0.553   2.209  0.7180 -0.5318 -0.0963
 1748TIP3    H226736   3.812   0.470   2.095 -0.5148  1.2720 -0.8566
 1749TIP3   OH226737   1.247   4.620  13.556  0.1090  0.2373 -0.5414
 1749TIP3    H126738   1.297   4.557  13.503 -0.3492  0.8848 -1.7741
 1749TIP3    H226739   1.160   4.622  13.515 -0.1424  1.0301  0.0189
 1750TIP3   OH226740   0.524   4.812   5.578 -0.2875 -0.5057  0.3317
 1750TIP3    H126741   0.618   4.810   5.556 -0.0040  0.6426  1.2907
 1750TIP3    H226742   0.520   4.780   5.668 -0.6508  0.6109  0.7296
 1751TIP3   OH226743   3.065   5.477   4.776  0.1631  0.1366  0.2521
 1751TIP3    H126744   3.151   5.490   4.816  0.2977 -1.5969  0.5964
 1751TIP3    H226745   3.083   5.459   4.684  0.2519 -0.9593  0.4687
 1752TIP3   OH226746   0.768   1.556  11.620  0.5449 -0.0240  0.1730
 1752TIP3    H126747   0.708   1.626  11.644  1.9440  0.7595  1.6561
 1752TIP3    H226748   0.846   1.601  11.587  0.6126 -0.9827 -1.0616
 1753TIP3   OH226749   3.173   5.717  16.958  0.0267 -0.1269 -0.2725
 1753TIP3    H126750   3.240   5.683  16.899 -1.4311 -1.1706 -1.3961
 1753TIP3    H226751   3.204   5.804  16.982  0.3749  0.6159 -3.1258
 1754TIP3   OH226752   1.949   4.532  16.878 -0.2018 -0.0765  0.2250
 1754TIP3    H126753   1.882   4.587  16.839 -0.8263 -1.3270 -0.5015
 1754TIP3    H226754   2.031   4.580  16.864 -0.5009 -0.1086 -1.9377
 1755TIP3   OH226755   6.210   0.882   4.422  0.3390  0.1461  0.6788
 1755TIP3    H126756   6.121   0.881   4.455 -0.1569 -0.6760 -0.5811
 1755TIP3    H226757   6.254   0.950   4.473 -0.8584  0.2120  1.6739
 1756TIP3   OH226758   0.108   4.852   3.574 -0.2682  0.3372  0.3514
 1756TIP3    H126759   0.017   4.874   3.593 -0.4557 -0.8302  0.9169
 1756TIP3    H226760   0.145   4.826   3.659 -0.0106 -1.2056 -0.1891
 1757TIP3   OH226761   0.373   6.514   2.483  0.7143 -0.1818  0.4827
 1757TIP3    H126762   0.340   6.539   2.396 -0.0289 -1.0729  0.4956
 1757TIP3    H226763   0.360   6.592   2.537 -0.0575 -0.0505  0.1200
 1758TIP3   OH226764   1.128   2.342   5.973 -0.3187  0.2985  0.6224
 1758TIP3    H126765   1.118   2.321   5.880  2.1412  0.0698  0.3431
 1758TIP3    H226766   1.057   2.295   6.016 -2.1969  1.2762 -1.2054
 1759TIP3   OH226767   5.728   4.637   3.439 -0.5894 -0.6009  0.0120
 1759TIP3    H126768   5.650   4.583   3.454 -0.4551 -0.2300  2.4215
 1759TIP3    H226769   5.746   4.678   3.523  2.0797 -0.4558 -0.5224
 1760TIP3   OH226770   2.587   1.609   6.336 -0.3379 -0.1684 -0.0841
 1760TIP3    H126771   2.593   1.580   6.428  2.3778  0.0581 -0.0950
 1760TIP3    H226772   2.677   1.632   6.313 -1.0520  0.3255 -2.6615
 1761TIP3   OH226773   1.093   1.538  16.546  0.2224 -0.0173  0.2469
 1761TIP3    H126774   1.141   1.608  16.590  1.9238 -1.8838  1.5943
 1761TIP3    H226775   1.028   1.510  16.611 -1.4428  1.1921 -0.8305
 1762TIP3   OH226776   1.312   3.275  13.176  0.5718 -0.7148 -0.2740
 1762TIP3    H126777   1.283   3.185  13.193  0.9463 -0.7513  0.1770
 1762TIP3    H226778   1.281   3.294  13.088  0.0757 -1.1227 -0.1922
 1763TIP3   OH226779   4.026   4.049   4.542 -0.3835 -0.1260 -0.3760
 1763TIP3    H126780   4.010   4.068   4.450  2.2701 -0.5106 -1.0026
 1763TIP3    H226781   4.046   3.955   4.544 -1.2366 -0.3032  0.7351
 1764TIP3   OH226782   0.643   2.446  17.106  0.7480 -0.3629 -0.0596
 1764TIP3    H126783   0.568   2.418  17.158  0.5834  1.2926  0.6760
 1764TIP3    H226784   0.686   2.365  17.079 -0.2367 -1.3029  1.0844
 1765TIP3   OH226785   4.799   2.959   0.787 -0.1781  0.4829  0.6631
 1765TIP3    H126786   4.781   2.875   0.745  4.0966 -0.5517  0.3975
 1765TIP3    H226787   4.818   3.019   0.715 -0.1587  0.8173  0.9426
 1766TIP3   OH226788   2.310   3.648   4.412  0.0350  0.1976 -0.0426
 1766TIP3    H126789   2.216   3.663   4.415 -0.4317 -2.3454  1.1993
 1766TIP3    H226790   2.339   3.691   4.332 -2.1873  0.9268 -0.5330
 1767TIP3   OH226791   4.239   6.564   4.474 -0.1870 -0.0030  0.2585
 1767TIP3    H126792   4.194   6.578   4.557  1.5839 -0.6153  1.3937
 1767TIP3    H226793   4.331   6.580   4.494  0.1500  1.1566 -1.9396
 1768TIP3   OH226794   4.117   4.829   3.747  0.0555 -0.2336  0.0380
 1768TIP3    H126795   4.160   4.915   3.741 -0.5131  0.1811  1.4975
 1768TIP3    H226796   4.118   4.809   3.840 -0.7045 -1.3722 -0.1901
 1769TIP3   OH226797   4.085   2.464   5.743 -0.7036  0.3587  0.2370
 1769TIP3    H126798   4.030   2.460   5.821 -0.8627  2.1135  0.2639
 1769TIP3    H226799   4.172   2.441   5.773 -1.1820 -1.3473  0.4184
 1770TIP3   OH226800   2.988   1.511  16.145  0.0384 -0.1472 -0.6624
 1770TIP3    H126801   2.970   1.423  16.111  0.2158 -0.9289  1.1127
 1770TIP3    H226802   2.956   1.508  16.236  1.5448  1.0933 -0.0560
 1771TIP3   OH226803   4.298   0.783   2.438 -0.3007  0.1425  0.2142
 1771TIP3    H126804   4.236   0.762   2.508 -1.4467  2.6517  0.0573
 1771TIP3    H226805   4.256   0.749   2.359  0.2003 -1.2060  0.5062
 1772TIP3   OH226806   6.033   2.455   5.401 -0.4393  0.3190  0.0638
 1772TIP3    H126807   5.997   2.377   5.358 -0.0442 -0.5374  1.2399
 1772TIP3    H226808   5.957   2.504   5.430 -0.6861  0.1269 -0.2504
 1773TIP3   OH226809   1.096   3.448  12.742  0.1181  0.4969 -1.0316
 1773TIP3    H126810   1.148   3.514  12.696 -0.1309  0.7486 -0.9533
 1773TIP3    H226811   1.060   3.393  12.672  1.2366 -0.2430 -1.0436
 1774TIP3   OH226812   6.572   3.654  11.292 -0.3925 -0.2377  0.6936
 1774TIP3    H126813   6.565   3.643  11.197  1.6973  1.0497  0.3208
 1774TIP3    H226814   6.644   3.596  11.317  1.3018  1.8430  0.9001
 1775TIP3   OH226815   5.796   0.220   3.477 -0.0349  0.2619  0.0709
 1775TIP3    H126816   5.800   0.130   3.447 -1.4803 -0.5174  1.9937
 1775TIP3    H226817   5.875   0.231   3.530 -0.4576 -0.3269  0.8557
 1776TIP3   OH226818   3.864   2.250   0.726  0.4710 -0.1828 -0.1948
 1776TIP3    H126819   3.831   2.191   0.795  0.7313 -0.2081 -0.0891
 1776TIP3    H226820   3.799   2.244   0.656 -1.2563  1.9150  1.1077
 1777TIP3   OH226821   3.092   6.115   0.345 -0.7316 -0.5497 -0.6233
 1777TIP3    H126822   3.108   6.102   0.439  1.1823 -0.3102 -0.8933
 1777TIP3    H226823   3.089   6.210   0.334  0.1393 -0.5612 -0.9714
 1778TIP3   OH226824   5.712   0.849   0.936 -0.4637 -0.3070 -0.0549
 1778TIP3    H126825   5.632   0.863   0.987 -1.6222 -0.2813 -1.7990
 1778TIP3    H226826   5.745   0.764   0.965 -2.1843 -1.2109 -0.6223
 1779TIP3   OH226827   5.111   5.310   2.440 -0.3063 -0.0889  0.1357
 1779TIP3    H126828   5.033   5.342   2.485 -0.0995  0.9151 -0.1891
 1779TIP3    H226829   5.179   5.373   2.461 -0.0542  0.0690 -1.0725
 1780TIP3   OH226830   2.831   4.552   1.383  0.0104 -0.4031 -0.0910
 1780TIP3    H126831   2.882   4.569   1.303  0.2149  1.8031  0.4702
 1780TIP3    H226832   2.867   4.612   1.448 -0.4036 -1.9051  1.6099
 1781TIP3   OH226833   4.194   0.742  11.231  0.3135  0.1895  0.8314
 1781TIP3    H126834   4.231   0.772  11.315 -1.1667  0.4979  1.4009
 1781TIP3    H226835   4.137   0.670  11.255  0.9564 -0.6573 -0.1128
 1782TIP3   OH226836   1.592   4.800   4.029  0.4547 -0.3224 -0.1739
 1782TIP3    H126837   1.537   4.873   4.057  1.3406 -0.0156  0.8433
 1782TIP3    H226838   1.658   4.792   4.098  2.0977 -0.2619 -1.6821
 1783TIP3   OH226839   4.137   4.071  15.810 -0.1958 -0.4651  0.4974
 1783TIP3    H126840   4.194   4.071  15.887  0.6514 -3.9742  0.0662
 1783TIP3    H226841   4.193   4.101  15.738  0.1144 -0.6864  0.6459
 1784TIP3   OH226842   0.919   0.101   3.817 -0.3928  0.4322 -0.6019
 1784TIP3    H126843   0.944   0.086   3.908  0.0110  0.5031 -0.6977
 1784TIP3    H226844   0.825   0.116   3.820 -0.8064 -1.8078 -0.4566
 1785TIP3   OH226845   2.023   0.318   5.166  0.1259  0.4739  0.2223
 1785TIP3    H126846   1.963   0.345   5.096 -0.6293 -0.6533  0.4056
 1785TIP3    H226847   1.965   0.297   5.239  0.7667 -0.3445  0.5061
 1786TIP3   OH226848   1.563   1.089  11.972  0.1648 -0.1176  0.9459
 1786TIP3    H126849   1.525   1.112  12.057 -1.2849  0.5432  0.1467
 1786TIP3    H226850   1.488   1.079  11.914  1.1357 -0.5528 -0.2787
 1787TIP3   OH226851   6.582   3.619   0.263 -0.2732 -0.2365 -0.3725
 1787TIP3    H126852   6.644   3.567   0.313  0.0794  1.0843  0.5993
 1787TIP3    H226853   6.503   3.622   0.317 -0.5928 -0.4487 -0.8144
 1788TIP3   OH226854   4.052   3.142  12.483 -1.2567 -0.3421  0.1336
 1788TIP3    H126855   4.103   3.087  12.543 -0.9467  0.9944  1.1477
 1788TIP3    H226856   4.076   3.231  12.507 -2.6080  0.2671 -0.7012
 1789TIP3   OH226857   3.002   5.254   3.334  0.2823  0.1185  0.1166
 1789TIP3    H126858   3.083   5.297   3.360 -0.4850  2.8179 -1.6471
 1789TIP3    H226859   3.021   5.216   3.248  0.0789 -0.6108  0.3789
 1790TIP3   OH226860   2.378   6.435  14.062 -0.0001  0.0441 -0.7532
 1790TIP3    H126861   2.463   6.395  14.080  0.2973  1.1015  0.3784
 1790TIP3    H226862   2.394   6.496  13.991  0.4561  1.0078  0.1492
 1791TIP3   OH226863   2.249   4.946  15.414 -0.5951  0.5374 -0.0300
 1791TIP3    H126864   2.156   4.969  15.416 -0.6248  0.4304 -0.1505
 1791TIP3    H226865   2.250   4.859  15.374 -0.6252 -0.3064  1.7172
 1792TIP3   OH226866   6.002   0.955   5.834 -0.3538  0.5660 -0.5122
 1792TIP3    H126867   6.036   1.042   5.811 -0.6915  0.5867 -0.9316
 1792TIP3    H226868   6.008   0.952   5.929  0.9907  0.5076 -0.5768
 1793TIP3   OH226869   3.215   6.849   4.435  0.0782  0.3849  0.2312
 1793TIP3    H126870   3.267   6.910   4.383  1.9594 -1.6394 -0.4361
 1793TIP3    H226871   3.255   6.764   4.419 -1.8688 -0.9285  1.8051
 1794TIP3   OH226872   5.191   3.549  16.794 -0.6560  0.4648  0.6588
 1794TIP3    H126873   5.248   3.476  16.770  0.0005  0.9062  0.8700
 1794TIP3    H226874   5.102   3.513  16.786 -0.3471 -0.2959  0.5644
 1795TIP3   OH226875   3.303   4.148   5.372  0.1094 -0.0318 -0.1525
 1795TIP3    H126876   3.253   4.110   5.301 -2.1743  1.3684  0.6128
 1795TIP3    H226877   3.243   4.149   5.447  0.8835  2.5816  0.5646
 1796TIP3   OH226878   6.436   3.124  15.163 -0.1194  0.0161 -0.2149
 1796TIP3    H126879   6.499   3.063  15.203  0.3820  0.3924 -0.4124
 1796TIP3    H226880   6.446   3.204  15.213 -3.1919 -0.9833  2.2861
 1797TIP3   OH226881   5.941   6.797  11.187 -0.0044 -0.0282 -0.2939
 1797TIP3    H126882   5.952   6.863  11.119  2.7416 -0.9933 -0.9325
 1797TIP3    H226883   5.966   6.842  11.268 -0.5502  0.3777 -0.3496
 1798TIP3   OH226884   6.030   0.771  13.700 -0.0282  0.4101  0.3410
 1798TIP3    H126885   5.996   0.699  13.753  0.5282 -2.3087 -2.6967
 1798TIP3    H226886   5.956   0.831  13.692 -1.3966 -1.1113  0.8846
 1799TIP3   OH226887   5.283   5.738  17.191 -0.2729  0.8812 -0.5613
 1799TIP3    H126888   5.318   5.757  17.104 -0.1876 -0.4241 -0.8326
 1799TIP3    H226889   5.325   5.656  17.217  0.1159  1.5177  0.9501
 1800TIP3   OH226890   5.047   1.390   3.956  0.6329  0.2555  0.2159
 1800TIP3    H126891   5.023   1.364   3.867 -0.0753  1.7486 -0.0593
 1800TIP3    H226892   5.006   1.475   3.968  1.1256  0.2994  1.8136
 1801TIP3   OH226893   6.356   4.346  13.695 -0.4362  0.0874  0.0632
 1801TIP3    H126894   6.281   4.315  13.746 -2.0200  0.9395 -1.6306
 1801TIP3    H226895   6.402   4.267  13.670 -0.9727 -0.4837  0.8331
 1802TIP3   OH226896   2.048   1.314   0.794  0.6462  0.1031  0.5920
 1802TIP3    H126897   1.978   1.257   0.827  0.3704  0.4959  0.6982
 1802TIP3    H226898   2.008   1.361   0.721  0.9036  0.0815  0.4372
 1803TIP3   OH226899   0.935   0.568  10.966  0.0690  0.5346 -0.5751
 1803TIP3    H126900   1.015   0.530  10.931  0.2174  0.7559 -0.4799
 1803TIP3    H226901   0.905   0.629  10.898 -0.5545 -0.2715 -1.0301
 1804TIP3   OH226902   3.870   3.203  12.293 -0.8298 -0.0864  0.0978
 1804TIP3    H126903   3.910   3.286  12.267  0.2198 -0.6854 -0.2771
 1804TIP3    H226904   3.928   3.169  12.362 -0.6718 -0.9743 -0.4540
 1805TIP3   OH226905   0.958   5.238  14.107  0.2860  0.3144  0.9474
 1805TIP3    H126906   0.891   5.176  14.137  0.4303 -0.5281 -0.3939
 1805TIP3    H226907   0.975   5.293  14.184  0.1390 -1.2871  2.1999
 1806TIP3   OH226908   3.103   5.638   2.985  0.2065 -0.7021  0.0599
 1806TIP3    H126909   3.165   5.644   2.912  0.0767 -3.4713 -0.4213
 1806TIP3    H226910   3.024   5.681   2.952  1.1291  0.9030 -0.1646
 1807TIP3   OH226911   1.848   3.488   4.093 -0.1640  0.7206 -0.7923
 1807TIP3    H126912   1.912   3.555   4.069  1.3651 -0.2946  0.2633
 1807TIP3    H226913   1.861   3.475   4.187  0.8467 -2.2374 -1.2224
 1808TIP3   OH226914   2.667   1.383  14.801  0.0112 -0.3158  0.1209
 1808TIP3    H126915   2.642   1.360  14.890 -0.2740 -1.0828 -0.1433
 1808TIP3    H226916   2.586   1.372  14.750  0.3094 -0.4554 -0.3297
 1809TIP3   OH226917   5.219   6.815  16.153  0.6359 -0.3414 -0.0207
 1809TIP3    H126918   5.219   6.910  16.139 -0.1459 -0.4752 -0.9429
 1809TIP3    H226919   5.299   6.799  16.204  0.5993  0.8478  0.4373
 1810TIP3   OH226920   2.416   2.729   2.052 -0.2380  0.3823  0.4999
 1810TIP3    H126921   2.408   2.770   2.138 -0.1040 -0.1070  0.7518
 1810TIP3    H226922   2.508   2.705   2.045  0.0018  1.4793 -0.2812
 1811TIP3   OH226923   6.754   1.567  11.447  0.2817  0.1923  0.2217
 1811TIP3    H126924   6.671   1.539  11.407 -0.3108  0.6782  1.0833
 1811TIP3    H226925   6.735   1.571  11.541  1.1338  0.8176  0.3719
 1812TIP3   OH226926   2.421   1.544  12.602  0.0084  0.2152  0.1832
 1812TIP3    H126927   2.377   1.599  12.537  0.5403  0.2251 -0.1811
 1812TIP3    H226928   2.514   1.565  12.592  0.4858 -2.1169 -1.3400
 1813TIP3   OH226929   4.795   5.138  14.777 -0.2727  0.4677 -0.6074
 1813TIP3    H126930   4.853   5.214  14.773  1.2985 -0.6272  0.2704
 1813TIP3    H226931   4.764   5.136  14.867 -0.7066  0.3586 -0.7594
 1814TIP3   OH226932   6.832   1.733   4.717 -0.2895 -0.0245 -0.2933
 1814TIP3    H126933   6.900   1.682   4.673  1.7915  1.4545  0.9748
 1814TIP3    H226934   6.776   1.668   4.758  1.2631 -1.3315 -0.1484
 1815TIP3   OH226935   3.752   4.908  16.684 -0.3162  0.4146 -0.0775
 1815TIP3    H126936   3.831   4.856  16.676 -0.2583  0.6523 -1.3958
 1815TIP3    H226937   3.704   4.870  16.758  0.1341 -0.9291 -0.4558
 1816TIP3   OH226938   4.839   2.753  13.403 -0.1329  0.2219  0.1331
 1816TIP3    H126939   4.840   2.708  13.318 -0.1854  0.2396  0.1232
 1816TIP3    H226940   4.913   2.716  13.451  1.0357  1.5100 -0.5905
 1817TIP3   OH226941   2.126   3.332   2.097 -0.3711 -0.0728  0.0490
 1817TIP3    H126942   2.136   3.328   2.192 -0.7248 -1.0458  0.0558
 1817TIP3    H226943   2.074   3.255   2.075 -0.8202  0.4776 -0.8714
 1818TIP3   OH226944   4.647   1.826   4.092  0.5385 -0.3291 -0.3384
 1818TIP3    H126945   4.658   1.819   4.187 -0.9922 -0.6518 -0.1631
 1818TIP3    H226946   4.679   1.913   4.070  1.0927 -0.3272  0.4348
 1819TIP3   OH226947   1.839   2.523   3.157  0.4652 -0.3282  0.5146
 1819TIP3    H126948   1.922   2.570   3.144 -0.3325  1.5123  1.5668
 1819TIP3    H226949   1.847   2.484   3.244  0.9308 -1.8185 -0.1601
 1820TIP3   OH226950   1.792   1.390   2.600 -0.1500  0.5466  0.3972
 1820TIP3    H126951   1.800   1.307   2.552  0.0377  1.5174 -1.3072
 1820TIP3    H226952   1.789   1.363   2.692  1.4731 -1.2656 -0.0071
 1821TIP3   OH226953   5.902   4.561  15.252 -0.0793 -0.3058  0.0922
 1821TIP3    H126954   5.985   4.603  15.230  0.8834 -2.5056 -0.7312
 1821TIP3    H226955   5.904   4.554  15.348  0.3955  0.2004  0.1268
 1822TIP3   OH226956   5.627   3.991  15.407 -0.1332 -0.2519  0.1353
 1822TIP3    H126957   5.687   4.035  15.468 -1.6532  0.3860  1.2177
 1822TIP3    H226958   5.659   3.901  15.403 -0.2593 -0.4268  2.2553
 1823TIP3   OH226959   1.336   3.626  10.704  0.6105  0.2998 -0.2431
 1823TIP3    H126960   1.244   3.651  10.695  0.2971 -0.1675  1.3963
 1823TIP3    H226961   1.352   3.569  10.629 -0.1913  1.0406 -1.0071
 1824TIP3   OH226962   5.879   3.390  16.845  0.0795 -0.4644 -0.1758
 1824TIP3    H126963   5.877   3.424  16.934 -3.0164  2.3620 -1.1050
 1824TIP3    H226964   5.787   3.382  16.819  0.7094  1.8651 -4.0170
 1825TIP3   OH226965   4.019   0.219  13.051  0.5003  0.5149  0.3407
 1825TIP3    H126966   4.008   0.164  12.972 -1.3380 -0.1077  0.9767
 1825TIP3    H226967   4.077   0.168  13.107  0.0028 -0.0961  0.3096
 1826TIP3   OH226968   3.693   5.673  11.606  0.3505 -0.0407 -0.5075
 1826TIP3    H126969   3.717   5.583  11.629 -1.0580 -0.4010 -0.3776
 1826TIP3    H226970   3.756   5.727  11.655 -0.6727 -0.8763  1.8747
 1827TIP3   OH226971   5.882   3.822  12.096  0.3997 -0.6828 -0.5921
 1827TIP3    H126972   5.859   3.806  12.004  1.5924  1.9571 -1.4438
 1827TIP3    H226973   5.953   3.761  12.114  0.3728 -1.0018 -1.5175
 1828TIP3   OH226974   3.850   4.021   0.181 -0.2408 -0.1352  0.2490
 1828TIP3    H126975   3.910   3.957   0.220  1.3536  1.4653  0.5655
 1828TIP3    H226976   3.892   4.105   0.197 -1.1086  0.8394 -2.1905
 1829TIP3   OH226977   2.253   5.648   2.512  0.7028  0.5669 -0.0451
 1829TIP3    H126978   2.217   5.722   2.560  0.7057  0.7629 -0.3378
 1829TIP3    H226979   2.273   5.582   2.579  0.9018  0.9137  0.2382
 1830TIP3   OH226980   4.579   4.154   6.797  0.0155  0.1159  0.1469
 1830TIP3    H126981   4.550   4.073   6.840  0.9690  0.3202  1.2229
 1830TIP3    H226982   4.644   4.125   6.734  0.8529  0.0836  1.0038
 1831TIP3   OH226983   4.661   4.236  17.197  0.3032  0.2677 -0.0228
 1831TIP3    H126984   4.604   4.263  17.124 -0.3172 -1.8671 -0.3871
 1831TIP3    H226985   4.748   4.267  17.172  0.0661 -0.2392 -1.5883
 1832TIP3   OH226986   3.363   0.097  12.866  0.6094  0.4260 -0.3196
 1832TIP3    H126987   3.363   0.039  12.942  3.6292  0.5552 -0.1218
 1832TIP3    H226988   3.318   0.047  12.798  1.2311 -1.2967  0.4677
 1833TIP3   OH226989   6.238   6.113  11.623 -0.1976  0.4896 -0.6819
 1833TIP3    H126990   6.224   6.055  11.548 -0.8811  0.2549 -0.3755
 1833TIP3    H226991   6.159   6.167  11.626 -3.2624 -3.4410  3.4225
 1834TIP3   OH226992   6.551   4.897  11.279 -0.0001 -0.4601  0.0530
 1834TIP3    H126993   6.467   4.916  11.239  0.2518 -1.0709 -0.7907
 1834TIP3    H226994   6.583   4.820  11.233  1.1128 -0.1275  0.2358
 1835TIP3   OH226995   4.110   1.145  13.544 -0.0943  0.2608 -0.3756
 1835TIP3    H126996   4.168   1.080  13.584 -2.8530 -0.8709  2.1953
 1835TIP3    H226997   4.078   1.103  13.464  0.9560  0.0528 -0.7055
 1836TIP3   OH226998   2.520   3.275   3.047  0.2016 -0.6131  0.1191
 1836TIP3    H126999   2.535   3.181   3.048 -2.1316 -1.0961 -1.4257
 1836TIP3    H227000   2.563   3.308   3.126  1.9433 -2.7953  0.1499
 1837TIP3   OH227001   6.401   4.092  13.585 -0.4147  0.1687 -0.0112
 1837TIP3    H127002   6.425   4.044  13.664  0.9634 -0.3791 -0.7305
 1837TIP3    H227003   6.317   4.055  13.558  1.6099 -3.7422 -1.8881
 1838TIP3   OH227004   1.842   2.018   2.065  0.0397 -0.2162 -0.0841
 1838TIP3    H127005   1.909   1.962   2.026  0.9167  0.8903 -0.2311
 1838TIP3    H227006   1.800   1.963   2.132  1.7217 -0.6694  0.6588
 1839TIP3   OH227007   5.783   4.128   3.259  0.3018 -0.9671 -0.1729
 1839TIP3    H127008   5.728   4.165   3.327 -2.5121 -1.4033 -2.0118
 1839TIP3    H227009   5.827   4.053   3.300 -1.1798 -1.1166  1.2100
 1840TIP3   OH227010   0.996   0.181  15.443 -0.2107  0.0663  0.2281
 1840TIP3    H127011   0.903   0.191  15.423 -0.1467  0.2384  0.0151
 1840TIP3    H227012   1.039   0.251  15.394  0.0398 -0.0647  0.2586
 1841TIP3   OH227013   2.559   1.968   0.022  0.0807  0.4033 -0.1657
 1841TIP3    H127014   2.526   1.903   0.085  0.6459 -0.3384 -0.6241
 1841TIP3    H227015   2.636   2.005   0.065  0.9778 -0.7159 -0.7489
 1842TIP3   OH227016   0.826   1.748  13.245  0.2668 -0.2576 -0.3844
 1842TIP3    H127017   0.916   1.755  13.213  0.0339  2.0098 -0.6687
 1842TIP3    H227018   0.835   1.723  13.336  1.2030  0.0989 -0.3695
 1843TIP3   OH227019   6.644   0.963   3.936 -0.0379 -0.4442 -0.0564
 1843TIP3    H127020   6.661   0.961   3.841 -0.1125  1.0701 -0.1154
 1843TIP3    H227021   6.560   0.919   3.946 -0.6476  0.5044 -0.8531
 1844TIP3   OH227022   2.182   0.002  14.745  0.3902  0.3956  0.2203
 1844TIP3    H127023   2.189   0.067  14.815  1.7643  0.7289 -0.2008
 1844TIP3    H227024   2.172  -0.082  14.791  0.6834  0.6763  0.8010
 1845TIP3   OH227025   3.985   2.344   5.516 -0.2409  0.3424  0.4759
 1845TIP3    H127026   4.042   2.358   5.591  0.5674 -0.0310 -0.0643
 1845TIP3    H227027   4.004   2.418   5.458  0.9670 -0.6723 -0.4779
 1846TIP3   OH227028   0.370   1.371  11.567 -0.3794  0.5004  0.1041
 1846TIP3    H127029   0.434   1.421  11.516 -0.1743  0.4556  0.3194
 1846TIP3    H227030   0.292   1.370  11.512  0.7758 -2.2545 -1.6959
 1847TIP3   OH227031   1.551   1.063  10.394 -0.1345 -0.8573 -0.1893
 1847TIP3    H127032   1.482   1.108  10.345  0.3160  1.5321  1.1878
 1847TIP3    H227033   1.631   1.082  10.346  0.1019  0.1917  0.5753
 1848TIP3   OH227034   5.636   3.405   3.600 -0.3980  0.1053 -0.4833
 1848TIP3    H127035   5.641   3.335   3.535 -0.7985  0.1501 -0.5629
 1848TIP3    H227036   5.569   3.377   3.662 -0.4956  0.3771 -0.4657
 1849TIP3   OH227037   4.632   3.464  14.095 -0.1185  0.5573  0.5280
 1849TIP3    H127038   4.543   3.439  14.117  0.2773 -0.4553  1.0495
 1849TIP3    H227039   4.687   3.413  14.154  0.9119 -0.6667 -1.3575
 1850TIP3   OH227040   6.222   3.088   0.749  0.0876  0.3669  0.3104
 1850TIP3    H127041   6.148   3.098   0.689 -0.2077 -0.0882  0.5976
 1850TIP3    H227042   6.292   3.052   0.694 -0.3861 -0.6673  0.3768
 1851TIP3   OH227043   6.065   1.136  14.340 -0.1224 -0.1929 -0.4272
 1851TIP3    H127044   6.112   1.146  14.257  0.6820 -0.1864  0.0212
 1851TIP3    H227045   6.013   1.056  14.329  0.0233 -0.2221 -0.9115
 1852TIP3   OH227046   5.512   0.484   0.726  0.1952 -0.0739  0.7036
 1852TIP3    H127047   5.479   0.525   0.806 -2.2048  0.0361 -0.2742
 1852TIP3    H227048   5.436   0.441   0.687  1.5828 -1.2556 -0.8718
 1853TIP3   OH227049   5.067   5.326  14.184 -0.5694  0.1938 -0.4438
 1853TIP3    H127050   5.123   5.352  14.111 -0.1066 -1.7608 -0.8506
 1853TIP3    H227051   5.126   5.320  14.259 -0.8056  0.9600 -0.1886
 1854TIP3   OH227052   5.373   0.833   2.605 -0.2914 -0.0614  1.1524
 1854TIP3    H127053   5.339   0.779   2.534 -1.4615  0.2190  1.4862
 1854TIP3    H227054   5.462   0.800   2.619  0.2847  0.4085 -0.9847
 1855TIP3   OH227055   2.916   4.061  12.846  0.0820  0.4369  0.2356
 1855TIP3    H127056   2.951   4.114  12.917  1.1188  1.0838 -0.7280
 1855TIP3    H227057   2.898   3.976  12.886  0.3807  0.8668  1.3164
 1856TIP3   OH227058   5.569   4.067  11.309 -0.3953  0.6398 -0.4478
 1856TIP3    H127059   5.500   4.132  11.297 -1.2439 -0.0546  0.4614
 1856TIP3    H227060   5.622   4.101  11.381 -0.1386  0.8779 -0.7447
 1857TIP3   OH227061   4.251   0.193  13.200 -0.0917 -0.0530  0.2784
 1857TIP3    H127062   4.307   0.126  13.238 -2.1293 -1.1952  1.4606
 1857TIP3    H227063   4.222   0.245  13.275  0.6828  1.6003 -0.5140
 1858TIP3   OH227064   3.250   6.639   3.475 -0.3610 -0.1402 -0.0001
 1858TIP3    H127065   3.238   6.630   3.570  0.1415 -1.4030 -0.0273
 1858TIP3    H227066   3.163   6.620   3.438 -1.0458  2.2224  0.2485
 1859TIP3   OH227067   3.517   3.485   3.245  0.0286 -0.1665  0.0764
 1859TIP3    H127068   3.474   3.532   3.316  0.7755 -0.4180  0.7193
 1859TIP3    H227069   3.449   3.430   3.207 -0.8255  1.3136 -0.6059
 1860TIP3   OH227070   4.428   0.423  12.528  0.1021  0.1782  0.2142
 1860TIP3    H127071   4.335   0.447  12.528 -0.1453 -0.7016 -0.8385
 1860TIP3    H227072   4.472   0.497  12.571 -0.9959  0.9519  0.0540
 1861TIP3   OH227073   6.554   5.835   0.972  0.4351 -0.0999 -0.3897
 1861TIP3    H127074   6.635   5.883   0.956  0.0288  0.5624 -0.4652
 1861TIP3    H227075   6.554   5.820   1.067  1.4143 -1.5003 -0.5723
 1862TIP3   OH227076   2.176   1.122  15.067  0.6306 -0.4306 -0.0529
 1862TIP3    H127077   2.254   1.137  15.120  0.4755  2.5120 -0.5396
 1862TIP3    H227078   2.210   1.106  14.979  0.7203 -0.2472 -0.0519
 1863TIP3   OH227079   3.931   4.581   0.223 -0.2186 -0.6968 -0.7094
 1863TIP3    H127080   3.987   4.526   0.278 -0.3937 -2.0735 -1.8347
 1863TIP3    H227081   3.986   4.655   0.199 -0.4313  0.5081  2.0646
 1864TIP3   OH227082   3.111   2.917  11.520  0.7395 -0.0303  0.0461
 1864TIP3    H127083   3.078   2.933  11.431  0.4698 -2.5620 -0.3802
 1864TIP3    H227084   3.072   2.987  11.572 -1.1637  0.0761 -1.3896
 1865TIP3   OH227085   4.476   1.231   1.936 -0.3563 -0.5294  0.8000
 1865TIP3    H127086   4.448   1.254   1.848  1.0391  0.3534  0.5631
 1865TIP3    H227087   4.395   1.224   1.986 -1.0699  2.4193  0.2606
 1866TIP3   OH227088   5.208   4.684  14.734  0.0058 -0.3804  0.0670
 1866TIP3    H127089   5.205   4.709  14.642 -0.2762 -0.8356 -0.0497
 1866TIP3    H227090   5.121   4.705  14.768  0.6301  1.3733  0.6572
 1867TIP3   OH227091   0.055   4.312  12.050 -0.3901  0.1801 -0.2674
 1867TIP3    H127092   0.011   4.391  12.082 -0.9381  0.3123 -1.2869
 1867TIP3    H227093   0.139   4.343  12.016 -0.3266  0.2278 -0.0648
 1868TIP3   OH227094   6.252   4.237   2.473 -0.2489 -0.0335  0.3269
 1868TIP3    H127095   6.263   4.229   2.568 -1.1760 -2.0154  0.3137
 1868TIP3    H227096   6.159   4.259   2.462  0.4196  3.1317 -0.0795
 1869TIP3   OH227097   0.332   3.171   2.101 -0.1018 -0.5580 -0.1362
 1869TIP3    H127098   0.360   3.211   2.019  0.2765  3.0334  1.5427
 1869TIP3    H227099   0.239   3.195   2.108 -0.0784 -0.6501  0.5626
 1870TIP3   OH227100   5.323   2.526  13.394  0.5100  0.1495  0.1690
 1870TIP3    H127101   5.236   2.487  13.402  1.2554 -1.2169  3.0137
 1870TIP3    H227102   5.312   2.616  13.423  0.3223 -0.6201  2.7566
 1871TIP3   OH227103   4.785   4.241  16.139  0.2828 -0.3050  0.5576
 1871TIP3    H127104   4.802   4.147  16.132 -0.8984 -0.6875  2.3301
 1871TIP3    H227105   4.860   4.276  16.187 -0.5335 -0.8461  2.3116
 1872TIP3   OH227106   1.527   4.163  11.455  0.2626  0.0975  0.1433
 1872TIP3    H127107   1.564   4.210  11.529 -0.3763  0.2582  0.3673
 1872TIP3    H227108   1.483   4.088  11.494 -1.0455  0.7892  0.0481
 1873TIP3   OH227109   1.762   5.119  13.001 -0.2403  0.0982 -0.1779
 1873TIP3    H127110   1.759   5.201  12.952 -0.5168  0.5565  0.5879
 1873TIP3    H227111   1.744   5.051  12.936  1.4942  0.4883 -1.1325
 1874TIP3   OH227112   3.558   4.213   1.170  0.2760 -0.2846  0.1496
 1874TIP3    H127113   3.471   4.229   1.208  0.3084 -1.4846  0.7860
 1874TIP3    H227114   3.618   4.258   1.229  0.1433 -0.1602  0.1896
 1875TIP3   OH227115   2.994   5.021   5.447 -0.0519  0.2982  0.8593
 1875TIP3    H127116   3.073   4.968   5.435 -1.1850 -1.2628 -0.1611
 1875TIP3    H227117   2.996   5.084   5.375 -1.2795 -1.8515 -1.1895
 1876TIP3   OH227118   3.105   1.003   0.379 -0.3962 -0.4381  0.0788
 1876TIP3    H127119   3.065   1.088   0.392  0.4345  0.2391 -1.4793
 1876TIP3    H227120   3.051   0.961   0.312  0.7311  0.0080 -1.1655
 1877TIP3   OH227121   3.127   4.492  13.253 -0.1772  0.6305 -0.5141
 1877TIP3    H127122   3.163   4.574  13.218 -1.4557  1.5357  0.2066
 1877TIP3    H227123   3.079   4.518  13.332  0.5293 -1.0176  0.5127
 1878TIP3   OH227124   5.231   3.827  14.755 -0.2697 -0.2794 -0.3445
 1878TIP3    H127125   5.234   3.733  14.737 -1.4804 -0.1904 -1.1441
 1878TIP3    H227126   5.137   3.847  14.765  0.0835  0.3568  2.6749
 1879TIP3   OH227127   0.631   1.769   2.779  0.2961 -0.0464 -0.3308
 1879TIP3    H127128   0.627   1.843   2.718  1.4945  0.3395  0.0161
 1879TIP3    H227129   0.713   1.725   2.757  0.2362 -0.4974  0.3336
 1880TIP3   OH227130   2.093   4.881   1.411  0.1034  0.1379 -0.0555
 1880TIP3    H127131   2.036   4.825   1.359  1.6146 -1.8476  0.3096
 1880TIP3    H227132   2.161   4.910   1.350  1.1126 -1.0872  0.4410
 1881TIP3   OH227133   4.719   1.251   2.104  0.0650 -0.7320  0.4182
 1881TIP3    H127134   4.710   1.328   2.160  1.0006 -0.8477  0.7328
 1881TIP3    H227135   4.639   1.252   2.051  0.1001  0.5105  0.3398
 1882TIP3   OH227136   0.972   0.151  13.936 -0.0354  0.5691  0.0493
 1882TIP3    H127137   0.958   0.116  13.848 -0.9559  1.1196 -0.0255
 1882TIP3    H227138   1.054   0.109  13.964 -1.6687 -2.6672  0.4575
 1883TIP3   OH227139   1.302   5.488  14.715 -0.2750  0.6299 -0.2839
 1883TIP3    H127140   1.224   5.527  14.754  0.0658  0.8509  0.1856
 1883TIP3    H227141   1.376   5.532  14.758  0.1108  0.5842 -0.8808
 1884TIP3   OH227142   2.992   6.643   0.977  0.0767 -0.1064  0.7233
 1884TIP3    H127143   2.939   6.716   0.945  1.7452  1.0187  0.3968
 1884TIP3    H227144   3.065   6.637   0.914  1.1076 -0.6423  1.9289
 1885TIP3   OH227145   6.157   4.082   2.110  0.3970  0.0358  0.4282
 1885TIP3    H127146   6.169   4.058   2.202 -1.1585  1.7367  1.1272
 1885TIP3    H227147   6.160   3.998   2.063  0.9523 -0.8941  2.0379
 1886TIP3   OH227148   3.741   0.431   0.229  0.2327  0.1318  0.5130
 1886TIP3    H127149   3.667   0.456   0.174 -0.3133  0.3923  1.3340
 1886TIP3    H227150   3.815   0.425   0.169 -0.5852 -0.8525 -0.4609
 1887TIP3   OH227151   6.347   2.350  15.729  0.2160 -0.4327 -0.0259
 1887TIP3    H127152   6.263   2.325  15.767  0.2591 -0.5482 -0.0060
 1887TIP3    H227153   6.406   2.358  15.804  0.5261 -1.5170 -0.1301
 1888TIP3   OH227154   2.006   3.743   0.203  0.3940  0.0745  0.2946
 1888TIP3    H127155   1.962   3.659   0.188 -1.0794  0.8631  0.0334
 1888TIP3    H227156   1.955   3.784   0.274  1.6852  0.3447  1.0969
 1889TIP3   OH227157   5.970   1.730  16.360  0.2498 -0.1014  0.1146
 1889TIP3    H127158   6.011   1.672  16.424 -0.8670 -0.1271  0.8329
 1889TIP3    H227159   6.039   1.748  16.296  1.6303  0.5736  1.7317
 1890TIP3   OH227160   5.011   3.758  15.954  0.6163  0.2100 -0.0943
 1890TIP3    H127161   5.068   3.682  15.961  0.8511  0.3688 -0.2581
 1890TIP3    H227162   4.988   3.762  15.861 -1.4008 -1.1045  0.2940
 1891TIP3   OH227163   6.418   3.415   4.005 -0.0548  0.4300 -0.0386
 1891TIP3    H127164   6.464   3.331   4.007  0.3201  0.6418  0.7382
 1891TIP3    H227165   6.361   3.410   3.928  0.7080 -0.1401 -0.5804
 1892TIP3   OH227166   4.670   4.754   0.410 -0.4591  0.4518 -0.1533
 1892TIP3    H127167   4.627   4.782   0.491 -2.9579  1.8335 -1.8369
 1892TIP3    H227168   4.731   4.826   0.391 -1.5201  1.2599 -0.6247
 1893TIP3   OH227169   6.627   2.256   5.037 -0.2231 -0.0489  0.6893
 1893TIP3    H127170   6.532   2.248   5.040 -0.1675 -0.6109  1.1273
 1893TIP3    H227171   6.655   2.183   4.982 -0.1841  1.4160 -1.3422
 1894TIP3   OH227172   3.028   6.295  14.734 -0.0720 -0.2599  0.0538
 1894TIP3    H127173   3.115   6.334  14.730  0.2805 -0.9046  1.0202
 1894TIP3    H227174   3.043   6.202  14.720 -0.8218 -0.1665 -1.5539
 1895TIP3   OH227175   5.790   4.097   5.426  0.0093  1.0072  0.0114
 1895TIP3    H127176   5.815   4.089   5.519 -0.8843  0.9610  0.2582
 1895TIP3    H227177   5.809   4.188   5.403  1.0468  0.8013 -0.0177
 1896TIP3   OH227178   0.857   4.181  11.475 -0.7113 -0.5365 -0.4575
 1896TIP3    H127179   0.781   4.140  11.434 -1.5672  0.4303  0.1057
 1896TIP3    H227180   0.856   4.150  11.565 -0.2808 -0.7210 -0.5150
 1897TIP3   OH227181   3.945   1.709   4.082 -0.3695  0.0936  0.0640
 1897TIP3    H127182   4.011   1.692   4.014 -0.2923 -1.4335  0.4854
 1897TIP3    H227183   3.862   1.697   4.038 -0.3360  0.1166 -0.0052
 1898TIP3   OH227184   0.328   2.413  12.127 -0.7350  0.4179  0.2996
 1898TIP3    H127185   0.320   2.503  12.159  1.0003  0.2709  1.2951
 1898TIP3    H227186   0.421   2.403  12.106 -0.9548 -1.0426 -0.0889
 1899TIP3   OH227187   2.677   1.619  12.548  0.2537  0.2506 -0.7925
 1899TIP3    H127188   2.680   1.682  12.476  1.2773  1.2645  0.0937
 1899TIP3    H227189   2.728   1.544  12.516  1.5663  1.1031 -0.7777
 1900TIP3   OH227190   0.111   0.599   1.263 -0.2822 -0.2657 -0.1477
 1900TIP3    H127191   0.117   0.520   1.315 -1.0920 -0.8033 -0.8437
 1900TIP3    H227192   0.101   0.670   1.327  1.1867 -0.6248  0.5033
 1901TIP3   OH227193   1.841   0.890   1.478 -0.2238 -0.3542 -0.1849
 1901TIP3    H127194   1.840   0.929   1.391  1.6849 -1.0154 -0.5504
 1901TIP3    H227195   1.786   0.812   1.470 -3.9585  1.9571  0.5142
 1902TIP3   OH227196   3.216   3.917   1.079 -0.0678 -0.2404 -0.1759
 1902TIP3    H127197   3.142   3.879   1.033 -0.4137 -1.5403  1.3671
 1902TIP3    H227198   3.203   4.012   1.072 -1.0370 -0.4307 -1.1907
 1903TIP3   OH227199   0.998   1.643   2.573 -0.5179  0.6039  0.0516
 1903TIP3    H127200   0.986   1.640   2.668 -0.2929  1.8419  0.1278
 1903TIP3    H227201   1.072   1.585   2.557 -0.0473  0.9979  0.7267
 1904TIP3   OH227202   1.121   1.738   1.000 -0.2170  0.3052  0.7377
 1904TIP3    H127203   1.214   1.756   1.016 -0.5555  1.6975  1.3382
 1904TIP3    H227204   1.090   1.815   0.953 -0.8024 -0.7197 -0.6121
 1905TIP3   OH227205   4.347   2.997   3.904  0.3712 -0.4521  0.1513
 1905TIP3    H127206   4.281   2.930   3.887 -1.8294  1.7233 -0.5159
 1905TIP3    H227207   4.327   3.029   3.992 -1.3759  2.0690 -1.0356
 1906TIP3   OH227208   6.341   6.197  15.461 -0.3128 -0.3769 -0.0185
 1906TIP3    H127209   6.260   6.177  15.508  0.5313 -4.2668  0.0962
 1906TIP3    H227210   6.403   6.220  15.530 -0.8143  0.9488  0.0314
 1907TIP3   OH227211   2.537   5.476  11.480  0.4713 -0.1924 -0.1607
 1907TIP3    H127212   2.562   5.533  11.552 -1.1677  2.4569 -1.5479
 1907TIP3    H227213   2.447   5.500  11.460  0.8179 -0.8952 -3.0234
 1908TIP3   OH227214   1.510   1.553   5.516 -0.5264 -0.5711  0.0963
 1908TIP3    H127215   1.550   1.568   5.602  0.5587  0.5919 -0.5665
 1908TIP3    H227216   1.582   1.568   5.454 -0.8257 -3.0853 -0.9601
 1909TIP3   OH227217   2.121   4.434   1.826 -0.2816 -0.4218 -0.0766
 1909TIP3    H127218   2.119   4.355   1.772 -0.1153 -0.5020  0.0335
 1909TIP3    H227219   2.179   4.494   1.780  0.9580 -0.9918  0.6969
 1910TIP3   OH227220   0.048   1.733  17.020  0.3662  0.1344  0.2868
 1910TIP3    H127221   0.046   1.701  16.930  0.9994  3.2528 -0.9849
 1910TIP3    H227222  -0.017   1.803  17.021  0.8314  0.5901  2.0871
 1911TIP3   OH227223   6.820   1.218   5.830  0.1722  0.2515 -0.2671
 1911TIP3    H127224   6.839   1.311   5.817  1.6793  0.0080  0.0136
 1911TIP3    H227225   6.820   1.207   5.925 -0.9904  0.1407 -0.2707
 1912TIP3   OH227226   5.715   5.747  12.276 -0.0281  0.0459 -0.1644
 1912TIP3    H127227   5.688   5.786  12.193  0.9180  0.2154 -0.4010
 1912TIP3    H227228   5.712   5.652  12.260 -0.6217  0.0566 -0.1345
 1913TIP3   OH227229   2.633   4.026  16.872  0.1565  0.1710  0.4025
 1913TIP3    H127230   2.703   4.012  16.809  0.8461  0.1246  1.1601
 1913TIP3    H227231   2.595   4.111  16.849 -1.0600 -0.8166 -1.4195
 1914TIP3   OH227232   0.921   2.313  14.562 -0.5292  0.1986  0.0223
 1914TIP3    H127233   0.891   2.223  14.571 -1.3571  0.1343 -2.5567
 1914TIP3    H227234   0.855   2.365  14.608 -0.2042 -0.4510  1.2691
 1915TIP3   OH227235   6.001   2.128  12.204  0.5006 -0.4399 -0.2574
 1915TIP3    H127236   6.059   2.076  12.260 -0.4149 -1.1584  0.0577
 1915TIP3    H227237   5.959   2.064  12.146 -0.0158  0.0508 -0.4410
 1916TIP3   OH227238   6.301   1.069  13.952  0.3176  0.0426 -0.0356
 1916TIP3    H127239   6.333   1.043  13.866  3.6798 -0.4493  1.1869
 1916TIP3    H227240   6.330   0.999  14.010 -2.6279 -0.0859  1.4514
 1917TIP3   OH227241   1.047   1.301  17.075  0.4553 -0.0518 -0.2519
 1917TIP3    H127242   1.011   1.247  17.145 -0.5097  0.7632 -0.0846
 1917TIP3    H227243   0.990   1.283  17.000 -0.4218  1.3177  0.0388
 1918TIP3   OH227244   4.287   3.741  15.364 -0.1808  0.5232  0.5137
 1918TIP3    H127245   4.330   3.674  15.416  0.4516  0.3290 -0.2419
 1918TIP3    H227246   4.353   3.769  15.301 -0.7431  1.1719  0.1981
 1919TIP3   OH227247   5.626   0.541   0.202 -0.5266 -0.0060  0.3393
 1919TIP3    H127248   5.546   0.593   0.202  0.5711  1.7832 -0.2230
 1919TIP3    H227249   5.621   0.490   0.283 -0.6980  2.6185  2.1212
 1920TIP3   OH227250   2.817   0.800   5.514  0.3350 -0.3541  0.1587
 1920TIP3    H127251   2.739   0.754   5.482  0.3352 -0.0317 -0.3269
 1920TIP3    H227252   2.789   0.845   5.593 -0.8916  2.3841 -1.6822
 1921TIP3   OH227253   1.027   1.874  14.623  0.2213  0.3799 -0.4825
 1921TIP3    H127254   1.117   1.845  14.638  0.2363 -0.1723 -1.5272
 1921TIP3    H227255   0.983   1.797  14.585 -0.4232  0.9397 -0.8934
 1922TIP3   OH227256   3.695   3.709  13.688  0.0771  0.5474 -0.4957
 1922TIP3    H127257   3.611   3.711  13.642  0.1576 -0.6808 -0.7385
 1922TIP3    H227258   3.717   3.616  13.692  2.0558  0.9327 -1.5826
 1923TIP3   OH227259   5.214   3.135  15.437 -0.1743  0.0401 -0.1077
 1923TIP3    H127260   5.266   3.114  15.360 -0.0295  0.2771 -0.0791
 1923TIP3    H227261   5.278   3.142  15.508 -0.2935 -0.0737  0.0103
 1924TIP3   OH227262   0.785   5.333  16.571 -0.2011 -0.4760 -0.0137
 1924TIP3    H127263   0.836   5.342  16.490 -0.7419 -0.3566 -0.3418
 1924TIP3    H227264   0.729   5.257  16.556 -0.7304 -0.0958  0.0155
 1925TIP3   OH227265   1.227   3.431  14.496  0.1246 -0.3779 -0.0034
 1925TIP3    H127266   1.163   3.374  14.455  0.8987 -0.0948 -1.7019
 1925TIP3    H227267   1.181   3.515  14.506  0.3477  0.0077 -1.7822
 1926TIP3   OH227268   6.824   3.402   3.068 -0.3999 -0.3104  0.6366
 1926TIP3    H127269   6.836   3.309   3.046 -0.4154  0.1969 -1.6988
 1926TIP3    H227270   6.752   3.402   3.130 -0.3146 -1.8736  0.7956
 1927TIP3   OH227271   5.844   1.869  14.917  0.3999  0.4920 -0.1661
 1927TIP3    H127272   5.919   1.828  14.874  0.2323 -0.2469  0.2296
 1927TIP3    H227273   5.768   1.841  14.865  0.3612  1.0001 -0.3929
 1928TIP3   OH227274   2.496   3.838   3.663 -0.5660 -0.4273 -0.6911
 1928TIP3    H127275   2.583   3.832   3.702 -1.2304  0.9844  1.1767
 1928TIP3    H227276   2.474   3.748   3.638  1.2481 -0.8624 -0.8483
 1929TIP3   OH227277   1.620   3.621  14.566 -0.5295  0.0931  0.2612
 1929TIP3    H127278   1.667   3.698  14.595 -0.8387  0.8675 -1.1655
 1929TIP3    H227279   1.582   3.584  14.645 -1.1589  1.9459  0.8689
 1930TIP3   OH227280   4.396   4.284  11.394  0.3176 -0.2026  0.0884
 1930TIP3    H127281   4.463   4.224  11.361  1.3284  0.1825  1.3311
 1930TIP3    H227282   4.398   4.359  11.335  1.3841  0.0362  0.4006
 1931TIP3   OH227283   6.248   2.002  11.755  0.5104  0.0359 -0.2202
 1931TIP3    H127284   6.328   1.968  11.716  1.4653  0.5737  1.2027
 1931TIP3    H227285   6.275   2.081  11.802 -0.7137 -0.1440  0.8416
 1932TIP3   OH227286   6.730   1.020  14.842  0.4974 -0.0777 -0.1440
 1932TIP3    H127287   6.779   1.099  14.821  0.1464 -0.3837 -2.2728
 1932TIP3    H227288   6.647   1.030  14.796 -0.2250 -0.9489  0.9172
 1933TIP3   OH227289   1.372   1.518   1.879  0.1633  0.0386  0.0165
 1933TIP3    H127290   1.344   1.446   1.934 -1.6399  0.6112 -0.1021
 1933TIP3    H227291   1.392   1.477   1.794  0.7683 -0.5226  0.4185
 1934TIP3   OH227292   4.282   5.404  15.598  0.1762 -0.3676  0.2103
 1934TIP3    H127293   4.326   5.319  15.604  2.5486  0.3900 -3.4305
 1934TIP3    H227294   4.219   5.393  15.528  0.0210  0.6913  0.1769
 1935TIP3   OH227295   5.272   1.329  15.819 -1.1290 -0.4410 -0.1327
 1935TIP3    H127296   5.193   1.380  15.804 -1.0531 -0.4586 -0.6139
 1935TIP3    H227297   5.344   1.392  15.814 -1.1721 -0.2364  1.3588
 1936TIP3   OH227298   6.388   6.815   0.318 -0.5411  0.0281  0.0991
 1936TIP3    H127299   6.308   6.765   0.336 -0.8809  1.5441  3.8352
 1936TIP3    H227300   6.357   6.902   0.297  0.0912  0.3063  0.2972
 1937TIP3   OH227301   6.425   4.201   2.965  0.2494 -0.1156  0.2125
 1937TIP3    H127302   6.434   4.261   3.039  1.7246 -0.3347  0.2438
 1937TIP3    H227303   6.351   4.145   2.988 -1.3073  1.7860  0.0839
 1938TIP3   OH227304   2.152   5.500  12.347  0.2846  0.2319  0.0534
 1938TIP3    H127305   2.118   5.567  12.406  0.8502  0.6379 -0.0759
 1938TIP3    H227306   2.130   5.417  12.390 -0.7188  0.4772  0.0513
 1939TIP3   OH227307   1.421   3.232  10.889 -0.3302 -0.5069  0.4393
 1939TIP3    H127308   1.328   3.234  10.912  0.3466  0.2439  3.6005
 1939TIP3    H227309   1.427   3.284  10.809 -2.2292  2.5465  2.1097
 1940TIP3   OH227310   2.259   2.413  16.584  0.0929  0.3223  0.1392
 1940TIP3    H127311   2.258   2.371  16.670 -0.9639 -1.7916 -0.8222
 1940TIP3    H227312   2.175   2.459  16.578  0.7737  1.6902  0.7547
 1941TIP3   OH227313   5.718   5.161  10.682 -0.5761  0.2856 -0.3061
 1941TIP3    H127314   5.721   5.071  10.715  0.1178  0.2282 -0.5066
 1941TIP3    H227315   5.808   5.192  10.690 -0.6261  0.6514 -1.0952
 1942TIP3   OH227316   3.777   2.393  11.409  0.1402  0.0147  0.1272
 1942TIP3    H127317   3.781   2.472  11.355 -2.4022  0.5998  0.6390
 1942TIP3    H227318   3.820   2.418  11.491  1.0634  0.2194 -0.4163
 1943TIP3   OH227319   2.518   4.577  12.704 -0.4413 -0.1503  0.1830
 1943TIP3    H127320   2.579   4.544  12.770 -1.3383 -1.3210  0.4571
 1943TIP3    H227321   2.432   4.575  12.746 -0.8004  0.7177 -0.4598
 1944TIP3   OH227322   6.668   5.606  14.685 -0.1841  0.1293 -0.0064
 1944TIP3    H127323   6.627   5.532  14.640  2.2934 -0.3349 -1.7002
 1944TIP3    H227324   6.679   5.575  14.775  2.7855 -2.6436 -1.1128
 1945TIP3   OH227325   1.247   0.447  14.087 -0.1690 -0.2364  0.3963
 1945TIP3    H127326   1.340   0.435  14.066 -0.1700 -2.7852  1.5741
 1945TIP3    H227327   1.248   0.493  14.171 -0.0368  0.4885  0.0164
 1946TIP3   OH227328   0.092   5.812   5.440  0.0527  0.2467 -0.2695
 1946TIP3    H127329   0.093   5.729   5.392  1.2633  0.1241 -0.0518
 1946TIP3    H227330   0.171   5.811   5.493 -0.4535  1.0907  0.5341
 1947TIP3   OH227331   1.987   3.473   2.984  0.5535  0.0884  0.5422
 1947TIP3    H127332   1.983   3.446   3.076 -0.0512  0.7270  0.7116
 1947TIP3    H227333   1.896   3.479   2.957  0.7158 -1.9635 -0.6845
 1948TIP3   OH227334   5.612   2.957  13.173  0.3450  0.2818 -0.4138
 1948TIP3    H127335   5.599   3.015  13.248 -0.4060  1.2110 -1.2314
 1948TIP3    H227336   5.611   2.869  13.210  0.2048  0.7276  0.6876
 1949TIP3   OH227337   3.458   6.581  12.609 -0.1667  0.1443 -0.4389
 1949TIP3    H127338   3.499   6.508  12.656 -0.6225  0.3319  0.2585
 1949TIP3    H227339   3.482   6.567  12.517 -0.4443 -1.0169 -0.3459
 1950TIP3   OH227340   3.432   1.602   3.070 -0.1123 -0.2500 -0.2077
 1950TIP3    H127341   3.509   1.563   3.112  1.0032  0.4534 -1.5511
 1950TIP3    H227342   3.388   1.651   3.140  1.2848  0.2650  0.3308
 1951TIP3   OH227343   2.644   3.326  15.442  0.1956  0.4377 -0.3576
 1951TIP3    H127344   2.574   3.388  15.462 -0.9777 -0.8052 -0.5585
 1951TIP3    H227345   2.666   3.287  15.526  1.3154  1.4788 -0.1393
 1952TIP3   OH227346   2.249   2.709   4.157 -0.3176 -0.4309  1.0120
 1952TIP3    H127347   2.287   2.623   4.173 -0.8779 -0.8925 -0.0367
 1952TIP3    H227348   2.155   2.693   4.149 -0.2158 -0.1415 -1.6211
 1953TIP3   OH227349   6.151   5.057   2.147  0.4380 -0.3744 -0.2794
 1953TIP3    H127350   6.216   5.115   2.187 -0.8000  2.8117 -2.4803
 1953TIP3    H227351   6.191   5.030   2.064  1.3766 -3.7081  1.0696
 1954TIP3   OH227352   3.681   5.378  15.574 -0.1816  0.3099 -0.0510
 1954TIP3    H127353   3.630   5.348  15.649 -1.5588 -0.2809 -1.1843
 1954TIP3    H227354   3.625   5.442  15.530  0.4844  0.4463 -0.7277
 1955TIP3   OH227355   2.069   5.266  11.090 -0.3506  1.2025  0.0603
 1955TIP3    H127356   2.029   5.184  11.117  1.4110  0.2403 -0.0793
 1955TIP3    H227357   2.067   5.264  10.994  0.0118  1.1354  0.0499
 1956TIP3   OH227358   2.873   6.162   1.312  0.0341 -0.0390 -0.1849
 1956TIP3    H127359   2.781   6.137   1.301  0.0403  0.3704 -1.3393
 1956TIP3    H227360   2.919   6.079   1.327 -0.4835 -0.2816  0.0649
 1957TIP3   OH227361   2.287   2.205   1.505  0.4038  0.1085  0.2427
 1957TIP3    H127362   2.328   2.119   1.506 -0.4937 -0.3574 -0.8754
 1957TIP3    H227363   2.304   2.238   1.416 -1.6491 -0.1335 -0.2885
 1958TIP3   OH227364   1.288   0.643  16.655  0.9534  0.3359  0.9302
 1958TIP3    H127365   1.280   0.547  16.658  0.1532  0.4143  1.7693
 1958TIP3    H227366   1.372   0.659  16.613  1.8513 -0.7594  2.2360
 1959TIP3   OH227367   2.902   1.945   4.514 -0.1826  0.0822  0.3510
 1959TIP3    H127368   2.942   1.950   4.601 -3.3289  0.8376  1.9231
 1959TIP3    H227369   2.820   1.993   4.523 -0.8129 -0.1405 -2.9835
 1960TIP3   OH227370   5.801   0.650   1.654 -0.3516 -0.0705  0.6538
 1960TIP3    H127371   5.884   0.602   1.657 -1.0645 -1.3694  0.2254
 1960TIP3    H227372   5.748   0.604   1.590 -0.5931  2.1455 -0.8595
 1961TIP3   OH227373   4.480   2.116  12.036 -0.1018 -0.4316 -0.0570
 1961TIP3    H127374   4.403   2.166  12.066 -0.5667 -1.2683  0.1627
 1961TIP3    H227375   4.527   2.093  12.116  0.5189  0.2759 -0.2050
 1962TIP3   OH227376   3.525   6.441  10.456  0.1003  0.2561  0.4578
 1962TIP3    H127377   3.597   6.504  10.454  2.1872 -1.9995 -1.3378
 1962TIP3    H227378   3.481   6.451  10.372  1.1438 -1.3137 -0.3289
 1963TIP3   OH227379   0.597   5.026  14.625 -0.0467  0.5935 -0.4211
 1963TIP3    H127380   0.612   4.938  14.590 -0.4005  0.3867 -0.0594
 1963TIP3    H227381   0.655   5.083  14.574  0.3859  0.1108 -0.4709
 1964TIP3   OH227382   1.174   3.789  16.098  0.3014  0.7051 -0.1047
 1964TIP3    H127383   1.169   3.750  16.185  1.2265  0.2510 -0.2473
 1964TIP3    H227384   1.103   3.853  16.097  1.0167  1.5894  1.4274
 1965TIP3   OH227385   3.879   3.308   3.152  0.1133 -0.5778 -0.1335
 1965TIP3    H127386   3.849   3.380   3.207 -0.5181 -1.0760  0.1804
 1965TIP3    H227387   3.962   3.339   3.116 -0.9116  0.9838 -1.2931
 1966TIP3   OH227388   4.507   4.817   5.709 -0.2171  0.4225 -0.0900
 1966TIP3    H127389   4.435   4.787   5.654 -0.5531 -1.2296  1.1866
 1966TIP3    H227390   4.482   4.793   5.798  0.9850  1.7013  0.6366
 1967TIP3   OH227391   6.055   5.246   4.673 -0.1873 -0.2724 -0.2388
 1967TIP3    H127392   6.115   5.172   4.673  1.2450  0.8391 -0.4286
 1967TIP3    H227393   5.971   5.209   4.645  0.7487 -1.6072 -1.4320
 1968TIP3   OH227394   0.830   3.022   4.355 -0.6753  0.5948 -0.2035
 1968TIP3    H127395   0.853   3.087   4.288  0.4658  0.6268  0.1960
 1968TIP3    H227396   0.832   3.071   4.437 -2.9843  0.7765 -0.1892
 1969TIP3   OH227397   4.499   2.283   6.133 -0.5535  0.5944  0.5352
 1969TIP3    H127398   4.463   2.195   6.148  0.4062  0.2928  1.2074
 1969TIP3    H227399   4.456   2.338   6.198  0.9879  0.0055  2.1162
 1970TIP3   OH227400   5.065   5.120   4.982 -0.3859 -0.1387 -0.1411
 1970TIP3    H127401   5.075   5.151   5.072 -0.9662  0.9358 -0.4266
 1970TIP3    H227402   4.971   5.132   4.963 -0.3864 -0.9381 -0.6818
 1971TIP3   OH227403   1.487   0.535   4.792 -0.4524 -0.0544 -0.1775
 1971TIP3    H127404   1.506   0.517   4.700  1.9991 -1.1221  0.4569
 1971TIP3    H227405   1.453   0.452   4.826 -1.8915  0.4940 -0.1968
 1972TIP3   OH227406   4.321   4.473  13.562  0.4279  0.0758 -0.7949
 1972TIP3    H127407   4.393   4.523  13.525  1.2759 -0.4393  0.1155
 1972TIP3    H227408   4.242   4.514  13.525  1.1579  0.9357 -1.4490
 1973TIP3   OH227409   2.970   5.834   0.872  0.0215  0.0782 -0.2989
 1973TIP3    H127410   2.959   5.854   0.779  1.4417 -1.2779 -0.8029
 1973TIP3    H227411   3.056   5.791   0.877 -1.2084 -2.4372  1.2015
 1974TIP3   OH227412   5.604   5.263   3.328  0.3393  0.1025  0.3086
 1974TIP3    H127413   5.653   5.182   3.344 -2.5156 -1.9757 -0.5391
 1974TIP3    H227414   5.654   5.308   3.260  0.9353 -2.1113 -0.8504
 1975TIP3   OH227415   2.542   3.772   4.457 -0.5704  0.7848  0.1410
 1975TIP3    H127416   2.458   3.727   4.444  0.5750 -1.0255 -1.7494
 1975TIP3    H227417   2.544   3.839   4.389 -0.2374  0.4124 -0.2191
 1976TIP3   OH227418   1.465   4.384  11.291  0.0460  0.0663 -0.9636
 1976TIP3    H127419   1.495   4.306  11.338 -1.8324 -0.9264 -1.3253
 1976TIP3    H227420   1.499   4.458  11.343  0.1766 -0.9847  0.5192
 1977TIP3   OH227421   5.634   5.782   2.134 -0.2572  0.3439  0.1421
 1977TIP3    H127422   5.690   5.846   2.089 -1.9860  2.0003  0.2017
 1977TIP3    H227423   5.694   5.733   2.191  1.1866  1.7039 -0.1366
 1978TIP3   OH227424   2.912   0.383  11.764 -0.1680 -0.2076 -0.4448
 1978TIP3    H127425   2.938   0.312  11.706  1.8285 -0.4267  0.6521
 1978TIP3    H227426   2.903   0.343  11.850  0.7437  0.7856  0.1405
 1979TIP3   OH227427   1.062   2.600  12.069 -0.1246 -0.3839 -0.3343
 1979TIP3    H127428   1.093   2.569  11.984  0.2077  0.7236 -0.6375
 1979TIP3    H227429   1.142   2.613  12.120 -0.1967  0.6227 -0.4592
 1980TIP3   OH227430   4.182   5.870   5.493  0.0436 -0.0250  0.3977
 1980TIP3    H127431   4.259   5.817   5.474  0.6245  0.3123  1.6632
 1980TIP3    H227432   4.108   5.817   5.463  0.7639 -0.2385 -1.0914
 1981TIP3   OH227433   1.581   6.663  16.913 -0.2058 -0.2769  0.2068
 1981TIP3    H127434   1.648   6.732  16.916  2.3855 -2.6263  0.2952
 1981TIP3    H227435   1.558   6.648  17.005 -1.4481  0.9848  0.1388
 1982TIP3   OH227436   5.208   0.402  13.702 -0.0309 -0.1632 -0.5225
 1982TIP3    H127437   5.237   0.393  13.793  0.6792  1.0480 -0.6094
 1982TIP3    H227438   5.247   0.327  13.658 -1.5074 -1.5485  0.4009
 1983TIP3   OH227439   5.970   3.228   3.708 -0.4525 -1.2488  0.4304
 1983TIP3    H127440   5.970   3.318   3.740  1.4704 -1.2344  0.5051
 1983TIP3    H227441   5.946   3.234   3.615  6.3138  0.3643 -1.7368
 1984TIP3   OH227442   6.557   3.882  16.140  0.1167 -0.0223  0.3161
 1984TIP3    H127443   6.604   3.884  16.223 -0.2010 -2.4506  0.6054
 1984TIP3    H227444   6.591   3.805  16.095  1.3706  2.0127 -2.5270
 1985TIP3   OH227445   3.764   4.455  10.986 -0.5716  0.3068  0.5364
 1985TIP3    H127446   3.855   4.455  11.017 -0.8886 -0.9097  1.5650
 1985TIP3    H227447   3.769   4.491  10.897  0.3012  4.7995  2.1323
 1986TIP3   OH227448   2.495   6.543  10.640 -0.1594  0.5527 -0.8173
 1986TIP3    H127449   2.563   6.596  10.597  0.3259  0.2242 -0.4589
 1986TIP3    H227450   2.466   6.483  10.572  0.7348 -0.0879 -0.6549
 1987TIP3   OH227451   1.602   4.384   2.171 -0.4340  0.4687 -0.1048
 1987TIP3    H127452   1.668   4.347   2.112 -0.3830 -3.9545  2.2409
 1987TIP3    H227453   1.527   4.325   2.162 -1.5211  1.3951  2.0784
 1988TIP3   OH227454   3.852   1.843  14.344  0.1928  0.5256  0.5890
 1988TIP3    H127455   3.923   1.796  14.387 -0.9095 -0.7203  1.0974
 1988TIP3    H227456   3.856   1.932  14.380  0.1840 -0.1120  2.2052
 1989TIP3   OH227457   1.438   0.927   4.434 -0.1730 -0.1397  0.2797
 1989TIP3    H127458   1.363   0.893   4.483  0.1502 -0.8159  0.3219
 1989TIP3    H227459   1.452   0.863   4.364 -0.6820  0.8595 -0.7627
 1990TIP3   OH227460   0.155   4.344   2.398 -0.5440 -0.0510  0.0739
 1990TIP3    H127461   0.061   4.349   2.386 -0.2657  1.3916 -1.9568
 1990TIP3    H227462   0.184   4.276   2.338 -0.2639 -0.5821  0.7837
 1991TIP3   OH227463   4.142   4.012  12.941 -0.3953  0.3017  0.0016
 1991TIP3    H127464   4.129   3.984  12.850 -0.1441 -0.0729  0.0810
 1991TIP3    H227465   4.207   4.082  12.935 -0.8007  0.6748 -0.1634
 1992TIP3   OH227466   2.250   0.422  12.589 -0.4462  0.3712 -0.5940
 1992TIP3    H127467   2.180   0.404  12.652 -0.1181  1.4847  0.1142
 1992TIP3    H227468   2.204   0.456  12.512 -0.9168 -1.7058 -1.3029
 1993TIP3   OH227469   2.123   2.964   5.237  0.0068  0.7341 -0.4149
 1993TIP3    H127470   2.052   3.022   5.263 -1.0295  0.5218 -2.5652
 1993TIP3    H227471   2.153   2.998   5.153  0.2169 -1.0988 -1.1189
 1994TIP3   OH227472   5.035   1.980   0.685 -0.0949  0.0978 -0.3478
 1994TIP3    H127473   4.995   1.930   0.756  0.8764 -0.0322  0.1304
 1994TIP3    H227474   5.047   1.917   0.614  2.2521 -0.7382  0.6819
 1995TIP3   OH227475   5.047   1.208  12.445  0.3167 -0.4024  0.0187
 1995TIP3    H127476   5.038   1.116  12.417  0.7179 -0.8528  1.2861
 1995TIP3    H227477   4.957   1.241  12.446  0.0817 -1.0238  0.3128
 1996TIP3   OH227478   2.491   2.497   5.678  0.2646 -0.9618 -0.1016
 1996TIP3    H127479   2.540   2.561   5.627  0.3126 -0.0480  1.0496
 1996TIP3    H227480   2.408   2.487   5.631 -0.3342  1.0472  0.4239
 1997TIP3   OH227481   0.962   4.506  16.097 -0.1429  0.2436 -0.0104
 1997TIP3    H127482   0.909   4.435  16.133  0.1153  0.6577  1.2316
 1997TIP3    H227483   0.907   4.545  16.029 -0.2029 -1.2524 -0.8629
 1998TIP3   OH227484   3.814   5.695   5.244 -0.0496  0.0297  0.2848
 1998TIP3    H127485   3.898   5.653   5.227 -1.2320 -1.3566 -2.8700
 1998TIP3    H227486   3.836   5.776   5.290  3.1300  0.4592 -1.7301
 1999TIP3   OH227487   1.063   6.384   4.593 -0.5053 -0.5103 -0.1938
 1999TIP3    H127488   1.081   6.413   4.504  0.4663  0.4397  0.2887
 1999TIP3    H227489   1.062   6.288   4.587  0.7184 -0.4929 -1.0108
 2000TIP3   OH227490   1.024   3.870  14.941 -0.4282  0.0485 -0.3653
 2000TIP3    H127491   1.060   3.897  14.856 -0.8464 -1.0323 -0.9097
 2000TIP3    H227492   0.930   3.872  14.928 -0.4892 -2.0855 -0.6085
 2001TIP3   OH227493   2.134   2.638   0.503  0.1658  0.2520  0.4885
 2001TIP3    H127494   2.109   2.713   0.557 -2.5451 -0.3460  0.2275
 2001TIP3    H227495   2.053   2.587   0.494  1.6075 -2.0505 -0.3955
 2002TIP3   OH227496   3.142   2.089  14.704 -0.5121 -0.0152 -0.2367
 2002TIP3    H127497   3.207   2.035  14.658 -1.1760  0.1310 -1.3740
 2002TIP3    H227498   3.143   2.055  14.794  0.4584 -0.6337 -0.4554
 2003TIP3   OH227499   1.229   4.787  14.548 -0.1273 -0.2360  0.4085
 2003TIP3    H127500   1.196   4.817  14.633 -0.9231  1.4642 -0.4644
 2003TIP3    H227501   1.314   4.747  14.568  1.0453  2.6511  1.6813
 2004TIP3   OH227502   0.871   0.141  13.128  0.1101 -0.1347  0.5950
 2004TIP3    H127503   0.960   0.151  13.163  0.1302  2.2576  0.0024
 2004TIP3    H227504   0.883   0.097  13.044  0.4552 -1.9743  1.5444
 2005TIP3   OH227505   5.911   1.086  16.413 -0.2389 -1.0327  0.0269
 2005TIP3    H127506   5.864   1.117  16.336  0.9042  2.9581  0.7155
 2005TIP3    H227507   5.896   0.991  16.414 -1.3415 -1.0997 -4.3211
 2006TIP3   OH227508   3.382   2.871   5.337 -0.0358 -0.0647  0.2245
 2006TIP3    H127509   3.324   2.799   5.363 -1.3281  0.5074 -0.9335
 2006TIP3    H227510   3.366   2.882   5.243  1.3838  0.6493  0.0370
 2007TIP3   OH227511   3.996   4.174   3.766 -0.1858  0.0217  0.1512
 2007TIP3    H127512   4.010   4.086   3.800 -2.9515 -0.8811 -0.7382
 2007TIP3    H227513   3.986   4.229   3.843  0.0192 -0.7550  0.7439
 2008TIP3   OH227514   2.457   2.036  10.951  0.1885  0.1786 -0.6155
 2008TIP3    H127515   2.494   1.952  10.924 -0.3614 -0.7383  1.3519
 2008TIP3    H227516   2.363   2.021  10.955  0.1108  0.8032  0.0671
 2009TIP3   OH227517   6.097   6.491  12.793  1.1915 -0.3722 -0.1228
 2009TIP3    H127518   6.024   6.485  12.731  1.3140 -1.3676 -0.1928
 2009TIP3    H227519   6.160   6.549  12.751  0.7304 -0.0360 -0.3592
 2010TIP3   OH227520   2.332   3.167   4.030  0.5801  0.5084  0.1540
 2010TIP3    H127521   2.304   3.216   4.107  1.8745 -0.2688  1.1667
 2010TIP3    H227522   2.321   3.075   4.054  1.3192  0.2447 -0.4533
 2011TIP3   OH227523   2.738   3.899  11.413  0.2859  0.1330  0.3038
 2011TIP3    H127524   2.714   3.848  11.490  0.8555  1.2160  1.2357
 2011TIP3    H227525   2.832   3.884  11.403  0.1978 -0.0769 -0.2458
 2012TIP3   OH227526   0.858   3.879   5.287 -0.1940  0.5194  0.1388
 2012TIP3    H127527   0.935   3.849   5.239  0.1994  0.2989  0.8914
 2012TIP3    H227528   0.792   3.810   5.272 -0.3368  0.8298 -0.7061
 2013TIP3   OH227529   2.693   5.518  14.508  0.5660 -0.7663  0.5291
 2013TIP3    H127530   2.759   5.579  14.476 -1.4724  0.3353 -1.9073
 2013TIP3    H227531   2.648   5.564  14.579 -0.2919  0.2284 -0.6230
 2014TIP3   OH227532   1.408   6.230  11.999 -0.2409 -0.0537  0.1808
 2014TIP3    H127533   1.432   6.310  11.953  0.6689 -1.2472 -1.5281
 2014TIP3    H227534   1.491   6.182  12.006 -0.7550 -0.8096  1.2732
 2015TIP3   OH227535   4.785   1.110   3.269 -0.0764  0.4532  0.4280
 2015TIP3    H127536   4.791   1.160   3.187  0.6990 -1.7503 -0.9609
 2015TIP3    H227537   4.833   1.163   3.333  0.3586  1.6677 -0.8498
 2016TIP3   OH227538   2.525   6.182  13.609  0.0115 -0.3328  1.2793
 2016TIP3    H127539   2.616   6.151  13.602  0.3217  0.4601  1.7305
 2016TIP3    H227540   2.533   6.276  13.620 -0.9558  0.0333 -0.7486
 2017TIP3   OH227541   1.483   0.366   6.423 -0.3694 -0.4374 -0.0885
 2017TIP3    H127542   1.451   0.329   6.505 -1.9158  0.6404 -0.1520
 2017TIP3    H227543   1.527   0.447   6.449  0.0685 -0.6280 -0.2333
 2018TIP3   OH227544   6.462   2.061  16.266  0.0996 -0.2794 -0.3202
 2018TIP3    H127545   6.530   2.116  16.228  0.3408 -0.2505  0.1417
 2018TIP3    H227546   6.445   1.994  16.200  1.2634 -0.8611 -0.0483
 2019TIP3   OH227547   0.707   1.109  13.013  0.2870  0.8303  0.6649
 2019TIP3    H127548   0.679   1.098  13.104  1.3892 -0.2457  0.8975
 2019TIP3    H227549   0.786   1.163  13.019  0.5279  0.5090  0.3709
 2020TIP3   OH227550   1.005   5.288   0.825 -0.7269  0.0919  0.5103
 2020TIP3    H127551   0.942   5.324   0.762  0.4475  0.4527 -0.4802
 2020TIP3    H227552   0.968   5.203   0.849 -1.6037  0.2985 -0.0464
 2021TIP3   OH227553   0.633   6.308  13.327  0.3299  0.0060  0.3080
 2021TIP3    H127554   0.601   6.242  13.389  0.6223 -0.0165  0.4403
 2021TIP3    H227555   0.688   6.365  13.381 -0.2251  0.5817  0.2692
 2022TIP3   OH227556   2.813   0.582   3.622 -0.8987  0.1119 -0.5378
 2022TIP3    H127557   2.771   0.664   3.648 -1.0891 -0.0293 -0.3999
 2022TIP3    H227558   2.760   0.514   3.663 -0.3297 -0.0574 -0.0609
 2023TIP3   OH227559   2.546   0.982  16.158  0.0022 -0.5623 -0.0086
 2023TIP3    H127560   2.539   0.987  16.253  1.7555 -0.1891  0.1480
 2023TIP3    H227561   2.509   1.065  16.127 -1.0770 -0.9204  0.2984
 2024TIP3   OH227562   5.977   2.195   5.328 -0.1538  0.4246 -0.4838
 2024TIP3    H127563   6.055   2.164   5.376 -0.7787  0.8625  0.8590
 2024TIP3    H227564   5.905   2.142   5.363 -1.0141  2.3648  0.8569
 2025TIP3   OH227565   3.295   3.589   5.863  0.2003  0.0269 -0.3000
 2025TIP3    H127566   3.254   3.660   5.814  3.2771  1.2690 -1.3413
 2025TIP3    H227567   3.247   3.586   5.946  0.7539  4.4369  0.4265
 2026TIP3   OH227568   2.184   6.497  15.156 -0.0325 -0.3768 -0.1316
 2026TIP3    H127569   2.185   6.408  15.121  1.8806 -0.7041  0.6126
 2026TIP3    H227570   2.247   6.545  15.102 -1.9025  0.8962 -1.2848
 2027TIP3   OH227571   1.969   1.015  11.088 -0.2585 -0.5747 -0.3176
 2027TIP3    H127572   2.032   0.949  11.118 -0.5745 -0.6687  0.1568
 2027TIP3    H227573   1.899   1.011  11.153 -0.6709 -0.3528 -0.7478
 2028TIP3   OH227574   5.771   4.134   2.983  0.2902  0.2759 -0.1682
 2028TIP3    H127575   5.707   4.196   2.948 -1.8718 -1.1162  1.0143
 2028TIP3    H227576   5.758   4.138   3.078  2.3176  0.2558  0.1364
 2029TIP3   OH227577   3.404   6.594   0.395  0.0170  0.2366  0.1101
 2029TIP3    H127578   3.403   6.649   0.317  1.0245 -0.4492 -0.4165
 2029TIP3    H227579   3.486   6.617   0.439 -0.8453  1.0876  1.3444
 2030TIP3   OH227580   0.990   0.574   2.667  0.3150  0.4187  0.2069
 2030TIP3    H127581   0.968   0.612   2.752  0.0036  0.1952  0.2272
 2030TIP3    H227582   0.933   0.498   2.660 -0.0140  0.7173 -0.4164
 2031TIP3   OH227583   5.363   6.524  12.339 -0.2553  0.4614 -0.2239
 2031TIP3    H127584   5.325   6.456  12.283  1.5658 -0.3257 -0.5768
 2031TIP3    H227585   5.365   6.602  12.284  0.6384 -0.0625 -0.9562
 2032TIP3   OH227586   2.969   0.234   0.992  0.9819  0.1569  0.3107
 2032TIP3    H127587   2.979   0.270   0.904  1.2530  0.9842  0.6726
 2032TIP3    H227588   3.059   0.222   1.023  0.9023 -1.1700  0.0719
 2033TIP3   OH227589   0.752   1.881  11.460 -0.2406 -0.0710  0.4135
 2033TIP3    H127590   0.841   1.917  11.465 -0.6103  0.7637  1.4734
 2033TIP3    H227591   0.764   1.792  11.427  0.7928  0.6855 -1.3695
 2034TIP3   OH227592   0.196   0.887  12.089 -0.2670 -0.0209  0.1151
 2034TIP3    H127593   0.135   0.835  12.037 -0.4928  0.4850 -0.1304
 2034TIP3    H227594   0.275   0.894  12.035  0.1234 -0.9070  0.5467
 2035TIP3   OH227595   2.751   2.406  12.629 -0.0916  0.5301 -0.2695
 2035TIP3    H127596   2.747   2.311  12.639  1.0876  0.5764  0.8792
 2035TIP3    H227597   2.659   2.434  12.627 -0.4623 -0.6459 -1.0070
 2036TIP3   OH227598   3.112   0.481   1.191 -0.5601  0.0554  0.6732
 2036TIP3    H127599   3.053   0.491   1.117 -0.3631  1.3903  0.6761
 2036TIP3    H227600   3.167   0.406   1.168 -1.5138 -0.5140  0.1848
 2037TIP3   OH227601   0.596   3.423  12.279  0.1760 -0.0286 -0.5175
 2037TIP3    H127602   0.526   3.482  12.305 -0.6255 -0.6522 -1.2189
 2037TIP3    H227603   0.676   3.474  12.292 -0.2974  0.3442  1.2909
 2038TIP3   OH227604   1.680   3.928  12.821  0.0725 -0.4972 -0.1664
 2038TIP3    H127605   1.587   3.934  12.846  0.0961  1.7926 -0.4743
 2038TIP3    H227606   1.721   4.004  12.863  2.2127 -2.3697  1.4078
 2039TIP3   OH227607   0.231   5.476   4.983  0.2024 -0.0321  0.6878
 2039TIP3    H127608   0.194   5.466   5.071  2.6326  0.2695  1.8015
 2039TIP3    H227609   0.272   5.563   4.983  0.0466  0.0795 -0.8532
 2040TIP3   OH227610   6.544   2.766  12.542 -0.1513  0.1270  0.3931
 2040TIP3    H127611   6.592   2.772  12.459 -0.8743  0.0447 -0.0384
 2040TIP3    H227612   6.579   2.688  12.584  0.7441  0.5782  0.5085
 2041TIP3   OH227613   6.218   6.110   3.420  0.1859  0.3712 -0.9062
 2041TIP3    H127614   6.225   6.015   3.429  0.2438  0.2147 -2.3042
 2041TIP3    H227615   6.221   6.144   3.509 -0.7150 -1.0014 -0.3342
 2042TIP3   OH227616   5.581   6.554   4.141  0.3801  0.4077 -0.1684
 2042TIP3    H127617   5.674   6.534   4.125 -0.0863 -2.3719  0.1496
 2042TIP3    H227618   5.549   6.586   4.057  1.6647  1.6717 -0.2139
 2043TIP3   OH227619   0.284   5.986   5.285 -0.2700 -0.5172 -0.5101
 2043TIP3    H127620   0.273   5.940   5.368 -1.4042 -2.0380 -1.4610
 2043TIP3    H227621   0.372   5.961   5.256 -0.2563 -0.7915 -0.2440
 2044TIP3   OH227622   0.104   4.172   1.226 -0.0802  0.7268  0.1581
 2044TIP3    H127623   0.039   4.217   1.172  0.5018  1.4859  0.0663
 2044TIP3    H227624   0.056   4.102   1.269 -0.4713 -0.1861 -1.6926
 2045TIP3   OH227625   5.332   0.736   3.576  0.0185  0.2584 -0.7512
 2045TIP3    H127626   5.339   0.754   3.670 -2.4108  0.6254 -0.5623
 2045TIP3    H227627   5.417   0.759   3.540  1.7000 -1.7391  1.6168
 2046TIP3   OH227628   4.761   2.711   2.233  0.0275 -0.2145  0.1424
 2046TIP3    H127629   4.736   2.619   2.223 -1.0513  0.0688  0.0917
 2046TIP3    H227630   4.713   2.740   2.311 -1.2386  0.8259 -0.9747
 2047TIP3   OH227631   3.312   0.125   0.537  0.5167 -0.4522 -0.0291
 2047TIP3    H127632   3.369   0.146   0.463  1.6061 -1.2743  0.5392
 2047TIP3    H227633   3.369   0.137   0.614 -0.7152  0.8673  0.7378
 2048TIP3   OH227634   2.261   3.120   2.951 -0.0136 -0.1424  0.1714
 2048TIP3    H127635   2.322   3.080   3.012 -1.2895 -1.7862  0.4396
 2048TIP3    H227636   2.247   3.053   2.883 -0.0322  0.9383 -0.9314
 2049TIP3   OH227637   5.610   6.725   5.944  0.4217  0.4931  0.3028
 2049TIP3    H127638   5.622   6.638   5.908 -0.1008  0.7508 -0.5315
 2049TIP3    H227639   5.515   6.736   5.950  0.4723  1.0768  0.1764
 2050TIP3   OH227640   1.924   2.006   3.783  0.1591 -0.2224 -0.0223
 2050TIP3    H127641   1.890   1.933   3.834 -0.9602  0.9057  0.9182
 2050TIP3    H227642   1.964   2.064   3.848  0.1370  0.4835 -0.6265
 2051TIP3   OH227643   1.502   6.015   5.457 -0.3577 -0.3503  0.5247
 2051TIP3    H127644   1.500   5.928   5.497 -1.1888  0.0444  1.3677
 2051TIP3    H227645   1.461   6.072   5.521 -1.7588  0.3066 -0.8855
 2052TIP3   OH227646   3.807   4.931  12.327  0.1671  0.8269  0.2883
 2052TIP3    H127647   3.873   4.947  12.395  0.8994 -1.6422  0.2469
 2052TIP3    H227648   3.842   4.858  12.277 -0.7763  2.0245 -2.2606
 2053TIP3   OH227649   4.390   2.776  16.130 -0.3830 -0.2574 -0.2819
 2053TIP3    H127650   4.374   2.869  16.114  1.0914  0.4903  2.0555
 2053TIP3    H227651   4.458   2.751  16.068  1.5413  1.1477  1.1573
 2054TIP3   OH227652   0.190   3.652   2.755  0.1482 -0.0890  0.2483
 2054TIP3    H127653   0.237   3.704   2.820 -0.0563  0.9356 -0.4118
 2054TIP3    H227654   0.149   3.716   2.697  1.0541 -0.9467 -1.4350
 2055TIP3   OH227655   3.338   3.367   3.462  0.5561  0.2914 -0.1741
 2055TIP3    H127656   3.397   3.314   3.409 -1.2822 -1.6176 -0.4648
 2055TIP3    H227657   3.368   3.354   3.552  1.5123  0.6367 -0.4339
 2056TIP3   OH227658   0.885   3.338  15.787  0.2314  0.2774  0.1140
 2056TIP3    H127659   0.831   3.260  15.800 -1.0674  0.9370 -0.9525
 2056TIP3    H227660   0.893   3.346  15.692  0.8548  1.1052  0.2221
 2057TIP3   OH227661   5.273   1.601  12.379 -0.3944  0.4875 -0.5921
 2057TIP3    H127662   5.250   1.678  12.431 -0.8630  0.2212 -0.3996
 2057TIP3    H227663   5.282   1.531  12.443 -1.1518  0.1161 -0.8816
 2058TIP3   OH227664   1.055   1.565   1.199  0.3202 -0.1429 -0.4636
 2058TIP3    H127665   0.976   1.536   1.154  0.9736 -0.0046 -1.7493
 2058TIP3    H227666   1.115   1.589   1.129  0.5120  2.4850  0.4756
 2059TIP3   OH227667   5.947   5.162   3.638  0.1247  0.1670 -0.3339
 2059TIP3    H127668   5.878   5.187   3.699  1.6029 -0.8560  1.8703
 2059TIP3    H227669   5.914   5.189   3.552 -1.9476  1.8666  0.9073
 2060TIP3   OH227670   3.608   1.911  11.441  0.0054  0.1674 -0.6737
 2060TIP3    H127671   3.681   1.861  11.478  0.8430 -0.8501 -3.4979
 2060TIP3    H227672   3.544   1.845  11.416 -0.0880  0.7038 -1.9256
 2061TIP3   OH227673   2.815   5.024  13.640 -0.0316  0.6267 -0.1313
 2061TIP3    H127674   2.779   5.055  13.724  0.9577 -0.0904  0.5780
 2061TIP3    H227675   2.908   5.045  13.645 -0.2113  2.0685 -1.7621
 2062TIP3   OH227676   5.517   5.785  12.454  0.6772 -0.4399  0.3297
 2062TIP3    H127677   5.592   5.768  12.396 -1.6991 -3.1117 -2.2963
 2062TIP3    H227678   5.485   5.698  12.477 -3.1348  0.4360 -0.8937
 2063TIP3   OH227679   5.560   5.723  13.607 -0.3273 -1.1188  0.1612
 2063TIP3    H127680   5.560   5.796  13.669 -2.1116 -2.7185  2.1833
 2063TIP3    H227681   5.497   5.748  13.540 -1.1044 -0.8959  0.9626
 2064TIP3   OH227682   1.209   3.037   6.264  0.5258  0.1402 -0.5113
 2064TIP3    H127683   1.179   3.067   6.178  1.1780  0.3182 -0.6793
 2064TIP3    H227684   1.176   3.103   6.325 -1.4208 -0.8670 -0.3946
 2065TIP3   OH227685   4.723   6.555  12.773 -0.3212  0.1691  0.9936
 2065TIP3    H127686   4.788   6.485  12.779  0.0376  0.5494  1.6267
 2065TIP3    H227687   4.774   6.633  12.751 -1.0679 -0.3760 -3.6942
 2066TIP3   OH227688   2.966   4.732  12.179  0.0039  0.4211 -0.5750
 2066TIP3    H127689   2.965   4.822  12.146 -0.9663  0.2356 -1.1068
 2066TIP3    H227690   3.002   4.739  12.267 -0.5131  1.4063 -0.4216
 2067TIP3   OH227691   3.527   0.539   0.093 -0.1360  0.1494 -0.0444
 2067TIP3    H127692   3.550   0.477   0.024  0.8082 -0.9919  1.2347
 2067TIP3    H227693   3.435   0.560   0.076  0.1648  0.1645 -1.8235
 2068TIP3   OH227694   0.335   0.331  15.380 -0.6025  0.0428  0.2238
 2068TIP3    H127695   0.276   0.256  15.371 -1.1927  0.5194  0.1310
 2068TIP3    H227696   0.280   0.402  15.412 -0.1542  0.5926 -0.2105
 2069TIP3   OH227697   5.050   4.852   3.117  0.4475  0.3176 -0.1006
 2069TIP3    H127698   4.988   4.790   3.079 -2.2030  2.0904  1.0274
 2069TIP3    H227699   5.084   4.808   3.194 -2.5853  0.6480  1.6031
 2070TIP3   OH227700   4.201   3.305  12.838  0.7389 -0.3673 -0.1889
 2070TIP3    H127701   4.188   3.396  12.811  0.6961 -0.7847 -1.6622
 2070TIP3    H227702   4.186   3.306  12.933 -1.9546  0.7000 -0.5149
 2071TIP3   OH227703   2.742   6.627   2.030 -0.2695 -0.0547  0.1859
 2071TIP3    H127704   2.757   6.562   2.099 -0.8572 -1.3138 -0.8210
 2071TIP3    H227705   2.672   6.683   2.064  0.5913  0.3800  1.2794
 2072TIP3   OH227706   0.416   0.571  17.084 -0.0384  0.1190 -0.4521
 2072TIP3    H127707   0.427   0.553  16.991 -0.5780  0.3891 -0.5789
 2072TIP3    H227708   0.504   0.566  17.121  0.5360  2.2261 -1.3824
 2073TIP3   OH227709   0.112   3.063  17.148  0.2683  0.7196  0.1757
 2073TIP3    H127710   0.149   3.056  17.060  0.9147  1.9915  0.3290
 2073TIP3    H227711   0.188   3.063  17.206 -0.1688 -0.4719  0.7850
 2074TIP3   OH227712   3.661   6.822   0.811  0.2218 -0.1687 -0.4771
 2074TIP3    H127713   3.700   6.741   0.843  0.8633  0.2852 -0.1022
 2074TIP3    H227714   3.719   6.850   0.740  0.6301  0.5484  0.1309
 2075TIP3   OH227715   5.352   4.151   4.077 -0.8942  0.9363 -0.1720
 2075TIP3    H127716   5.382   4.123   3.990  1.3170  1.3915  0.3834
 2075TIP3    H227717   5.388   4.239   4.087 -1.1870  0.9194  1.1776
 2076TIP3   OH227718   1.855   4.837  15.754  0.6200  0.0932 -0.0406
 2076TIP3    H127719   1.944   4.802  15.762  0.6104  0.2060  0.6179
 2076TIP3    H227720   1.813   4.815  15.837 -0.3847 -1.0929 -0.8384
 2077TIP3   OH227721   4.884   3.308  12.329 -0.3473  0.1968  0.2030
 2077TIP3    H127722   4.893   3.359  12.410  2.0588  0.6800 -0.3206
 2077TIP3    H227723   4.851   3.370  12.265 -1.0965  0.1002  0.4721
 2078TIP3   OH227724   5.831   4.672   1.773  0.3918 -0.0769 -0.2520
 2078TIP3    H127725   5.793   4.712   1.851 -0.8065 -0.5948 -0.5441
 2078TIP3    H227726   5.757   4.659   1.714  1.2329  0.0687 -1.3860
 2079TIP3   OH227727   5.916   1.694  14.132  0.5139 -0.3117 -0.2567
 2079TIP3    H127728   5.882   1.660  14.049 -0.3777 -0.9102  0.3357
 2079TIP3    H227729   6.011   1.693  14.120  0.3945  0.1886 -1.4814
 2080TIP3   OH227730   1.567   3.206   1.459 -0.2062 -0.2810  0.1063
 2080TIP3    H127731   1.507   3.226   1.531  2.2303 -2.2275  2.9002
 2080TIP3    H227732   1.612   3.289   1.442 -0.1899  0.0273  1.5099
 2081TIP3   OH227733   3.878   6.546   5.005  0.1204 -0.1906  0.0946
 2081TIP3    H127734   3.928   6.617   5.045 -1.7981  1.2534  0.1271
 2081TIP3    H227735   3.888   6.472   5.065 -0.0714  0.9397  1.5746
 2082TIP3   OH227736   6.840   0.297  16.595 -0.6996 -0.2132 -0.0520
 2082TIP3    H127737   6.926   0.285  16.554 -1.1241  1.1993 -1.4647
 2082TIP3    H227738   6.852   0.370  16.656 -0.8176 -0.2313 -0.0063
 2083TIP3   OH227739   4.443   3.743   3.625  0.0331 -0.4817 -0.3039
 2083TIP3    H127740   4.408   3.661   3.661 -0.7754 -0.2426 -0.5163
 2083TIP3    H227741   4.527   3.754   3.669  0.2495 -1.5307 -0.4223
 2084TIP3   OH227742   1.721   6.543  16.676 -0.2814 -0.3218 -0.4612
 2084TIP3    H127743   1.719   6.638  16.674  0.2000 -0.3083 -0.5675
 2084TIP3    H227744   1.755   6.518  16.590 -0.2574 -0.5798 -0.3773
 2085TIP3   OH227745   2.879   1.448  13.055 -0.3676  0.3474 -0.2968
 2085TIP3    H127746   2.946   1.506  13.092 -1.4643  1.0720  0.5801
 2085TIP3    H227747   2.800   1.500  13.052 -1.0473 -0.6759 -0.8316
 2086TIP3   OH227748   5.514   5.958   4.244 -0.4763 -0.2081  0.2758
 2086TIP3    H127749   5.431   5.975   4.199 -0.7870 -1.7054  0.2407
 2086TIP3    H227750   5.581   5.970   4.176 -0.7462 -0.0909  0.0266
 2087TIP3   OH227751   4.473   1.822   0.217  0.3306 -0.5800  0.2598
 2087TIP3    H127752   4.550   1.814   0.160 -0.1521 -0.6158 -0.4030
 2087TIP3    H227753   4.447   1.914   0.208  0.3930 -0.5278  0.6138
 2088TIP3   OH227754   4.690   5.596   2.957  0.7043 -0.4363  0.2302
 2088TIP3    H127755   4.649   5.680   2.934  1.6206 -0.2387 -0.7898
 2088TIP3    H227756   4.670   5.584   3.050 -2.1685 -0.6630 -0.3226
 2089TIP3   OH227757   5.406   2.392   4.007  1.2938 -0.0770 -0.8006
 2089TIP3    H127758   5.395   2.402   3.912  1.8204 -1.1098 -0.9859
 2089TIP3    H227759   5.389   2.479   4.043  2.1124  0.5706 -1.9346
 2090TIP3   OH227760   3.487   4.394  12.212 -0.3924 -0.7458 -0.6990
 2090TIP3    H127761   3.479   4.307  12.175  0.5654  0.1394 -3.2081
 2090TIP3    H227762   3.562   4.432  12.167  0.0940  0.8955  1.3587
 2091TIP3   OH227763   6.350   0.401  16.581 -0.0584  0.3071  0.2575
 2091TIP3    H127764   6.369   0.464  16.651 -1.2618  1.1793 -0.1833
 2091TIP3    H227765   6.406   0.326  16.602  1.1422  1.3644  0.9921
 2092TIP3   OH227766   5.375   0.111   1.856 -0.1267 -0.4368  0.3034
 2092TIP3    H127767   5.318   0.074   1.923 -0.5922 -1.0442 -0.4159
 2092TIP3    H227768   5.448   0.050   1.849  0.1111 -0.1796  0.5168
 2093TIP3   OH227769   6.054   0.442   0.359 -0.4597  0.1520 -0.1075
 2093TIP3    H127770   6.022   0.435   0.449 -1.6243  1.1050 -0.4316
 2093TIP3    H227771   6.125   0.506   0.364  0.4759 -0.8840  0.3608
 2094TIP3   OH227772   5.950   2.451   4.881  0.3230 -0.3650  0.2362
 2094TIP3    H127773   6.019   2.502   4.837  0.4978  0.6773  1.6418
 2094TIP3    H227774   5.961   2.362   4.847  1.2875  0.1189 -0.8170
 2095TIP3   OH227775   6.330   6.842  13.662  0.3426  0.2042  0.1924
 2095TIP3    H127776   6.270   6.916  13.662  0.4931  0.3371 -0.6207
 2095TIP3    H227777   6.320   6.803  13.575  3.0638  1.6153 -0.8804
 2096TIP3   OH227778   3.782   3.555  17.023 -0.1267 -0.4819 -0.3130
 2096TIP3    H127779   3.864   3.510  17.001  0.1566  0.3506 -0.9947
 2096TIP3    H227780   3.806   3.616  17.093 -0.2552 -0.5252 -0.2324
 2097TIP3   OH227781   1.563   6.718   4.852  0.1916  0.0677  0.6449
 2097TIP3    H127782   1.549   6.681   4.939 -1.5382 -2.4733 -0.5553
 2097TIP3    H227783   1.655   6.702   4.833 -0.1940 -2.6841  0.7147
 2098TIP3   OH227784   2.354   6.248  11.610  0.2067  0.6216 -0.8234
 2098TIP3    H127785   2.300   6.261  11.532 -0.6394 -1.1170 -0.5611
 2098TIP3    H227786   2.424   6.189  11.582  1.1377  1.6667 -0.7754
 2099TIP3   OH227787   5.121   6.289   3.048  0.3951 -0.4725 -0.1459
 2099TIP3    H127788   5.040   6.331   3.020  1.5042  1.6577 -0.3727
 2099TIP3    H227789   5.149   6.237   2.973  0.4717  0.7229 -0.9681
 2100TIP3   OH227790   2.265   1.542  15.272  0.0118  0.7642 -0.4716
 2100TIP3    H127791   2.212   1.541  15.192  0.1870  0.8857 -0.5895
 2100TIP3    H227792   2.283   1.450  15.290 -1.3075  0.6303  0.2787
 2101TIP3   OH227793   0.805   5.929  15.092  0.1348 -0.2298 -0.0601
 2101TIP3    H127794   0.790   5.927  14.998  1.9694  1.0829 -0.4441
 2101TIP3    H227795   0.833   6.019  15.110 -1.9476  0.1115  2.0856
 2102TIP3   OH227796   2.985   1.386   0.159 -0.3842 -0.0843  0.1210
 2102TIP3    H127797   3.054   1.450   0.175  1.0552 -1.1911 -1.2822
 2102TIP3    H227798   2.922   1.432   0.103  0.4520  0.2364 -0.5797
 2103TIP3   OH227799   2.072   2.153   0.976 -0.3659  0.1054  0.2266
 2103TIP3    H127800   2.066   2.059   0.962  0.8273  0.1871 -0.9376
 2103TIP3    H227801   2.066   2.164   1.071 -0.6362 -1.1199  0.3600
 2104TIP3   OH227802   3.232   4.853  14.474 -0.3097 -0.4719  0.5386
 2104TIP3    H127803   3.287   4.895  14.540  0.3933 -1.4293  0.5746
 2104TIP3    H227804   3.159   4.816  14.523 -0.9381  0.6605  0.5090
 2105TIP3   OH227805   0.413   1.105  16.799 -0.8808 -0.4650  0.8089
 2105TIP3    H127806   0.496   1.060  16.785 -0.9848 -0.5028  0.3197
 2105TIP3    H227807   0.349   1.035  16.811 -0.8562 -0.4370  1.1078
 2106TIP3   OH227808   4.652   3.034  10.435  0.3546 -0.6841  0.2918
 2106TIP3    H127809   4.656   3.005  10.526 -1.4295 -0.6508  0.4133
 2106TIP3    H227810   4.677   3.126  10.438 -2.6732  0.1947  1.2567
 2107TIP3   OH227811   4.943   0.196   3.010  0.5916  0.1550 -0.1218
 2107TIP3    H127812   4.897   0.188   2.926 -0.6648  2.1099  0.2974
 2107TIP3    H227813   5.020   0.141   3.001 -0.4854 -1.1614 -1.8604
 2108TIP3   OH227814   0.578   2.564   0.506  0.0302  0.6918  0.5887
 2108TIP3    H127815   0.502   2.583   0.560  1.7484  0.2124  3.3662
 2108TIP3    H227816   0.627   2.498   0.555  2.2421  0.9815 -1.0708
 2109TIP3   OH227817   3.141   4.532  11.509  0.2426 -0.0462 -0.1844
 2109TIP3    H127818   3.068   4.473  11.490 -0.3269  0.2122  1.0943
 2109TIP3    H227819   3.215   4.496  11.459  0.4191 -2.9496  1.8920
 2110TIP3   OH227820   2.637   4.014  16.329 -0.3041 -0.4649 -0.5596
 2110TIP3    H127821   2.660   4.107  16.329 -0.9588 -0.2919  0.0729
 2110TIP3    H227822   2.693   3.975  16.396  0.0748 -0.5541 -0.9286
 2111TIP3   OH227823   1.467   6.298   6.033  0.3965  0.2294  0.0899
 2111TIP3    H127824   1.392   6.352   6.055 -0.3406 -0.8605  0.3339
 2111TIP3    H227825   1.445   6.211   6.066  1.9529 -0.0222  0.5745
 2112TIP3   OH227826   1.862   1.705  12.195  0.3107 -0.2399 -0.4217
 2112TIP3    H127827   1.888   1.616  12.216 -0.1121 -0.2427  0.1360
 2112TIP3    H227828   1.863   1.709  12.099 -0.2516 -1.0243 -0.4739
 2113TIP3   OH227829   5.188   4.445   3.273 -0.2870 -0.1155  0.6292
 2113TIP3    H127830   5.232   4.360   3.272  0.7549  0.4117  0.2090
 2113TIP3    H227831   5.239   4.497   3.336 -0.3875  0.4653  0.2333
 2114TIP3   OH227832   4.785   2.213   3.009  0.2823  0.5805  0.2292
 2114TIP3    H127833   4.847   2.178   2.944  2.1876  1.3573  1.5393
 2114TIP3    H227834   4.707   2.234   2.958  1.1096 -0.3305 -1.5276
 2115TIP3   OH227835   5.701   0.675   3.576 -0.0667  0.1749 -0.1369
 2115TIP3    H127836   5.749   0.745   3.533 -0.7126 -0.1771 -1.4731
 2115TIP3    H227837   5.713   0.692   3.670  1.3421  0.9712 -0.4335
 2116TIP3   OH227838   0.351   4.306   3.440  0.2878  0.1967 -0.2541
 2116TIP3    H127839   0.390   4.290   3.355  1.3377  0.6980  0.1091
 2116TIP3    H227840   0.259   4.286   3.429  0.9390 -3.1694 -0.5832
 2117TIP3   OH227841   4.117   6.273   6.116  0.3411  0.7159  0.4132
 2117TIP3    H127842   4.063   6.202   6.150  1.7331  0.3319  1.9398
 2117TIP3    H227843   4.058   6.348   6.111 -0.8335 -0.2062 -0.0167
 2118TIP3   OH227844   1.159   2.658  15.745  0.2873  0.2022  0.9725
 2118TIP3    H127845   1.090   2.599  15.775 -0.7489  1.3567  0.9377
 2118TIP3    H227846   1.140   2.741  15.788  0.2026  1.2129 -0.9106
 2119TIP3   OH227847   3.250   1.031  13.047 -0.6488  0.0588 -0.2482
 2119TIP3    H127848   3.331   1.004  13.090 -0.3060  0.1361 -0.8311
 2119TIP3    H227849   3.276   1.050  12.957 -1.3628 -0.1805 -0.5163
 2120TIP3   OH227850   4.573   1.665  15.956  0.4921 -0.4260  0.1183
 2120TIP3    H127851   4.608   1.748  15.988  0.4467 -1.1004  2.0812
 2120TIP3    H227852   4.562   1.678  15.862  0.7801  1.6655  0.3253
 2121TIP3   OH227853   4.179   0.388  12.793  0.0860 -0.9780 -0.3644
 2121TIP3    H127854   4.099   0.347  12.824 -0.6013  0.7567  0.2984
 2121TIP3    H227855   4.180   0.371  12.699 -2.0381  0.4580 -0.7243
 2122TIP3   OH227856   1.610   4.362   3.520 -0.2074  0.1226  0.0432
 2122TIP3    H127857   1.633   4.329   3.607  0.5507 -0.4140 -0.3543
 2122TIP3    H227858   1.647   4.298   3.459 -3.0379 -1.0344 -0.6661
 2123TIP3   OH227859   2.288   2.301  11.034 -0.1520  0.2723 -0.1622
 2123TIP3    H127860   2.223   2.278  11.100  1.6560  0.2637  1.7235
 2123TIP3    H227861   2.344   2.224  11.027 -0.4658  0.1751 -1.9527
 2124TIP3   OH227862   2.655   2.696  13.951 -0.4339  0.2693  0.5451
 2124TIP3    H127863   2.562   2.677  13.950  0.0399 -2.4296 -0.7412
 2124TIP3    H227864   2.695   2.623  13.998  1.0822  1.2953  0.9661
 2125TIP3   OH227865   0.985   5.125  16.685 -0.6968  0.2459  0.2424
 2125TIP3    H127866   1.029   5.204  16.654  0.9977 -0.9797 -0.5838
 2125TIP3    H227867   0.905   5.120  16.633 -0.7037  1.2687  0.1338
 2126TIP3   OH227868   4.268   6.178   0.554  0.3748 -0.6373 -0.5365
 2126TIP3    H127869   4.343   6.155   0.499  0.3048 -3.1760  0.3405
 2126TIP3    H227870   4.300   6.166   0.643 -0.8527 -0.9817 -0.1361
 2127TIP3   OH227871   1.980   1.292   4.192  0.9566 -0.2711 -0.0355
 2127TIP3    H127872   1.931   1.304   4.111 -0.8480 -0.0797  1.0199
 2127TIP3    H227873   2.001   1.198   4.194 -2.9050 -1.3149  1.2541
 2128TIP3   OH227874   6.048   4.693   5.678 -0.4184 -0.0101  0.3535
 2128TIP3    H127875   6.079   4.623   5.735  0.1914  0.9692  1.2757
 2128TIP3    H227876   6.095   4.680   5.596  0.7154  0.0807  0.9612
 2129TIP3   OH227877   4.499   5.689  16.732 -0.1951  0.3679  0.6962
 2129TIP3    H127878   4.492   5.776  16.693 -0.5758  1.5875  3.2512
 2129TIP3    H227879   4.523   5.705  16.823  0.5284 -2.2646  1.0737
 2130TIP3   OH227880   2.355   3.123  14.884 -0.0611  0.5181 -0.1747
 2130TIP3    H127881   2.320   3.156  14.966 -2.1457  1.5861 -1.4097
 2130TIP3    H227882   2.363   3.028  14.897  0.3675  0.7514  1.4630
 2131TIP3   OH227883   0.556   1.576  16.437  0.0788 -0.1551  0.1958
 2131TIP3    H127884   0.564   1.560  16.530  0.0583 -1.1770  0.0277
 2131TIP3    H227885   0.470   1.619  16.427  0.3546  0.5318  0.7000
 2132TIP3   OH227886   2.066   6.200   0.499 -0.3714 -0.1760 -0.1496
 2132TIP3    H127887   2.037   6.148   0.574 -0.5032 -0.6590 -0.5315
 2132TIP3    H227888   1.992   6.198   0.438 -0.4326  0.5855 -0.1047
 2133TIP3   OH227889   2.012   1.281  15.983 -0.4371 -0.0379 -0.0643
 2133TIP3    H127890   2.104   1.266  15.965 -0.4881 -1.1412  0.4941
 2133TIP3    H227891   1.973   1.194  15.983 -1.2931  0.3211  0.6790
 2134TIP3   OH227892   5.075   3.846   1.754 -0.5791  0.0386  0.0057
 2134TIP3    H127893   5.080   3.941   1.749  0.4692 -0.0361 -0.8079
 2134TIP3    H227894   5.042   3.828   1.842  0.4566  1.1452  0.6559
 2135TIP3   OH227895   0.343   3.399  12.922 -0.0640 -0.0889 -0.2873
 2135TIP3    H127896   0.382   3.485  12.938 -0.1908 -0.1936  0.6097
 2135TIP3    H227897   0.328   3.362  13.009 -1.2936 -0.4413 -0.6226
 2136TIP3   OH227898   6.525   0.990   3.125  0.1472 -0.0731 -0.0274
 2136TIP3    H127899   6.556   1.050   3.194 -1.2580  0.5287  0.1394
 2136TIP3    H227900   6.600   0.935   3.105  0.7904  0.1697  1.5366
 2137TIP3   OH227901   4.809   4.258  11.576 -0.2391 -0.0004 -0.5852
 2137TIP3    H127902   4.852   4.177  11.549  2.6578  1.4007 -0.5718
 2137TIP3    H227903   4.717   4.233  11.588  0.2041 -2.8749 -2.1338
 2138TIP3   OH227904   5.338   2.081   5.815  0.0418 -0.2430 -0.4380
 2138TIP3    H127905   5.375   1.998   5.783 -0.1829 -0.7616  0.6002
 2138TIP3    H227906   5.244   2.066   5.815  0.0464 -0.3775  0.7379
 2139TIP3   OH227907   3.013   2.872  15.269  0.3325  0.2691 -0.1520
 2139TIP3    H127908   2.975   2.958  15.286 -1.6980 -0.7009  0.4572
 2139TIP3    H227909   3.039   2.839  15.355 -0.9153 -0.5967 -0.0806
 2140TIP3   OH227910   1.463   2.424  12.907  0.5844  0.7535 -0.8261
 2140TIP3    H127911   1.464   2.350  12.967  1.9719 -0.4693 -2.2881
 2140TIP3    H227912   1.549   2.464  12.916  0.4684  1.1241 -1.3064
 2141TIP3   OH227913   0.028   5.621  15.889 -0.2260 -0.0182  0.3756
 2141TIP3    H127914   0.111   5.648  15.849 -0.7617 -0.8383 -1.3407
 2141TIP3    H227915  -0.035   5.622  15.818 -1.5988  0.0729  1.5525
 2142TIP3   OH227916   5.664   6.405   4.380  0.2058  0.0888  0.8775
 2142TIP3    H127917   5.724   6.340   4.343 -0.0262  0.1297  0.4141
 2142TIP3    H227918   5.655   6.470   4.311  0.2666  0.5050  1.2590
 2143TIP3   OH227919   5.548   6.497  15.005 -0.3011  0.5040  0.4265
 2143TIP3    H127920   5.538   6.591  15.019 -1.7951  0.4379 -0.0249
 2143TIP3    H227921   5.587   6.464  15.087 -0.1038  1.4562  0.7222
 2144TIP3   OH227922   0.748   0.832  11.100 -0.0498 -0.0622  0.2967
 2144TIP3    H127923   0.797   0.867  11.025  0.2709 -2.4232 -0.6692
 2144TIP3    H227924   0.670   0.792  11.060 -0.0728 -0.9996  1.2475
 2145TIP3   OH227925   5.062   4.546  16.622 -0.3166 -0.4161 -0.6330
 2145TIP3    H127926   5.117   4.604  16.675 -0.1574  0.5791 -1.8508
 2145TIP3    H227927   4.999   4.510  16.685  0.7692 -0.4106  0.5057
 2146TIP3   OH227928   5.784   0.239   1.725  0.5733 -0.2685  0.5845
 2146TIP3    H127929   5.751   0.282   1.646 -0.4386 -0.9807  0.5979
 2146TIP3    H227930   5.851   0.298   1.758  1.3829 -0.1829 -1.0802
 2147TIP3   OH227931   0.110   6.281  16.939  0.5137 -0.2042 -0.3292
 2147TIP3    H127932   0.172   6.232  16.885 -1.1290 -0.8165 -1.7684
 2147TIP3    H227933   0.045   6.215  16.967  0.6063  0.3588  1.3438
 2148TIP3   OH227934   6.516   1.915   0.865  0.1870  0.0746 -0.6319
 2148TIP3    H127935   6.476   1.929   0.779  0.5535 -0.9409 -0.9878
 2148TIP3    H227936   6.568   1.836   0.854  0.9169  0.4081  0.3006
 2149TIP3   OH227937   2.979   1.488   1.096 -0.8770 -0.0388 -0.6763
 2149TIP3    H127938   2.956   1.457   1.009 -2.4013 -1.1041  0.0647
 2149TIP3    H227939   2.999   1.581   1.084  0.4572 -0.4946 -2.3796
 2150TIP3   OH227940   3.270   2.114  12.256 -0.2021  0.0510 -0.6086
 2150TIP3    H127941   3.279   2.202  12.219 -1.1206  0.5527  0.3221
 2150TIP3    H227942   3.227   2.064  12.187  0.7842  0.1756 -1.3438
 2151TIP3   OH227943   3.972   4.211   4.087 -0.0661  0.0472 -0.3219
 2151TIP3    H127944   4.017   4.206   4.172 -0.0252  0.3537 -0.3254
 2151TIP3    H227945   3.902   4.146   4.093  1.3056 -1.5510 -0.8778
 2152TIP3   OH227946   3.298   1.479  13.822 -0.0949  0.1615 -0.3300
 2152TIP3    H127947   3.223   1.493  13.880  1.5309  1.0264  1.6888
 2152TIP3    H227948   3.292   1.548  13.757 -0.2424  1.1730  0.7307
 2153TIP3   OH227949   2.011   2.579   4.104  0.0597  0.1588 -0.1766
 2153TIP3    H127950   2.066   2.500   4.104 -0.5470 -0.2739 -0.2482
 2153TIP3    H227951   1.976   2.584   4.015 -0.0071  0.4377 -0.1352
 2154TIP3   OH227952   0.613   2.973  16.212  0.3397  0.3720 -0.4225
 2154TIP3    H127953   0.523   2.948  16.229 -0.5603  3.5277  0.0648
 2154TIP3    H227954   0.634   3.037  16.280  3.7151 -1.6804  0.7361
 2155TIP3   OH227955   0.067   5.458   1.696 -0.0981  0.2107 -0.0769
 2155TIP3    H127956   0.065   5.385   1.758 -0.0435 -1.1096 -1.5731
 2155TIP3    H227957   0.021   5.425   1.619  2.0536  0.8355 -1.7229
 2156TIP3   OH227958   4.651   2.200  16.019 -0.6302 -0.2663 -0.3761
 2156TIP3    H127959   4.672   2.285  15.980  0.1832 -0.3509 -0.1408
 2156TIP3    H227960   4.564   2.179  15.985  0.0508 -0.3377 -2.1536
 2157TIP3   OH227961   5.061   5.302   3.919  0.1771  0.6281 -0.6384
 2157TIP3    H127962   4.977   5.346   3.904 -0.8467 -1.0273  0.0042
 2157TIP3    H227963   5.062   5.230   3.856  0.3004 -0.4219  0.5286
 2158TIP3   OH227964   6.833   4.032   4.917  0.2373  0.1004 -0.6055
 2158TIP3    H127965   6.918   4.012   4.955  0.3954  0.7421 -0.6142
 2158TIP3    H227966   6.800   3.948   4.887  1.0933 -0.0825 -1.0573
 2159TIP3   OH227967   3.419   3.739   2.417 -0.1876  0.0749 -0.3558
 2159TIP3    H127968   3.359   3.777   2.482  0.4689  0.4691  0.0224
 2159TIP3    H227969   3.482   3.808   2.398 -0.5854  0.0977 -1.7186
 2160TIP3   OH227970   3.399   6.687  14.324 -0.6295 -0.7887  0.0640
 2160TIP3    H127971   3.492   6.708  14.329 -0.2767 -2.0046 -0.9116
 2160TIP3    H227972   3.366   6.704  14.412  0.1067  1.3576 -0.0066
 2161TIP3   OH227973   1.620   6.240   0.838  0.1883 -0.3867 -0.3297
 2161TIP3    H127974   1.631   6.229   0.743 -0.5701 -2.0884 -0.2460
 2161TIP3    H227975   1.526   6.255   0.849  0.3340  0.1997  0.1296
 2162TIP3   OH227976   2.891   3.242   0.899 -0.6279  0.8406 -0.3702
 2162TIP3    H127977   2.876   3.194   0.980  0.3979  0.3461 -0.4560
 2162TIP3    H227978   2.839   3.322   0.908 -2.7420 -0.4490 -0.4104
 2163TIP3   OH227979   0.339   2.317  14.409  0.2651  0.2619 -0.4742
 2163TIP3    H127980   0.323   2.409  14.387  1.3221  0.5482 -0.1034
 2163TIP3    H227981   0.378   2.319  14.497 -0.5022 -0.6089 -0.0943
 2164TIP3   OH227982   3.121   4.426   5.699 -0.1395 -0.3664  0.1075
 2164TIP3    H127983   3.174   4.397   5.773 -0.2450 -1.3756 -0.2025
 2164TIP3    H227984   3.031   4.421   5.730 -0.1061  0.7954  0.4427
 2165TIP3   OH227985   3.966   2.460  16.943 -0.2868  0.1367 -0.3632
 2165TIP3    H127986   3.950   2.381  16.892  1.4663 -0.1190 -0.5597
 2165TIP3    H227987   3.936   2.438  17.031 -0.3125 -0.5559 -0.5413
 2166TIP3   OH227988   4.789   6.196   6.207  0.8063 -0.0492  0.1097
 2166TIP3    H127989   4.784   6.279   6.160 -1.0890 -1.6668 -2.8449
 2166TIP3    H227990   4.701   6.181   6.240  0.3542 -1.9929 -1.7060
 2167TIP3   OH227991   1.643   4.155  14.777 -0.2769 -0.3625  0.6455
 2167TIP3    H127992   1.690   4.095  14.719  2.1174  1.2563  0.7718
 2167TIP3    H227993   1.678   4.136  14.864 -1.4751 -0.5724  1.0999
 2168TIP3   OH227994   4.319   0.126   1.532 -0.3427 -0.0193  0.5084
 2168TIP3    H127995   4.297   0.214   1.561  0.6187  0.7744 -1.0708
 2168TIP3    H227996   4.400   0.104   1.579 -0.2789  0.1672  0.4855
 2169TIP3   OH227997   3.377   5.321   0.916 -0.0137  0.0761 -0.1443
 2169TIP3    H127998   3.405   5.354   1.001 -1.0104  0.2566  0.1238
 2169TIP3    H227999   3.422   5.237   0.907 -0.3091 -0.1954  0.7981
 2170TIP3   OH228000   1.267   6.374   2.204  0.4102  0.0186 -0.6614
 2170TIP3    H128001   1.211   6.370   2.127  0.6835 -0.8714 -0.8268
 2170TIP3    H228002   1.209   6.353   2.277  0.4426 -0.5216 -0.7879
 2171TIP3   OH228003   0.862   0.322  10.426 -0.1364  0.0517 -0.5143
 2171TIP3    H128004   0.903   0.307  10.511 -1.8796 -1.4912  0.1377
 2171TIP3    H228005   0.816   0.240  10.407 -0.9519  0.8584 -2.2942
 2172TIP3   OH228006   3.059   2.304   2.834  0.1866 -0.1174  0.3702
 2172TIP3    H128007   3.091   2.380   2.882 -1.0754  0.4699  0.3412
 2172TIP3    H228008   3.124   2.236   2.850  0.2784  0.3318  2.1510
 2173TIP3   OH228009   2.816   2.630   0.776 -0.4441 -0.2440 -0.1968
 2173TIP3    H128010   2.883   2.565   0.754  0.2769  0.2429  0.5195
 2173TIP3    H228011   2.746   2.580   0.818 -0.7095 -0.8059 -1.2576
 2174TIP3   OH228012   0.212   2.989   6.268 -0.2051  0.5906  0.0328
 2174TIP3    H128013   0.225   3.078   6.300  0.4193  0.6077 -0.2659
 2174TIP3    H228014   0.123   2.966   6.297 -0.7702  1.6801 -0.7619
 2175TIP3   OH228015   0.328   0.827  11.319  0.1010 -0.5115 -0.2464
 2175TIP3    H128016   0.342   0.820  11.225  0.4379  0.2748 -0.2597
 2175TIP3    H228017   0.301   0.739  11.346 -1.3536 -0.4352 -1.2980
 2176TIP3   OH228018   2.996   0.923   2.274 -0.2642 -0.2414 -0.3398
 2176TIP3    H128019   3.060   0.941   2.342  0.1542 -0.7611 -0.5965
 2176TIP3    H228020   2.956   0.840   2.299 -1.4490  0.4838  0.2725
 2177TIP3   OH228021   1.991   5.460  15.996 -0.8436  0.0114  0.0372
 2177TIP3    H128022   1.914   5.424  15.952  1.2496 -0.8035 -3.3158
 2177TIP3    H228023   2.050   5.385  16.008 -0.2393  0.7161  1.8957
 2178TIP3   OH228024   0.421   2.500   3.044  0.0738 -0.1777 -0.1177
 2178TIP3    H128025   0.475   2.579   3.049  0.0374 -0.2068  0.9739
 2178TIP3    H228026   0.331   2.532   3.043  0.0812 -0.1737 -0.5727
 2179TIP3   OH228027   6.511   5.504  13.832 -0.4079 -0.0734 -0.3610
 2179TIP3    H128028   6.422   5.527  13.859 -0.7755 -1.2849 -0.4902
 2179TIP3    H228029   6.513   5.519  13.738  0.4984  2.9328  0.0104
 2180TIP3   OH228030   0.415   4.669   0.541  0.0199 -0.1242 -0.0908
 2180TIP3    H128031   0.477   4.715   0.597  0.2142 -0.8628  0.3191
 2180TIP3    H228032   0.410   4.581   0.578 -0.0891 -0.5384 -1.0561
 2181TIP3   OH228033   3.355   2.012   2.425 -0.1314 -0.0881 -0.0470
 2181TIP3    H128034   3.355   1.995   2.330 -0.2183 -0.5097  0.0265
 2181TIP3    H228035   3.448   2.024   2.446 -0.2295  1.4884 -0.4363
 2182TIP3   OH228036   2.761   3.848   5.387 -0.1818 -0.3056 -0.0080
 2182TIP3    H128037   2.773   3.943   5.382  0.5173 -0.3760  0.1868
 2182TIP3    H228038   2.734   3.823   5.299  2.4986 -0.2912 -0.9488
 2183TIP3   OH228039   5.095   2.210  15.908 -0.1416 -0.2981  0.2132
 2183TIP3    H128040   5.059   2.186  15.993 -2.5763  2.6177  0.1442
 2183TIP3    H228041   5.023   2.253  15.862  2.1591  1.6907 -1.8293
 2184TIP3   OH228042   2.710   3.861   1.518  0.3252  0.0024  0.1985
 2184TIP3    H128043   2.636   3.840   1.576  0.4852  0.4600  0.5792
 2184TIP3    H228044   2.787   3.838   1.570  0.4487 -1.8784 -0.7492
 2185TIP3   OH228045   5.273   6.540  11.894  0.3815 -0.0779  0.4153
 2185TIP3    H128046   5.304   6.630  11.904  2.5753 -0.4747 -1.8629
 2185TIP3    H228047   5.177   6.548  11.889  0.5658  2.2232 -0.5625
 2186TIP3   OH228048   4.029   6.264  15.448  0.2100 -0.1379  1.0527
 2186TIP3    H128049   4.037   6.171  15.471  2.3987 -0.0592  0.8256
 2186TIP3    H228050   3.980   6.302  15.521 -0.9056 -1.4782  1.0547
 2187TIP3   OH228051   3.991   4.286   5.329 -0.0875  0.4150  0.1400
 2187TIP3    H128052   4.075   4.262   5.290 -0.3602  1.3740 -1.1016
 2187TIP3    H228053   3.974   4.375   5.296 -1.6470  0.1820  0.2562
 2188TIP3   OH228054   3.765   1.753  15.597 -0.2559 -0.3892  0.1476
 2188TIP3    H128055   3.707   1.728  15.525 -0.1049  1.2085 -0.5826
 2188TIP3    H228056   3.789   1.671  15.639 -2.3478 -1.1673 -0.0750
 2189TIP3   OH228057   6.185   2.298   3.048  0.1740  0.3614  0.2068
 2189TIP3    H128058   6.095   2.314   3.019  0.3924  1.2644  0.0051
 2189TIP3    H228059   6.177   2.221   3.106 -0.8532  0.8801  0.8030
 2190TIP3   OH228060   1.966   5.049   5.053 -0.1267  0.0918  0.2149
 2190TIP3    H128061   1.926   5.029   4.968 -3.4802  3.0199  0.8574
 2190TIP3    H228062   1.934   4.980   5.111  0.4261 -0.7279 -0.4346
 2191TIP3   OH228063   5.522   0.581  11.636  0.4352  0.2739  0.2333
 2191TIP3    H128064   5.570   0.630  11.570  2.5831 -1.9619 -0.0184
 2191TIP3    H228065   5.562   0.605  11.719  0.8748 -0.3401  0.2055
 2192TIP3   OH228066   4.190   3.558  12.281 -0.1376 -0.5386  0.2149
 2192TIP3    H128067   4.139   3.521  12.209 -0.3945  0.1947  0.0119
 2192TIP3    H228068   4.163   3.507  12.358 -3.4486  1.6499  0.7282
 2193TIP3   OH228069   0.426   1.868  15.356  0.5958 -0.4584  0.1806
 2193TIP3    H128070   0.385   1.941  15.311  0.0472 -1.8919 -1.8158
 2193TIP3    H228071   0.436   1.897  15.446 -0.4177  1.7028 -0.3407
 2194TIP3   OH228072   1.813   1.673   4.992  0.3529  0.3528  0.8548
 2194TIP3    H128073   1.792   1.755   5.038 -0.2901 -0.3105  1.7753
 2194TIP3    H228074   1.886   1.696   4.935 -0.3841  1.7942  0.4293
 2195TIP3   OH228075   0.288   2.868  11.620 -0.3602 -0.5680  0.0762
 2195TIP3    H128076   0.340   2.936  11.663  0.1647 -1.7280  1.3424
 2195TIP3    H228077   0.275   2.901  11.531  1.1237  0.5163  0.2206
 2196TIP3   OH228078   3.193   1.381  12.978  0.6005 -0.5406  0.4143
 2196TIP3    H128079   3.178   1.439  13.053 -1.7287 -2.4547  1.5583
 2196TIP3    H228080   3.195   1.293  13.015  0.7343 -1.4749 -1.6425
 2197TIP3   OH228081   4.731   0.878  14.667 -0.4734  0.0823 -0.7947
 2197TIP3    H128082   4.644   0.884  14.707 -0.7167  2.2570 -1.5145
 2197TIP3    H228083   4.726   0.935  14.590  1.7453  0.6758 -0.5602
 2198TIP3   OH228084   4.771   5.458  15.542 -0.1629 -0.5914  0.1104
 2198TIP3    H128085   4.855   5.495  15.568 -0.2035 -1.5702  1.7534
 2198TIP3    H228086   4.794   5.388  15.480  0.1510 -0.2410 -0.1725
 2199TIP3   OH228087   2.888   0.366   6.325 -0.0142 -0.5072  0.1624
 2199TIP3    H128088   2.923   0.431   6.385  2.8272 -0.3298 -1.5117
 2199TIP3    H228089   2.881   0.412   6.241  0.2581 -1.8381 -0.6310
 2200TIP3   OH228090   0.216   5.509   0.152  0.3299 -0.0408  0.0167
 2200TIP3    H128091   0.281   5.530   0.219  0.9425 -1.0317 -0.2308
 2200TIP3    H228092   0.266   5.460   0.086 -0.7539 -1.2884  0.0734
 2201TIP3   OH228093   0.083   0.049   0.882  0.0291  0.1287 -0.2631
 2201TIP3    H128094   0.160  -0.004   0.859  0.7161  0.7242  0.5624
 2201TIP3    H228095   0.022   0.035   0.810  0.6682 -0.8443 -0.6420
 2202TIP3   OH228096   0.782   0.351   5.504  0.4650 -0.6597 -0.7341
 2202TIP3    H128097   0.702   0.398   5.528  0.4442 -0.1388 -1.7873
 2202TIP3    H228098   0.754   0.260   5.492  0.5245 -1.0255  1.4154
 2203TIP3   OH228099   3.211   3.358  11.682  0.2859 -0.3584 -0.0192
 2203TIP3    H128100   3.207   3.287  11.619  0.0731 -0.2565 -0.1206
 2203TIP3    H228101   3.145   3.336  11.748 -2.3686  1.4786 -1.8519
 2204TIP3   OH228102   6.683   0.385   1.020  0.0778 -0.0572  0.6721
 2204TIP3    H128103   6.661   0.477   1.009 -2.1811 -0.7873 -2.0775
 2204TIP3    H228104   6.779   0.384   1.022  0.1628  2.3381  0.6781
 2205TIP3   OH228105   5.467   0.445   3.036 -0.6073  0.0321  0.3369
 2205TIP3    H128106   5.421   0.482   3.112 -0.1815  3.0559 -0.7568
 2205TIP3    H228107   5.397   0.406   2.983 -0.9443 -1.8447  2.0452
 2206TIP3   OH228108   3.484   2.740  14.648 -0.0785 -0.1575 -0.0082
 2206TIP3    H128109   3.440   2.825  14.653 -1.1263 -0.7272  0.8967
 2206TIP3    H228110   3.479   2.705  14.736  1.2735 -0.7298 -0.1269
 2207TIP3   OH228111   4.752   6.279  14.288  0.1993  0.0168  0.1691
 2207TIP3    H128112   4.734   6.343  14.357  1.3998 -0.1332  0.6562
 2207TIP3    H228113   4.693   6.302  14.217  0.3250  1.4205  0.4944
 2208TIP3   OH228114   6.841   0.433  16.336  0.2870 -0.3796  0.0082
 2208TIP3    H128115   6.909   0.490  16.372  0.6626  0.6986 -2.2222
 2208TIP3    H228116   6.833   0.362  16.400 -1.2139  2.7441  3.6900
 2209TIP3   OH228117   4.279   6.746  15.634 -0.0589 -0.7074  0.3949
 2209TIP3    H128118   4.271   6.833  15.595 -0.9035 -1.1103 -0.3816
 2209TIP3    H228119   4.206   6.740  15.696  0.2837 -0.6850  0.8027
 2210TIP3   OH228120   2.571   5.062  10.537  0.3538 -0.6053 -0.0504
 2210TIP3    H128121   2.627   5.135  10.509 -0.2133 -0.4451 -0.7983
 2210TIP3    H228122   2.502   5.058  10.471 -1.4354  0.2057  1.6776
 2211TIP3   OH228123   4.172   2.832  15.453 -0.0455 -0.7439 -0.0985
 2211TIP3    H128124   4.092   2.816  15.504 -0.9036 -0.0654 -1.1700
 2211TIP3    H228125   4.154   2.915  15.408  1.2117 -0.6728 -0.4808
 2212TIP3   OH228126   4.520   2.178   5.824 -0.1650  0.4056  0.1269
 2212TIP3    H128127   4.560   2.182   5.737  0.8644 -1.3479  0.4685
 2212TIP3    H228128   4.500   2.085   5.837 -0.6563  0.6892  1.6160
 2213TIP3   OH228129   5.031   4.462  13.094 -0.0259 -0.0523 -0.2424
 2213TIP3    H128130   5.085   4.409  13.037 -1.3891 -1.2280 -0.4947
 2213TIP3    H228131   4.966   4.401  13.130 -1.4886  1.3597 -0.3414
 2214TIP3   OH228132   3.863   3.703  12.244  0.3042 -0.0797 -0.8239
 2214TIP3    H128133   3.898   3.623  12.206 -1.5947 -1.2222 -0.3189
 2214TIP3    H228134   3.832   3.754  12.169 -0.8848 -1.0556 -1.0290
 2215TIP3   OH228135   3.657   2.051   2.314  0.4174 -0.2847  0.7180
 2215TIP3    H128136   3.649   2.109   2.389  1.1299  0.4129  0.2531
 2215TIP3    H228137   3.748   2.021   2.315  0.3547 -0.5008  0.2923
 2216TIP3   OH228138   6.782   3.338  12.481 -0.6663  0.0715  0.2139
 2216TIP3    H128139   6.764   3.391  12.403 -0.3763  0.5295  0.4457
 2216TIP3    H228140   6.801   3.403  12.549  1.0405 -0.3365  0.1775
 2217TIP3   OH228141   1.891   0.753   3.411  0.0266 -0.5749  0.5210
 2217TIP3    H128142   1.852   0.700   3.341  0.1553  0.6480 -0.5362
 2217TIP3    H228143   1.984   0.758   3.388  0.5124 -1.9731  2.0245
 2218TIP3   OH228144   1.436   1.230   2.374  0.1663 -0.2686 -0.0952
 2218TIP3    H128145   1.359   1.278   2.345  0.9370 -0.7884 -3.4452
 2218TIP3    H228146   1.402   1.147   2.408 -0.7949  0.0621 -0.2279
 2219TIP3   OH228147   4.640   1.482  12.366 -0.5107  0.1171  0.3248
 2219TIP3    H128148   4.566   1.470  12.425 -0.8604  1.6456  0.2412
 2219TIP3    H228149   4.625   1.420  12.295 -1.6042  0.2642  0.4174
 2220TIP3   OH228150   5.801   6.180  16.521  0.1416  0.2000  0.0941
 2220TIP3    H128151   5.838   6.244  16.460 -0.5979  0.0008 -0.5864
 2220TIP3    H228152   5.840   6.201  16.606  0.2101  1.2996 -0.2008
 2221TIP3   OH228153   1.473   4.579  12.777 -0.0849  0.5760 -0.0129
 2221TIP3    H128154   1.493   4.650  12.839 -1.0000  0.6350  0.2234
 2221TIP3    H228155   1.558   4.537  12.762  0.0792  0.2084  1.7083
 2222TIP3   OH228156   5.532   3.906  15.718  0.0882  0.0559  0.5732
 2222TIP3    H128157   5.507   3.819  15.686 -1.2719  0.1203  1.3898
 2222TIP3    H228158   5.542   3.894  15.812 -0.5830  0.8892  0.7561
 2223TIP3   OH228159   1.041   3.287  13.830  0.5225 -0.0701  0.3183
 2223TIP3    H128160   1.065   3.343  13.904  0.6233  0.4889 -0.1292
 2223TIP3    H228161   1.017   3.348  13.761 -1.7173 -0.5775  0.5687
 2224TIP3   OH228162   1.514   6.298  15.522 -0.3872 -0.6387  0.7556
 2224TIP3    H128163   1.587   6.308  15.583 -1.2667  0.6082  1.6638
 2224TIP3    H228164   1.492   6.387  15.495 -1.1053 -1.0434 -0.0709
 2225TIP3   OH228165   5.160   1.349   2.649  0.2309  0.0205  0.0254
 2225TIP3    H128166   5.167   1.262   2.688 -0.7370 -0.0470  0.0831
 2225TIP3    H228167   5.240   1.359   2.598  0.3028 -0.9613 -0.0800
 2226TIP3   OH228168   3.820   0.374  13.975  0.0661  0.5935  0.4844
 2226TIP3    H128169   3.847   0.326  13.897 -0.4163 -0.6127  1.0317
 2226TIP3    H228170   3.734   0.338  13.997 -0.2183  1.5637  1.0532
 2227TIP3   OH228171   1.657   4.857  14.368 -0.4207  0.5657  0.3951
 2227TIP3    H128172   1.718   4.906  14.424 -0.7490 -0.0347  1.3108
 2227TIP3    H228173   1.705   4.777  14.346 -0.2592  0.8417 -0.2683
 2228TIP3   OH228174   1.720   4.937  16.691  0.1125  0.0306 -0.2771
 2228TIP3    H128175   1.742   4.962  16.601 -0.8093  2.2908  0.0506
 2228TIP3    H228176   1.632   4.899  16.684 -1.0584  2.4976 -0.1217
 2229TIP3   OH228177   2.962   1.760  14.702 -0.1288  0.0696 -0.0511
 2229TIP3    H128178   2.876   1.802  14.688 -0.5343 -0.7734 -0.1271
 2229TIP3    H228179   2.945   1.667  14.691  0.8273 -0.0968 -0.1534
 2230TIP3   OH228180   1.005   3.937   1.063  0.5205 -0.7012 -0.3539
 2230TIP3    H128181   0.919   3.946   1.103  0.7039  0.2638 -0.1535
 2230TIP3    H228182   1.020   4.020   1.018  1.6876 -0.5382  0.2906
 2231TIP3   OH228183   6.763   1.241  16.934 -0.0877  0.1894 -0.1629
 2231TIP3    H128184   6.737   1.182  16.864 -2.9632  1.3342 -0.2165
 2231TIP3    H228185   6.709   1.215  17.009 -0.6455  2.0083  0.1226
 2232TIP3   OH228186   6.134   5.061  12.378  0.0381 -0.3727 -0.2554
 2232TIP3    H128187   6.094   5.033  12.460 -0.4149 -1.1295 -0.7307
 2232TIP3    H228188   6.223   5.088  12.403 -0.4128  0.3562  0.6380
 2233TIP3   OH228189   0.219   4.247  13.013  0.3636  0.6861  0.3823
 2233TIP3    H128190   0.264   4.254  12.928  1.6225  1.7050  1.1072
 2233TIP3    H228191   0.126   4.242  12.990  0.7858 -1.6118 -1.1784
 2234TIP3   OH228192   0.520   2.401   0.216 -0.2410 -0.5354 -0.5664
 2234TIP3    H128193   0.469   2.339   0.268  0.4975 -0.2843  0.5021
 2234TIP3    H228194   0.477   2.402   0.131 -0.0542 -2.7814 -0.7464
 2235TIP3   OH228195   2.675   5.066  12.319 -0.1053  0.2394  0.1405
 2235TIP3    H128196   2.765   5.064  12.286  0.1418 -2.3837  0.7518
 2235TIP3    H228197   2.623   5.025  12.250 -0.7043  0.9113  0.1772
 2236TIP3   OH228198   3.465   3.763   5.992 -0.0855 -0.4331 -0.2356
 2236TIP3    H128199   3.523   3.703   6.039  0.3788  0.4915  0.3973
 2236TIP3    H228200   3.398   3.706   5.955  1.9051 -1.7409 -2.1320
 2237TIP3   OH228201   2.109   1.532   2.971  0.1119  0.0409  0.0546
 2237TIP3    H128202   2.195   1.490   2.973  0.4367  0.6017 -1.0910
 2237TIP3    H228203   2.047   1.460   2.968  0.5188 -0.3749  1.3396
 2238TIP3   OH228204   6.208   5.898  15.898 -0.2510  0.1170 -0.5003
 2238TIP3    H128205   6.253   5.859  15.973 -0.6930  0.3340 -0.1190
 2238TIP3    H228206   6.124   5.853  15.895  0.0219 -0.3722 -1.2857
 2239TIP3   OH228207   6.740   0.786   5.702 -0.3494 -0.2104 -0.1516
 2239TIP3    H128208   6.693   0.715   5.658 -0.7083 -0.8155  1.1629
 2239TIP3    H228209   6.716   0.777   5.794  2.7184 -0.8832  0.7070
 2240TIP3   OH228210   3.063   1.300  13.674  0.2372  0.2003 -0.2467
 2240TIP3    H128211   3.020   1.359  13.612  1.1276 -0.5002 -1.5742
 2240TIP3    H228212   3.137   1.351  13.709 -0.5912  0.7912  0.7083
 2241TIP3   OH228213   4.744   3.933   4.185 -0.4292  0.1241  0.2491
 2241TIP3    H128214   4.769   3.985   4.262  0.1196  1.0663 -0.5394
 2241TIP3    H228215   4.822   3.934   4.130 -1.3382  0.8597 -1.0711
 2242TIP3   OH228216   5.047   0.576  11.379 -0.1342 -0.0034  0.4889
 2242TIP3    H128217   4.971   0.588  11.321  1.6586  1.0422 -1.8003
 2242TIP3    H228218   5.048   0.655  11.433 -0.9918 -0.3116  0.9817
 2243TIP3   OH228219   3.077   5.693  16.465 -0.4620 -0.3472  0.5268
 2243TIP3    H128220   3.029   5.771  16.490 -1.1492 -0.1031 -1.3616
 2243TIP3    H228221   3.158   5.697  16.515 -0.5348  1.5177  0.5506
 2244TIP3   OH228222   4.308   5.348   5.434 -0.0848  0.4679  0.1847
 2244TIP3    H128223   4.239   5.414   5.432 -0.3404  0.1945 -0.0687
 2244TIP3    H228224   4.311   5.314   5.345 -0.5462 -0.4729  0.5228
 2245TIP3   OH228225   4.739   3.511   2.713 -0.2350  0.6983  0.0785
 2245TIP3    H128226   4.655   3.521   2.758 -0.3646  0.5142 -0.1201
 2245TIP3    H228227   4.804   3.512   2.784 -0.4371  0.4314  0.2714
 2246TIP3   OH228228   5.478   1.775  16.868  0.1548 -0.1053 -0.3895
 2246TIP3    H128229   5.429   1.778  16.951 -2.4960 -0.0672 -1.8589
 2246TIP3    H228230   5.547   1.711  16.884  0.5322  0.8232  2.2240
 2247TIP3   OH228231   1.989   4.309   3.586  0.2509 -0.1037 -0.3302
 2247TIP3    H128232   1.984   4.263   3.502 -1.1605  0.7628 -0.7505
 2247TIP3    H228233   2.018   4.397   3.563  1.6521 -0.3805  0.3196
 2248TIP3   OH228234   0.634   4.388   3.844 -0.4245  0.5215  0.2145
 2248TIP3    H128235   0.718   4.343   3.852 -1.2858 -1.1553  0.2607
 2248TIP3    H228236   0.633   4.419   3.753  0.7365  1.6667  0.5550
 2249TIP3   OH228237   1.301   3.656  12.990 -0.2121 -0.1974  0.3607
 2249TIP3    H128238   1.250   3.577  13.010  0.3257 -0.9115 -0.9641
 2249TIP3    H228239   1.347   3.635  12.908  0.2136  1.3684  0.1672
 2250TIP3   OH228240   6.531   6.771   3.905  0.3257  0.1324  0.3508
 2250TIP3    H128241   6.614   6.726   3.889  0.3086  0.6525 -1.3366
 2250TIP3    H228242   6.491   6.720   3.976  0.7990 -1.8806 -0.7300
 2251TIP3   OH228243   5.832   0.499  12.114 -0.1442 -0.3118 -0.0100
 2251TIP3    H128244   5.860   0.559  12.182  0.5768 -1.6390  0.9110
 2251TIP3    H228245   5.914   0.468  12.074 -0.5513  1.3036 -2.3169
 2252TIP3   OH228246   2.986   3.291   3.178  0.2120  0.0440  0.1470
 2252TIP3    H128247   2.937   3.217   3.143 -0.1221 -0.0384  0.7714
 2252TIP3    H228248   2.952   3.303   3.267 -0.0730  1.2628 -0.1132
 2253TIP3   OH228249   2.208   5.088   2.790 -1.0958  0.5459 -0.0667
 2253TIP3    H128250   2.199   5.183   2.779  0.1771  0.7574  0.4576
 2253TIP3    H228251   2.161   5.050   2.716 -2.0834  1.5644  0.0104
 2254TIP3   OH228252   1.391   0.663  14.656 -0.4163 -0.2225  0.0822
 2254TIP3    H128253   1.349   0.607  14.721 -1.0800  0.0064 -0.1358
 2254TIP3    H228254   1.485   0.653  14.672 -0.5599 -0.5572  0.7409
 2255TIP3   OH228255   5.052   2.070   5.894  0.2299  0.0737  0.0218
 2255TIP3    H128256   5.063   2.007   5.965 -1.0229 -0.9469 -0.6397
 2255TIP3    H228257   4.962   2.100   5.902  0.3865  0.7249 -0.5246
 2256TIP3   OH228258   5.560   2.681   5.081  0.1808  0.1907  0.3224
 2256TIP3    H128259   5.622   2.729   5.027  0.3383 -1.2212 -0.8162
 2256TIP3    H228260   5.583   2.589   5.069 -2.7933 -0.5175 -1.0787
 2257TIP3   OH228261   3.247   3.478  16.081 -0.5154 -0.1791 -0.4081
 2257TIP3    H128262   3.204   3.554  16.119  1.0971  0.8787 -0.6221
 2257TIP3    H228263   3.340   3.489  16.102 -0.1840 -1.9192 -0.7380
 2258TIP3   OH228264   0.382   4.353   4.318  0.1933  0.3130 -0.0801
 2258TIP3    H128265   0.369   4.264   4.284 -0.2319 -0.1122  1.1393
 2258TIP3    H228266   0.469   4.378   4.286  0.4377 -0.6526 -0.2144
 2259TIP3   OH228267   1.951   4.143  12.988 -0.5796  0.2945 -0.1668
 2259TIP3    H128268   1.906   4.226  13.001  0.0231  0.3099  2.2357
 2259TIP3    H228269   1.909   4.083  13.049  0.2946 -0.6420 -0.4536
 2260TIP3   OH228270   6.451   4.352   4.085  0.3655  0.1404 -0.2727
 2260TIP3    H128271   6.524   4.329   4.143 -0.7941  0.4185  1.3720
 2260TIP3    H228272   6.373   4.329   4.135 -0.6871  0.0776 -1.8928
 2261TIP3   OH228273   3.265   0.977   2.593  0.2968  0.2064  0.1513
 2261TIP3    H128274   3.193   0.916   2.606  0.1298  0.6021  1.2310
 2261TIP3    H228275   3.245   1.021   2.510 -0.8132  0.4408  0.5201
 2262TIP3   OH228276   3.171   1.975  13.742 -0.0500 -0.1431 -0.1179
 2262TIP3    H128277   3.224   1.963  13.663  0.2236 -0.5411  0.1234
 2262TIP3    H228278   3.140   1.887  13.764 -1.4582  0.1774 -0.6903
 2263TIP3   OH228279   2.629   4.082   1.381  0.4266  0.2746  0.0831
 2263TIP3    H128280   2.647   4.009   1.440  0.3915  1.0660  1.1097
 2263TIP3    H228281   2.658   4.160   1.429 -0.5636  1.0469 -0.5169
 2264TIP3   OH228282   2.017   4.140   2.759  0.0531  0.3421  0.5321
 2264TIP3    H128283   1.990   4.222   2.717  1.3452  0.0286 -1.0175
 2264TIP3    H228284   2.009   4.074   2.691 -0.5890 -0.7781  1.6557
 2265TIP3   OH228285   2.939   5.858   0.612 -0.0837 -0.1203 -0.2151
 2265TIP3    H128286   2.992   5.801   0.557  0.4623 -0.3487  0.5205
 2265TIP3    H228287   2.849   5.834   0.593  0.1413 -1.9542  0.7800
 2266TIP3   OH228288   3.314   3.925  14.332  0.1122 -0.1059  0.0489
 2266TIP3    H128289   3.289   3.837  14.360 -2.0142  0.4455  0.0518
 2266TIP3    H228290   3.237   3.979  14.352  0.8546  1.4819 -1.2114
 2267TIP3   OH228291   1.574   3.881  12.043  0.4456 -0.6602 -0.2154
 2267TIP3    H128292   1.635   3.903  12.114 -0.1835  0.3145  0.0491
 2267TIP3    H228293   1.610   3.925  11.966  0.1034 -0.1143 -0.0671
 2268TIP3   OH228294   3.661   1.483  13.290  0.1051 -0.6945 -0.3166
 2268TIP3    H128295   3.711   1.430  13.228  2.7644  2.7439 -1.4568
 2268TIP3    H228296   3.702   1.466  13.375  1.1474 -0.2738 -0.7250
 2269TIP3   OH228297   2.666   6.568  12.995  0.2626  0.5728  0.0451
 2269TIP3    H128298   2.610   6.491  12.999 -1.0411  1.4232 -1.1264
 2269TIP3    H228299   2.738   6.548  13.055 -0.3889 -1.2595  0.2745
 2270TIP3   OH228300   6.809   2.722   0.857  0.3325  0.3872  0.1011
 2270TIP3    H128301   6.778   2.812   0.844  0.5965  0.4513 -0.0760
 2270TIP3    H228302   6.757   2.669   0.796 -1.0165  0.1746  1.3661
 2271TIP3   OH228303   0.775   4.230  10.809  0.1243  0.1640  0.0798
 2271TIP3    H128304   0.761   4.250  10.717  1.3321  0.0185 -0.1612
 2271TIP3    H228305   0.790   4.135  10.811 -1.4875 -0.1150  0.6607
 2272TIP3   OH228306   2.018   1.898  11.519  0.2720  0.3099  0.1084
 2272TIP3    H128307   1.958   1.857  11.456 -0.3260  0.7505  0.3754
 2272TIP3    H228308   2.105   1.875  11.488 -0.0338 -0.9317  0.0910
 2273TIP3   OH228309   3.683   2.395   4.025  0.5016 -0.0569 -0.1395
 2273TIP3    H128310   3.615   2.395   4.091  0.8449  0.8617  0.2326
 2273TIP3    H228311   3.765   2.382   4.074  0.6286 -0.9725 -0.5590
 2274TIP3   OH228312   4.943   0.474   1.856  0.3018  0.1506 -0.3695
 2274TIP3    H128313   4.888   0.413   1.807 -0.9225 -0.5645  1.7541
 2274TIP3    H228314   4.915   0.561   1.825 -1.8012 -0.2082  0.3412
 2275TIP3   OH228315   5.288   3.372   4.659  0.4838 -0.3893  0.4905
 2275TIP3    H128316   5.274   3.451   4.607  1.0106 -1.0015 -0.6065
 2275TIP3    H228317   5.226   3.380   4.732  1.8636  1.9873  1.5403
 2276TIP3   OH228318   6.116   6.798   0.232 -0.0268  0.5102 -0.2582
 2276TIP3    H128319   6.109   6.894   0.229  0.8981  0.5614 -1.3449
 2276TIP3    H228320   6.054   6.772   0.300 -1.0363  1.8106 -0.6364
 2277TIP3   OH228321   1.885   4.046  11.008  0.1507 -0.5438  0.1317
 2277TIP3    H128322   1.821   4.108  11.045 -1.9459 -0.2729 -3.4845
 2277TIP3    H228323   1.970   4.082  11.032 -1.0178  1.9823  0.8385
 2278TIP3   OH228324   5.395   2.060  13.062 -0.6477  0.0317  0.5330
 2278TIP3    H128325   5.341   1.996  13.107 -1.7675 -0.2694 -1.1518
 2278TIP3    H228326   5.364   2.059  12.971  1.0569  1.0781 -0.1223
 2279TIP3   OH228327   1.186   3.954  14.724  0.2090 -0.1846  0.2237
 2279TIP3    H128328   1.199   4.048  14.736 -2.1966  0.5862 -2.1826
 2279TIP3    H228329   1.260   3.926  14.671  0.7218  0.4355  0.5960
 2280TIP3   OH228330   1.541   5.020  10.595 -0.4924 -0.0289  0.5295
 2280TIP3    H128331   1.611   4.992  10.536  0.4448  1.9627  0.6211
 2280TIP3    H228332   1.520   5.109  10.567 -0.8671  0.5260  2.4327
 2281TIP3   OH228333   5.137   0.952   4.427  0.0174 -0.2335  0.1654
 2281TIP3    H128334   5.203   1.000   4.377  0.3799 -1.4451 -0.5686
 2281TIP3    H228335   5.187   0.911   4.499 -0.2183  0.1285  0.5415
 2282TIP3   OH228336   0.324   5.854  11.773 -0.5648  0.5616  0.0101
 2282TIP3    H128337   0.354   5.935  11.731  0.9606  0.0311  0.0116
 2282TIP3    H228338   0.241   5.877  11.815 -1.7159  1.3569 -2.5002
 2283TIP3   OH228339   3.281   5.290   2.320  0.5755  0.3268  0.0016
 2283TIP3    H128340   3.192   5.279   2.353  0.2400  1.0192 -0.6345
 2283TIP3    H228341   3.304   5.205   2.283  1.2302 -0.7064  2.5484
 2284TIP3   OH228342   5.680   4.541   0.693 -0.1818  0.1875 -0.0687
 2284TIP3    H128343   5.599   4.577   0.728  0.1687  1.2202 -0.2829
 2284TIP3    H228344   5.737   4.617   0.681  0.9857 -0.5588  0.4928
 2285TIP3   OH228345   5.391   2.031  15.116  0.0833 -0.1339 -0.0822
 2285TIP3    H128346   5.395   2.115  15.071  0.5078 -0.2545 -0.2822
 2285TIP3    H228347   5.350   2.050  15.200  1.2070  0.4837  0.3490
 2286TIP3   OH228348   2.007   4.559   0.755 -0.6061 -0.4962 -0.6921
 2286TIP3    H128349   1.955   4.534   0.832  0.6516 -0.4866  0.1985
 2286TIP3    H228350   1.992   4.653   0.745 -0.5270 -0.4341 -0.2491
 2287TIP3   OH228351   6.601   2.234  13.344  0.3579  0.5921 -0.2316
 2287TIP3    H128352   6.552   2.270  13.270 -0.1161  1.6667  0.5701
 2287TIP3    H228353   6.544   2.168  13.382  0.5600  0.1106 -0.7406
 2288TIP3   OH228354   3.961   1.404  12.859 -0.5697 -0.1474  0.3986
 2288TIP3    H128355   3.993   1.337  12.798 -1.7174 -1.3569  1.0693
 2288TIP3    H228356   4.041   1.444  12.895  0.1429  0.5775 -1.8163
 2289TIP3   OH228357   3.843   1.127   5.305  0.0490  0.3585  0.0792
 2289TIP3    H128358   3.937   1.141   5.297  0.0923 -0.5551 -1.6367
 2289TIP3    H228359   3.807   1.163   5.224 -0.5556 -2.8524 -1.2502
 2290TIP3   OH228360   4.685   6.744  14.107 -0.0281 -0.4726  0.0601
 2290TIP3    H128361   4.612   6.685  14.126  0.5611 -0.8454  1.2425
 2290TIP3    H228362   4.668   6.821  14.161 -0.6826  0.3764 -1.3177
 2291TIP3   OH228363   3.516   0.801  11.971  0.3314  0.1619 -0.1971
 2291TIP3    H128364   3.537   0.723  11.920  2.1725  0.4523  0.0588
 2291TIP3    H228365   3.601   0.835  12.000 -0.5493  0.9698  1.6268
 2292TIP3   OH228366   5.693   2.722   1.948 -0.2619  0.3223 -0.2864
 2292TIP3    H128367   5.765   2.708   1.887 -0.7003  0.5456 -0.8581
 2292TIP3    H228368   5.622   2.667   1.915  0.1229 -1.1164  1.1484
 2293TIP3   OH228369   1.657   1.938  16.206  0.3300  0.9534 -0.1696
 2293TIP3    H128370   1.720   1.883  16.253  0.3209  1.1418  0.0650
 2293TIP3    H228371   1.679   1.927  16.114 -0.2132 -0.1157 -0.1845
 2294TIP3   OH228372   5.521   5.651  11.286  0.1740  0.1582 -0.0810
 2294TIP3    H128373   5.426   5.647  11.273  0.1654 -0.1909  0.0907
 2294TIP3    H228374   5.549   5.724  11.230 -0.2799  0.7008  0.3893
 2295TIP3   OH228375   5.889   6.840   6.400  0.1068  0.3909 -0.2286
 2295TIP3    H128376   5.943   6.763   6.420  1.3728  1.6122  1.2771
 2295TIP3    H228377   5.915   6.864   6.311  0.0818 -0.5974 -0.5173
 2296TIP3   OH228378   6.161   2.562   3.040 -0.3029 -0.0214 -0.6253
 2296TIP3    H128379   6.100   2.585   2.969 -0.0003 -0.7488 -1.1402
 2296TIP3    H228380   6.160   2.466   3.042  0.7467 -0.0471 -0.5831
 2297TIP3   OH228381   2.188   5.865   2.645 -0.2552 -0.2416 -0.1023
 2297TIP3    H128382   2.247   5.938   2.664  0.7476 -1.2431  0.7671
 2297TIP3    H228383   2.111   5.882   2.701  0.4714 -0.4368  0.9914
 2298TIP3   OH228384   2.330   0.198   3.497  0.3379  0.2722  0.4101
 2298TIP3    H128385   2.334   0.200   3.402  0.1482 -1.6920  0.3222
 2298TIP3    H228386   2.295   0.284   3.521 -2.1839 -0.1228 -1.4440
 2299TIP3   OH228387   0.859   0.897  12.425 -0.3604 -0.0785 -0.0315
 2299TIP3    H128388   0.911   0.916  12.347 -1.0125 -1.3808 -0.8050
 2299TIP3    H228389   0.821   0.811  12.409 -0.8906 -0.1695  1.5289
 2300TIP3   OH228390   1.737   4.844  11.247  0.3027 -0.0815  0.3403
 2300TIP3    H128391   1.686   4.845  11.329 -2.4381  1.8435 -1.2248
 2300TIP3    H228392   1.723   4.757  11.211 -0.8811 -0.0010  0.5737
 2301TIP3   OH228393   3.886   4.187   6.559  0.7037  0.5272  0.3309
 2301TIP3    H128394   3.949   4.182   6.631  0.3753  2.0530  0.7607
 2301TIP3    H228395   3.882   4.280   6.538  0.2721  0.1754 -1.2132
 2302TIP3   OH228396   0.972   3.407  11.898 -0.0334 -1.0417  0.2625
 2302TIP3    H128397   0.939   3.318  11.908 -1.2443 -0.3836  3.3593
 2302TIP3    H228398   0.903   3.463  11.935  2.6666  0.7355  3.1365
 2303TIP3   OH228399   6.654   5.562   2.467 -0.6933  0.2810  0.2114
 2303TIP3    H128400   6.574   5.512   2.454 -0.3408 -0.1158 -0.5335
 2303TIP3    H228401   6.632   5.650   2.437 -0.7363  0.0697 -0.3944
 2304TIP3   OH228402   0.661   4.726   4.748 -0.5805  0.4396 -0.1579
 2304TIP3    H128403   0.693   4.750   4.835 -2.8660  0.7893  0.6640
 2304TIP3    H228404   0.716   4.775   4.687 -0.7728  2.4892  1.2355
 2305TIP3   OH228405   6.598   2.916  11.598  0.2151 -0.3628 -0.0514
 2305TIP3    H128406   6.662   2.963  11.651  1.3670 -1.5558 -0.3343
 2305TIP3    H228407   6.518   2.967  11.607  1.2680  1.3675  0.0609
 2306TIP3   OH228408   6.494   5.823  13.360  0.1262 -0.3457  0.1317
 2306TIP3    H128409   6.493   5.813  13.264  0.0314 -0.8504  0.1820
 2306TIP3    H228410   6.434   5.896  13.377  0.3905 -0.0395 -0.2150
 2307TIP3   OH228411   5.775   0.825  16.146  0.2430 -0.2021  0.3301
 2307TIP3    H128412   5.720   0.768  16.200 -0.7763 -0.0886 -0.5616
 2307TIP3    H228413   5.726   0.906  16.138  0.8709  0.1636  0.0996
 2308TIP3   OH228414   2.033   5.257   4.808 -0.0207  0.8881  0.2193
 2308TIP3    H128415   1.978   5.179   4.805  2.3634 -0.8827 -0.3839
 2308TIP3    H228416   2.039   5.279   4.901  1.2111 -1.1805  0.6870
 2309TIP3   OH228417   6.206   1.307  16.311  0.0487  0.2441 -0.3149
 2309TIP3    H128418   6.247   1.392  16.295  1.6924 -0.6389 -1.0245
 2309TIP3    H228419   6.191   1.271  16.224  2.4780 -1.5856 -0.0431
 2310TIP3   OH228420   2.760   3.952  13.590 -0.2605 -0.6222 -0.4179
 2310TIP3    H128421   2.780   4.023  13.651 -2.0353  0.6508 -1.2317
 2310TIP3    H228422   2.801   3.979  13.508  0.7652 -1.5596 -0.2421
 2311TIP3   OH228423   6.173   6.532   1.850 -0.5327  0.1603  0.4589
 2311TIP3    H128424   6.193   6.624   1.833 -2.2535  0.4274 -0.3353
 2311TIP3    H228425   6.258   6.491   1.863  0.4259  1.4153 -1.4567
 2312TIP3   OH228426   1.855   1.114   4.579  0.2679  0.1511 -0.0058
 2312TIP3    H128427   1.805   1.038   4.612  0.1569  0.3481  0.2859
 2312TIP3    H228428   1.856   1.175   4.652 -2.8398  2.0487 -1.3529
 2313TIP3   OH228429   1.278   0.682  12.494  0.6256 -0.2083 -0.3413
 2313TIP3    H128430   1.293   0.699  12.402 -0.0060  0.4148 -0.3393
 2313TIP3    H228431   1.199   0.627  12.496  0.7911 -0.4431 -0.1859
 2314TIP3   OH228432   3.329   5.952   3.250 -0.7029  0.4879  0.4367
 2314TIP3    H128433   3.311   5.957   3.344 -3.9629  0.6404 -0.1062
 2314TIP3    H228434   3.289   5.870   3.221  0.4142  0.3430 -0.8347
 2315TIP3   OH228435   2.767   5.085  16.688 -0.0142  0.5886  0.8684
 2315TIP3    H128436   2.772   5.178  16.667  2.1197  0.3752  0.2079
 2315TIP3    H228437   2.853   5.062  16.722 -0.0711 -1.3877 -0.1178
 2316TIP3   OH228438   1.577   1.162  14.784  0.4065  0.0227 -0.1147
 2316TIP3    H128439   1.531   1.087  14.746 -0.4909  0.5664 -0.1163
 2316TIP3    H228440   1.669   1.135  14.784  0.2868 -0.4961 -1.4839
 2317TIP3   OH228441   3.268   2.503   1.830 -0.0514  0.3090 -0.3120
 2317TIP3    H128442   3.336   2.476   1.891  0.6907 -0.9427 -1.6331
 2317TIP3    H228443   3.249   2.594   1.854  0.9373  0.1708  1.0951
 2318TIP3   OH228444   0.177   2.325   6.082 -0.4267  0.3673 -0.4552
 2318TIP3    H128445   0.142   2.351   6.168 -0.6727 -0.3374 -0.3294
 2318TIP3    H228446   0.265   2.293   6.100  0.0614  1.5516 -0.6813
 2319TIP3   OH228447   5.454   1.283  17.133  0.1069  0.4023  0.0410
 2319TIP3    H128448   5.401   1.335  17.195  0.5817  1.4105 -0.3703
 2319TIP3    H228449   5.415   1.196  17.135  0.4687  0.2226  2.2274
 2320TIP3   OH228450   1.322   2.038  16.007  0.3446  0.1446  0.2955
 2320TIP3    H128451   1.310   1.967  16.070  1.5654  0.8409  1.3447
 2320TIP3    H228452   1.294   2.116  16.054  0.4586  0.5713 -0.3338
 2321TIP3   OH228453   5.862   1.302   3.363  0.6248 -0.0637 -0.6749
 2321TIP3    H128454   5.841   1.292   3.270 -1.9363 -0.1605 -0.1322
 2321TIP3    H228455   5.778   1.317   3.406  1.8459  1.0404  1.5220
 2322TIP3   OH228456   6.780   2.993   2.577  0.4720 -0.1365 -0.7782
 2322TIP3    H128457   6.827   2.921   2.535 -0.9841 -0.4679 -1.9246
 2322TIP3    H228458   6.693   2.957   2.595  0.3439  0.7379  0.4406
 2323TIP3   OH228459   1.736   6.801  17.134 -0.2022 -0.3694  0.7865
 2323TIP3    H128460   1.793   6.814  17.210  1.3585 -1.4998 -0.1308
 2323TIP3    H228461   1.653   6.843  17.159  1.3431  2.3727  1.7257
 2324TIP3   OH228462   0.105   6.844  11.302 -0.1155  0.3544  0.1937
 2324TIP3    H128463   0.056   6.849  11.384 -1.0645 -1.2296 -0.2343
 2324TIP3    H228464   0.118   6.750  11.288 -2.9073  0.2766 -3.1249
 2325TIP3   OH228465   1.846   1.956  14.871  0.5974  0.3060 -0.1792
 2325TIP3    H128466   1.793   2.019  14.822 -1.4956 -2.2621 -1.5116
 2325TIP3    H228467   1.897   1.910  14.804  0.2721 -0.9701  0.4100
 2326TIP3   OH228468   2.257   5.790  15.882  0.3433 -0.6408  0.2981
 2326TIP3    H128469   2.212   5.716  15.842 -0.1861 -2.1993  3.4541
 2326TIP3    H228470   2.344   5.790  15.842 -0.2308 -1.8426 -1.0159
 2327TIP3   OH228471   4.919   0.600  14.964  0.5017 -0.0701 -0.0573
 2327TIP3    H128472   4.920   0.526  14.903  1.4816  0.6885 -1.0004
 2327TIP3    H228473   4.861   0.572  15.034 -1.2259 -0.7460 -1.6542
 2328TIP3   OH228474   1.809   4.707  12.507 -0.5958 -0.2893 -0.2372
 2328TIP3    H128475   1.746   4.779  12.511 -1.8301 -1.3069 -0.8623
 2328TIP3    H228476   1.807   4.668  12.595  0.8760  1.0429  0.4475
 2329TIP3   OH228477   1.775   6.088  14.048 -0.2421  0.0747 -0.7816
 2329TIP3    H128478   1.853   6.143  14.050  0.1298 -0.4558  0.9000
 2329TIP3    H228479   1.787   6.030  13.973  2.4538 -1.9927  1.0383
 2330TIP3   OH228480   5.199   1.872   6.676 -0.3649 -0.2375 -0.5180
 2330TIP3    H128481   5.242   1.789   6.655  1.2514  0.4797 -0.1972
 2330TIP3    H228482   5.106   1.852   6.674  0.0022 -2.1845  0.0466
 2331TIP3   OH228483   1.188   1.414   0.569  0.5044 -0.2644 -0.3911
 2331TIP3    H128484   1.191   1.488   0.629  0.1376 -1.0014  0.5539
 2331TIP3    H228485   1.105   1.370   0.589  0.4462 -0.6035 -1.3370
 2332TIP3   OH228486   0.063   1.818   2.314  0.1138 -0.3543 -0.4042
 2332TIP3    H128487   0.062   1.907   2.278 -1.7387  0.0307  0.4731
 2332TIP3    H228488   0.076   1.761   2.239  0.6399  0.6223 -1.0731
 2333TIP3   OH228489   3.352   4.256   4.297  0.3726  0.2644 -0.3494
 2333TIP3    H128490   3.282   4.193   4.313  0.7606 -0.4727 -1.4943
 2333TIP3    H228491   3.307   4.341   4.295 -0.1070  0.0917  1.4912
 2334TIP3   OH228492   1.786   2.162  13.671  0.1496  0.6481 -0.4340
 2334TIP3    H128493   1.710   2.122  13.628 -0.6390 -0.5347  1.9217
 2334TIP3    H228494   1.835   2.088  13.706  0.9270  1.5526  0.4178
 2335TIP3   OH228495   4.199   0.280   2.929 -0.8008 -0.3131  0.1424
 2335TIP3    H128496   4.192   0.351   2.865  0.5756 -0.5447 -0.2985
 2335TIP3    H228497   4.160   0.316   3.009  3.7342  2.7300  1.3452
 2336TIP3   OH228498   5.341   3.441  11.681  0.3812 -0.2983  0.0158
 2336TIP3    H128499   5.407   3.374  11.665  0.4563 -0.0703 -0.6686
 2336TIP3    H228500   5.295   3.450  11.598 -1.8113 -1.8255  0.9727
 2337TIP3   OH228501   4.391   0.112  13.956 -0.0184 -0.4243  0.2968
 2337TIP3    H128502   4.341   0.031  13.966 -0.3253 -0.3486 -0.5636
 2337TIP3    H228503   4.418   0.112  13.865  0.5794  0.1045  0.4720
 2338TIP3   OH228504   6.449   6.168  14.365  0.1624  0.5888  0.5342
 2338TIP3    H128505   6.380   6.206  14.419  0.1774 -0.2086  1.1305
 2338TIP3    H228506   6.412   6.086  14.332  0.3478  0.8062 -0.2423
 2339TIP3   OH228507   5.722   5.956   2.864 -0.0713 -0.3456 -0.0682
 2339TIP3    H128508   5.655   6.009   2.906  1.4482  0.8597  0.9606
 2339TIP3    H228509   5.700   5.959   2.771 -0.7292  1.1025  0.1112
 2340TIP3   OH228510   2.756   2.170  14.138 -0.2283 -0.2133  0.4585
 2340TIP3    H128511   2.795   2.205  14.218 -0.0342 -3.7775  2.1093
 2340TIP3    H228512   2.830   2.134  14.090 -0.7302 -1.0523  0.3152
 2341TIP3   OH228513   6.641   1.324  12.860  0.0608  0.1564 -0.7743
 2341TIP3    H128514   6.567   1.301  12.917  0.2783  0.3646 -0.4069
 2341TIP3    H228515   6.715   1.331  12.920  0.1893  0.8788 -1.0122
 2342TIP3   OH228516   5.076   6.028  16.287  0.3347 -0.5544 -0.5905
 2342TIP3    H128517   5.098   6.103  16.232  0.4754  0.5754  0.9338
 2342TIP3    H228518   5.160   5.990  16.311  0.3468 -0.1688 -0.0059
 2343TIP3   OH228519   0.128   1.798  15.276 -0.5102  0.8936  0.1142
 2343TIP3    H128520   0.100   1.720  15.226  2.9626 -1.1782  1.0724
 2343TIP3    H228521   0.110   1.776  15.367  2.1121  0.3182  0.5667
 2344TIP3   OH228522   5.013   5.792   2.749  0.4025 -0.1049 -0.2754
 2344TIP3    H128523   5.017   5.861   2.815  0.6864  0.2339 -0.6423
 2344TIP3    H228524   5.010   5.839   2.665  0.1744 -0.5307 -0.5080
 2345TIP3   OH228525   6.229   0.979   2.562  0.4346 -0.0184  0.4040
 2345TIP3    H128526   6.259   1.062   2.599 -1.6875  0.2534  1.6735
 2345TIP3    H228527   6.227   0.919   2.636  0.1308 -0.6756 -0.1285
 2346TIP3   OH228528   2.496   0.482   0.403 -0.0162  0.1902  0.2697
 2346TIP3    H128529   2.574   0.497   0.458  0.2687  0.8047 -0.2913
 2346TIP3    H228530   2.530   0.481   0.314 -0.5404 -0.3946  0.0780
 2347TIP3   OH228531   2.429   1.569  13.784  0.1814  0.1633 -0.5012
 2347TIP3    H128532   2.376   1.511  13.730  0.5653 -0.1596 -0.5319
 2347TIP3    H228533   2.517   1.562  13.748  0.3544  0.2772 -0.1038
 2348TIP3   OH228534   0.696   3.353   4.687 -0.0583  0.0562 -0.4358
 2348TIP3    H128535   0.632   3.294   4.647 -0.9745  0.7112  0.0393
 2348TIP3    H228536   0.697   3.430   4.631 -0.3460  0.4115  0.0391
 2349TIP3   OH228537   3.150   3.492   2.151  0.2346  0.1434  0.7097
 2349TIP3    H128538   3.073   3.435   2.153 -1.4599  2.2945  2.4246
 2349TIP3    H228539   3.148   3.533   2.064  0.3475 -0.9049  0.1967
 2350TIP3   OH228540   0.193   6.179   1.940 -0.3895 -0.7830 -0.1500
 2350TIP3    H128541   0.112   6.193   1.891 -0.5435  0.3493  0.3914
 2350TIP3    H228542   0.186   6.237   2.016  1.8761  1.0918 -1.2358
 2351TIP3   OH228543   2.915   4.320  13.929 -0.4102 -0.4625 -0.1076
 2351TIP3    H128544   2.851   4.316  14.000 -1.4323 -0.7066 -1.0167
 2351TIP3    H228545   2.971   4.395  13.950 -1.9971  0.7711 -0.1077
 2352TIP3   OH228546   6.831   5.309   3.840  0.0714  0.0890 -0.0553
 2352TIP3    H128547   6.779   5.316   3.760 -0.8207  1.2741  0.5777
 2352TIP3    H228548   6.865   5.220   3.840 -1.6101 -0.5941 -0.7441
 2353TIP3   OH228549   3.949   2.931  12.326 -0.4410 -0.8614 -0.2674
 2353TIP3    H128550   3.984   3.001  12.381  0.8623 -1.5320 -0.1934
 2353TIP3    H228551   3.953   2.965  12.237 -0.8116 -0.4635 -0.1377
 2354TIP3   OH228552   6.661   3.776  15.753 -0.0850  0.0296  0.2755
 2354TIP3    H128553   6.610   3.857  15.745 -2.5196 -1.5672 -2.2875
 2354TIP3    H228554   6.741   3.792  15.704 -0.5074  0.9267 -0.1337
 2355TIP3   OH228555   2.757   2.171   1.663  0.5435 -0.1962  0.0192
 2355TIP3    H128556   2.769   2.237   1.595  0.8960 -0.9236 -0.6485
 2355TIP3    H228557   2.693   2.209   1.724  0.5510  0.6400 -0.4883
 2356TIP3   OH228558   3.355   6.045   4.906  0.0257  0.2493 -0.4597
 2356TIP3    H128559   3.413   6.097   4.850 -1.7854  3.1411  0.1891
 2356TIP3    H228560   3.315   5.982   4.846  2.9438 -1.1706 -1.1029
 2357TIP3   OH228561   3.111   4.547  12.024  0.8464 -0.2244  0.0920
 2357TIP3    H128562   3.039   4.600  12.056  0.0681 -2.0805  1.5957
 2357TIP3    H228563   3.173   4.545  12.097  3.0409  2.1687 -1.5018
 2358TIP3   OH228564   3.784   6.255   3.244  0.3105 -0.3572 -0.2115
 2358TIP3    H128565   3.823   6.168   3.254  0.7242 -0.3132 -1.3572
 2358TIP3    H228566   3.696   6.239   3.209 -0.7485 -0.4513  2.2763
 2359TIP3   OH228567   0.250   1.985   1.170  0.2143  0.0204  0.2494
 2359TIP3    H128568   0.275   1.896   1.145  2.5955  0.3430  1.2121
 2359TIP3    H228569   0.321   2.015   1.227 -1.2983  1.9925  1.2266
 2360TIP3   OH228570   4.340   5.057  14.483  0.7818 -0.3418 -0.4010
 2360TIP3    H128571   4.303   5.146  14.488 -1.1784 -1.1751  1.0868
 2360TIP3    H228572   4.404   5.055  14.555  0.2564 -0.3535  0.0781
 2361TIP3   OH228573   2.703   3.011   1.158 -0.0739 -0.5526  0.0581
 2361TIP3    H128574   2.662   2.925   1.157  0.4414 -0.8117  0.5653
 2361TIP3    H228575   2.797   2.993   1.157  0.0487 -0.0174  0.6922
 2362TIP3   OH228576   5.015   3.890   1.266  0.3167 -0.1228 -0.2148
 2362TIP3    H128577   5.003   3.798   1.289 -0.5117 -0.2472 -1.1233
 2362TIP3    H228578   5.063   3.927   1.341 -0.7182 -0.9265  0.8867
 2363TIP3   OH228579   6.216   2.516  16.548  0.1164  0.2797 -0.0390
 2363TIP3    H128580   6.288   2.456  16.571  0.1571 -0.2700 -1.4973
 2363TIP3    H228581   6.260   2.600  16.533  0.3186  0.1956  0.0670
 2364TIP3   OH228582   0.853   2.127  13.375  0.5418 -0.5962 -0.1590
 2364TIP3    H128583   0.781   2.170  13.421  1.3840  0.9636 -0.2386
 2364TIP3    H228584   0.810   2.071  13.310 -0.6003  0.2109 -0.1276
 2365TIP3   OH228585   3.223   0.577   4.752  0.4801  0.9096  0.1309
 2365TIP3    H128586   3.256   0.530   4.675 -0.4939  1.4428 -0.6310
 2365TIP3    H228587   3.132   0.595   4.731 -0.1273  0.0738  1.9073
 2366TIP3   OH228588   5.097   6.698  14.649 -0.0098 -0.5349  0.1250
 2366TIP3    H128589   5.032   6.693  14.579 -0.3954 -0.0900  0.4421
 2366TIP3    H228590   5.047   6.683  14.729  0.0646  0.9057  0.4754
 2367TIP3   OH228591   3.988   0.437  15.379 -0.0195 -0.1983 -0.1091
 2367TIP3    H128592   3.984   0.367  15.444 -2.5001 -0.2728 -0.2411
 2367TIP3    H228593   4.017   0.514  15.428 -2.4899 -0.0868  1.3401
 2368TIP3   OH228594   6.239   6.751  16.374  0.7060  0.7123 -0.6383
 2368TIP3    H128595   6.297   6.795  16.436  1.4391  0.0813 -0.8662
 2368TIP3    H228596   6.168   6.716  16.428  0.7310  1.1561 -0.3123
 2369TIP3   OH228597   5.401   1.236   1.830  0.2194 -0.0976 -0.4264
 2369TIP3    H128598   5.400   1.271   1.740  1.3203 -2.2862 -1.3799
 2369TIP3    H228599   5.375   1.144   1.820 -0.5900 -0.1357  1.6573
 2370TIP3   OH228600   2.219   3.866  16.245  0.1393  0.4182 -0.0086
 2370TIP3    H128601   2.282   3.832  16.309 -1.2605 -3.8405 -0.5223
 2370TIP3    H228602   2.271   3.884  16.167  1.1557  0.1185  0.5816
 2371TIP3   OH228603   1.295   6.208   3.367  0.4460 -0.1051  0.4086
 2371TIP3    H128604   1.222   6.242   3.315  1.2087  0.8516 -0.0591
 2371TIP3    H228605   1.310   6.120   3.331 -1.1283 -0.7391  1.2085
 2372TIP3   OH228606   6.684   4.582   3.802 -0.6373  0.5409 -0.2402
 2372TIP3    H128607   6.644   4.497   3.779 -0.8232  0.9407 -1.4664
 2372TIP3    H228608   6.623   4.621   3.864 -0.6250 -0.1645  0.2236
 2373TIP3   OH228609   3.641   5.375   1.519  0.0769 -0.0715  0.3458
 2373TIP3    H128610   3.614   5.457   1.476  1.8732  0.3616 -0.0221
 2373TIP3    H228611   3.667   5.402   1.607 -0.6458 -0.4856  0.6942
 2374TIP3   OH228612   3.154   0.003   4.762 -0.1137 -0.4534  0.0424
 2374TIP3    H128613   3.215  -0.035   4.698  0.9493 -1.2223  1.4532
 2374TIP3    H228614   3.118   0.080   4.718  0.5839 -0.9486 -1.4704
 2375TIP3   OH228615   6.447   5.145  12.485  0.4965 -0.5238 -0.3203
 2375TIP3    H128616   6.523   5.095  12.515  0.2590 -0.7982 -0.1739
 2375TIP3    H228617   6.453   5.227  12.534 -0.2055 -1.1919  0.9458
 2376TIP3   OH228618   2.944   6.115   2.878 -0.2495  0.1550 -0.1888
 2376TIP3    H128619   2.880   6.184   2.896 -2.1202 -1.7239  0.8053
 2376TIP3    H228620   2.891   6.043   2.841  1.2122 -1.6258  1.0380
 2377TIP3   OH228621   4.750   6.082  14.724 -0.2073  0.4770  0.1956
 2377TIP3    H128622   4.782   6.146  14.788 -2.6321  1.0199  0.9921
 2377TIP3    H228623   4.774   5.997  14.762  0.8132  0.8450  0.4090
 2378TIP3   OH228624   2.692   4.469  11.625  0.4759  0.0389  0.0061
 2378TIP3    H128625   2.633   4.414  11.573  0.6036  0.2511 -0.3692
 2378TIP3    H228626   2.717   4.539  11.565  1.4076 -0.2519  0.0418
 2379TIP3   OH228627   6.194   3.501  16.434  0.5273 -0.1487  0.1219
 2379TIP3    H128628   6.193   3.559  16.358 -1.4657 -1.5163 -0.9893
 2379TIP3    H228629   6.270   3.444  16.420 -0.1477 -0.7748 -1.2217
 2380TIP3   OH228630   0.330   3.593   2.505  0.4690 -0.1389  0.0264
 2380TIP3    H128631   0.309   3.628   2.591  3.0696 -1.6377  1.3756
 2380TIP3    H228632   0.247   3.559   2.472 -0.6979  1.0008  1.6511
 2381TIP3   OH228633   0.962   0.519  15.913  0.6096 -0.2162 -0.2575
 2381TIP3    H128634   0.986   0.603  15.873 -1.1401  1.1902  1.3730
 2381TIP3    H228635   0.943   0.542  16.004 -1.4542 -2.0649 -0.1324
 2382TIP3   OH228636   0.341   6.189  16.450 -0.1867 -0.3685  0.2378
 2382TIP3    H128637   0.287   6.167  16.374 -1.1328 -0.3578  0.8797
 2382TIP3    H228638   0.429   6.161  16.427 -0.3461  0.1550 -1.0807
 2383TIP3   OH228639   4.325   4.499   4.195 -1.0665 -0.4655 -0.5029
 2383TIP3    H128640   4.336   4.421   4.140 -0.4365 -0.7116 -0.0385
 2383TIP3    H228641   4.231   4.516   4.195 -1.3798 -2.0560  0.5219
 2384TIP3   OH228642   3.291   5.464  15.669 -0.4478 -0.6149  0.1112
 2384TIP3    H128643   3.248   5.524  15.730  1.8463  1.9655 -0.6109
 2384TIP3    H228644   3.329   5.396  15.725 -4.1655 -2.3397  0.8539
 2385TIP3   OH228645   6.759   2.552   1.916 -0.4195 -0.3195 -0.3928
 2385TIP3    H128646   6.710   2.631   1.938 -1.2465 -0.2635 -2.2969
 2385TIP3    H228647   6.695   2.481   1.923 -0.8342 -0.2647 -2.7559
 2386TIP3   OH228648   6.120   6.654  17.177 -0.6945  0.4641  0.3783
 2386TIP3    H128649   6.200   6.601  17.174 -1.9780 -1.5303 -1.6908
 2386TIP3    H228650   6.133   6.712  17.252  4.2771  2.9277 -1.9399
 2387TIP3   OH228651   6.554   1.368  16.599  1.3821 -0.1900  0.3333
 2387TIP3    H128652   6.567   1.367  16.504  2.2033 -0.5403  0.4436
 2387TIP3    H228653   6.465   1.333  16.611  0.2928  2.0842 -0.4231
 2388TIP3   OH228654   4.982   5.373   5.539 -0.2677 -0.1638  0.3298
 2388TIP3    H128655   4.910   5.320   5.505 -0.7319  0.8828 -0.3816
 2388TIP3    H228656   5.022   5.411   5.461  0.1177  0.4439  0.8149
 2389TIP3   OH228657   5.802   1.273   2.899  0.3885  0.2630  0.2748
 2389TIP3    H128658   5.854   1.215   2.843 -1.0889  0.6116 -1.5855
 2389TIP3    H228659   5.865   1.331   2.941  1.5016  1.2661 -2.5747
 2390TIP3   OH228660   1.174   1.908   0.714  0.2982  0.1956 -0.7397
 2390TIP3    H128661   1.112   1.960   0.663 -0.7497 -0.2177  0.0811
 2390TIP3    H228662   1.166   1.941   0.804  1.5625  0.4020 -0.6767
 2391TIP3   OH228663   5.471   4.103   1.887 -0.3314  0.1628  0.0435
 2391TIP3    H128664   5.564   4.103   1.912 -0.1750 -1.4451 -0.4704
 2391TIP3    H228665   5.427   4.057   1.959 -0.8966  1.7093  0.7374
 2392TIP3   OH228666   5.355   6.825   2.758 -0.0579 -0.2294  0.2621
 2392TIP3    H128667   5.322   6.796   2.673  0.1954 -1.3912  0.5383
 2392TIP3    H228668   5.308   6.772   2.822 -0.5186  0.8977  0.8927
 2393TIP3   OH228669   0.108   5.775  11.215 -0.0825 -0.3040  1.0223
 2393TIP3    H128670   0.027   5.795  11.262  0.9493 -0.0909  2.7993
 2393TIP3    H228671   0.079   5.739  11.131 -2.0351 -1.4370  2.1099
 2394TIP3   OH228672   6.597   1.212  13.394 -0.0346  0.0420 -0.0232
 2394TIP3    H128673   6.547   1.279  13.348  0.0243 -0.3106 -0.6122
 2394TIP3    H228674   6.686   1.246  13.397 -0.4837  1.1897  2.0198
 2395TIP3   OH228675   2.315   6.001  16.181 -0.1556  0.1113 -0.0456
 2395TIP3    H128676   2.308   6.022  16.088 -2.6332  0.7114  0.2005
 2395TIP3    H228677   2.224   5.993  16.211  0.5720 -1.2431  2.0792
 2396TIP3   OH228678   2.549   4.613   1.006 -0.3534 -0.2241 -0.2576
 2396TIP3    H128679   2.486   4.541   1.008 -1.5978  0.8355  0.4464
 2396TIP3    H228680   2.607   4.592   0.933 -0.7919 -1.8390 -0.1741
 2397TIP3   OH228681   6.224   3.221   3.374  0.2107  0.1734 -0.0641
 2397TIP3    H128682   6.184   3.267   3.448  2.5976  2.4985 -0.0674
 2397TIP3    H228683   6.163   3.234   3.301  0.3240  2.5775  0.2022
 2398TIP3   OH228684   4.062   5.297   4.202 -0.3373 -0.7804  0.1437
 2398TIP3    H128685   4.057   5.206   4.233  0.1466 -0.7062  0.4522
 2398TIP3    H228686   4.128   5.295   4.133  1.2818 -0.2964  1.5903
 2399TIP3   OH228687   0.216   0.304   4.017  0.0716  0.2730  0.8844
 2399TIP3    H128688   0.257   0.368   4.075 -0.3096  0.9492  0.4243
 2399TIP3    H228689   0.251   0.324   3.930  1.7447 -1.6400  1.0429
 2400TIP3   OH228690   0.072   4.805  14.495  0.0892  0.1572  0.1168
 2400TIP3    H128691   0.025   4.876  14.538  1.2562  2.5876 -2.3237
 2400TIP3    H228692   0.026   4.792  14.412  0.6358 -1.0773 -0.0163
 2401TIP3   OH228693   0.416   2.991   0.598 -0.0847  0.4496 -0.8622
 2401TIP3    H128694   0.396   2.905   0.563  0.9234  1.0784 -3.1601
 2401TIP3    H228695   0.372   2.993   0.683 -3.4364 -0.8828 -2.3879
 2402TIP3   OH228696   3.231   0.431   2.918 -0.3521  0.5160 -0.3802
 2402TIP3    H128697   3.257   0.513   2.876 -1.0878  0.2329 -1.4376
 2402TIP3    H228698   3.138   0.422   2.895 -0.4148 -0.3277  0.1989
 2403TIP3   OH228699   6.393   5.686  15.472  0.8111 -0.0484 -0.3353
 2403TIP3    H128700   6.391   5.774  15.509 -0.6453 -0.3380  0.3567
 2403TIP3    H228701   6.433   5.632  15.541  0.0770 -0.2185 -0.0337
 2404TIP3   OH228702   6.616   2.554  16.127  0.0884 -0.1162  0.1804
 2404TIP3    H128703   6.683   2.606  16.083  1.4224 -0.7543  1.3436
 2404TIP3    H228704   6.541   2.612  16.135  0.4759  0.6106 -1.2194
 2405TIP3   OH228705   3.099   0.531   0.909 -0.3249 -0.5616 -0.0935
 2405TIP3    H128706   3.055   0.614   0.930 -0.3589 -0.2920 -1.1821
 2405TIP3    H228707   3.040   0.488   0.847  0.1575 -0.9547 -0.2834
 2406TIP3   OH228708   2.340   0.292   0.058 -0.0715 -0.4908 -0.6543
 2406TIP3    H128709   2.250   0.257   0.063 -1.0753  2.0300  0.7010
 2406TIP3    H228710   2.332   0.382   0.090  3.0379 -0.3160 -0.1195
 2407TIP3   OH228711   2.776   6.290  15.458  0.0623 -0.2454  0.5933
 2407TIP3    H128712   2.869   6.295  15.481 -0.5965 -0.8651  3.9892
 2407TIP3    H228713   2.742   6.378  15.475 -0.2765 -0.4697  1.1155
 2408TIP3   OH228714   4.517   6.756   0.919 -0.1149  0.1116 -0.5050
 2408TIP3    H128715   4.518   6.823   0.851  0.4773  0.7460  0.1053
 2408TIP3    H228716   4.435   6.708   0.905 -1.2095  1.8113 -0.1494
 2409TIP3   OH228717   0.320   2.716   1.675  0.5234  0.4522 -0.2835
 2409TIP3    H128718   0.241   2.664   1.664  0.6156  0.5761 -1.7174
 2409TIP3    H228719   0.311   2.756   1.761 -0.2678 -0.7149  0.1942
 2410TIP3   OH228720   3.765   6.787   4.033  0.0726 -0.1360  0.1138
 2410TIP3    H128721   3.829   6.857   4.039 -0.2840  0.3631 -1.3942
 2410TIP3    H228722   3.795   6.720   4.095  0.9655  0.9085  0.8289
 2411TIP3   OH228723   1.125   4.776  10.260  0.4836  0.0075 -0.1409
 2411TIP3    H128724   1.196   4.741  10.207  2.4990  2.2285  0.8890
 2411TIP3    H228725   1.141   4.871  10.261 -2.1479  0.5104  0.6739
 2412TIP3   OH228726   6.534   4.880   1.249 -0.0877  0.1082 -0.3426
 2412TIP3    H128727   6.621   4.846   1.270 -0.5857 -0.7856  0.3146
 2412TIP3    H228728   6.504   4.824   1.177 -1.1614 -1.3360  1.1462
 2413TIP3   OH228729   2.404   2.933  14.662 -0.4117 -0.0513 -0.0863
 2413TIP3    H128730   2.485   2.976  14.689 -0.7989  0.0887  0.9363
 2413TIP3    H228731   2.338   3.001  14.668 -0.7709 -0.4051  0.0700
 2414TIP3   OH228732   2.870   3.692   2.243  0.0856  0.2340  0.1540
 2414TIP3    H128733   2.889   3.621   2.181 -0.1031  0.7205 -0.4711
 2414TIP3    H228734   2.917   3.667   2.323 -0.8247 -1.1216  0.2981
 2415TIP3   OH228735   1.645   1.601  17.066  0.7512 -0.0610  0.0839
 2415TIP3    H128736   1.726   1.572  17.108 -0.2511 -1.2780  1.2763
 2415TIP3    H228737   1.586   1.620  17.138 -0.1312  0.4853 -0.7640
 2416TIP3   OH228738   2.940   2.999   4.628  0.4163  0.2814 -0.4154
 2416TIP3    H128739   2.923   2.908   4.606 -0.4756  0.0601  1.0237
 2416TIP3    H228740   2.883   3.017   4.703  1.4324  1.6735  0.0819
 2417TIP3   OH228741   3.228   1.354  17.042 -0.3552 -0.0361  0.4689
 2417TIP3    H128742   3.167   1.350  16.968 -0.2786 -1.1466  0.4525
 2417TIP3    H228743   3.313   1.375  17.002 -0.1113 -1.6113  0.0900
 2418TIP3   OH228744   1.893   5.515  15.371 -0.0316  0.1967 -0.1247
 2418TIP3    H128745   1.910   5.576  15.299  0.7730 -0.3225 -0.3962
 2418TIP3    H228746   1.871   5.433  15.327 -0.6184  0.1637  0.2314
 2419TIP3   OH228747   1.439   5.751   3.545  0.5684 -0.0036 -0.5877
 2419TIP3    H128748   1.458   5.795   3.462  0.8132  1.2285  0.0938
 2419TIP3    H228749   1.475   5.663   3.534  0.9379  0.2620 -1.6533
 2420TIP3   OH228750   3.883   1.429  16.310 -0.1899 -0.0524 -0.0619
 2420TIP3    H128751   3.861   1.347  16.354  0.9168  0.0537  0.7472
 2420TIP3    H228752   3.799   1.473  16.297 -0.6748 -0.7421  0.6724
 2421TIP3   OH228753   0.756   3.126  12.899 -1.1564  0.1925  0.4309
 2421TIP3    H128754   0.663   3.112  12.915 -1.1369 -0.3447  0.1033
 2421TIP3    H228755   0.763   3.217  12.872 -1.5647  0.2812  0.6282
 2422TIP3   OH228756   1.402   2.346  15.888 -0.1208  0.2993 -0.2600
 2422TIP3    H128757   1.316   2.304  15.879 -0.0341 -0.7298  2.6623
 2422TIP3    H228758   1.382   2.439  15.895 -0.6640  0.4375 -2.6319
 2423TIP3   OH228759   4.263   6.163  11.290 -0.2858  0.2323  0.0273
 2423TIP3    H128760   4.204   6.093  11.315  0.3578  0.6932  3.1973
 2423TIP3    H228761   4.212   6.243  11.301  0.2992  0.5062  0.8726
 2424TIP3   OH228762   4.123   0.924   5.551 -0.5503  0.1956  0.4728
 2424TIP3    H128763   4.114   0.974   5.470  1.7887 -1.2527 -0.7671
 2424TIP3    H228764   4.047   0.865   5.551 -0.1126 -0.4222 -1.1807
 2425TIP3   OH228765   2.024   5.599  11.682  0.4530 -0.7875 -0.4571
 2425TIP3    H128766   1.996   5.690  11.677  1.0261 -0.6576 -1.4816
 2425TIP3    H228767   2.073   5.593  11.764 -0.2979 -0.3939  0.0359
 2426TIP3   OH228768   5.640   4.609   5.123  0.1293  0.3599 -0.2923
 2426TIP3    H128769   5.685   4.532   5.089  0.4594  0.0758  0.7403
 2426TIP3    H228770   5.551   4.580   5.139 -0.1215  0.5938 -1.2302
 2427TIP3   OH228771   6.157   3.840   3.919 -0.3185  0.5779  0.5561
 2427TIP3    H128772   6.063   3.830   3.935  0.1041 -2.2589  1.9175
 2427TIP3    H228773   6.191   3.878   4.000  0.0500 -1.2957  1.3333
 2428TIP3   OH228774   3.603   4.308   4.476  0.6082 -0.0139 -0.0194
 2428TIP3    H128775   3.649   4.251   4.538  1.4928 -1.5804 -2.0052
 2428TIP3    H228776   3.514   4.273   4.472  0.7811 -0.4227 -0.2570
 2429TIP3   OH228777   2.401   2.241  15.959 -0.2537 -0.5532 -0.0510
 2429TIP3    H128778   2.319   2.247  16.007  0.1145  1.0378  0.4523
 2429TIP3    H228779   2.459   2.193  16.017 -0.5960 -0.9852 -0.0648
 2430TIP3   OH228780   1.159   6.395  12.863  0.3532 -0.0188  0.3982
 2430TIP3    H128781   1.155   6.489  12.877  0.0794 -0.3932  3.6510
 2430TIP3    H228782   1.249   6.378  12.835  0.0246  1.2978 -1.6065
 2431TIP3   OH228783   6.846   1.316  13.348  0.0851  0.6691 -0.3119
 2431TIP3    H128784   6.881   1.358  13.270  2.1237  0.0655  0.2408
 2431TIP3    H228785   6.889   1.231  13.352 -1.3818 -0.0746  0.4857
 2432TIP3   OH228786   3.319   0.173  12.211  0.5159  0.1478  0.3924
 2432TIP3    H128787   3.281   0.149  12.126 -1.1798  0.1399  1.1008
 2432TIP3    H228788   3.319   0.269  12.211  0.5615  0.1476  0.3547
 2433TIP3   OH228789   2.746   0.293  12.137  0.4323 -0.8637 -0.2831
 2433TIP3    H128790   2.741   0.329  12.226  0.0519 -1.5047 -0.0390
 2433TIP3    H228791   2.801   0.216  12.146  1.6295 -0.1088 -0.8927
 2434TIP3   OH228792   2.217   3.320  11.147 -0.1974  0.0693 -0.2007
 2434TIP3    H128793   2.198   3.248  11.088  1.3605 -2.1742  1.8514
 2434TIP3    H228794   2.136   3.372  11.149 -1.7369 -2.1674 -1.0075
 2435TIP3   OH228795   4.945   5.625  12.151  0.0640  0.1329 -0.3076
 2435TIP3    H128796   5.009   5.688  12.182  1.0695  0.2525 -2.4696
 2435TIP3    H228797   4.987   5.540  12.161 -1.0857 -0.2460  2.0957
 2436TIP3   OH228798   5.290   2.182   0.635  0.0781 -0.0637  0.8400
 2436TIP3    H128799   5.216   2.123   0.619 -0.6440  0.9493  0.3036
 2436TIP3    H228800   5.366   2.134   0.602 -0.7040 -0.0997 -1.0909
 2437TIP3   OH228801   3.859   6.741  15.993 -0.4318 -0.7649 -0.3953
 2437TIP3    H128802   3.805   6.814  16.025 -0.8414 -0.8019 -0.9851
 2437TIP3    H228803   3.929   6.733  16.058 -0.9763 -0.5317  0.2354
 2438TIP3   OH228804   6.391   1.650   6.381 -0.2299 -0.0085 -0.4702
 2438TIP3    H128805   6.482   1.651   6.353 -0.3154 -1.9924 -0.8950
 2438TIP3    H228806   6.395   1.625   6.474 -0.2635  2.0105  0.1484
 2439TIP3   OH228807   5.613   1.960   2.667 -0.4909  0.1748 -0.4695
 2439TIP3    H128808   5.670   2.036   2.681 -1.8572  1.0856  0.4149
 2439TIP3    H228809   5.530   1.997   2.638 -1.4454 -0.8898  0.7545
 2440TIP3   OH228810   4.506   0.596   3.127  0.8164 -0.4052  0.0094
 2440TIP3    H128811   4.502   0.581   3.222  0.1084 -0.4404 -0.0278
 2440TIP3    H228812   4.594   0.633   3.114 -0.7016  4.4265  1.3946
 2441TIP3   OH228813   2.421   5.464   3.050 -0.3459 -0.1018  0.1487
 2441TIP3    H128814   2.434   5.510   3.133 -1.1696  0.9636 -0.2825
 2441TIP3    H228815   2.378   5.383   3.074  1.5856 -0.9451  0.9824
 2442TIP3   OH228816   5.149   6.725   3.201  0.1682  0.5465 -0.2922
 2442TIP3    H128817   5.165   6.643   3.249  0.6427  0.0943 -1.1821
 2442TIP3    H228818   5.221   6.782   3.228  0.5132  0.2460 -0.5585
 2443TIP3   OH228819   0.588   6.170   2.753 -0.3585 -0.0228  0.3032
 2443TIP3    H128820   0.521   6.203   2.812 -0.2326 -0.3779  0.6446
 2443TIP3    H228821   0.549   6.178   2.666 -0.6277  0.2946  0.4489
 2444TIP3   OH228822   1.249   4.594   4.452  0.6753 -0.2979 -0.1342
 2444TIP3    H128823   1.263   4.529   4.522  0.1507 -1.3425 -0.9686
 2444TIP3    H228824   1.282   4.551   4.373 -0.6038  0.0419 -0.8750
 2445TIP3   OH228825   1.380   2.103   1.792  0.5348  0.1257 -0.5554
 2445TIP3    H128826   1.373   2.008   1.796 -0.4918  0.2196  1.6714
 2445TIP3    H228827   1.420   2.127   1.875 -1.6057  1.7405  0.1145
 2446TIP3   OH228828   5.848   6.687   3.139 -0.6550 -0.2583  0.3595
 2446TIP3    H128829   5.855   6.610   3.195 -2.1998  0.7963  2.0887
 2446TIP3    H228830   5.761   6.681   3.099  0.0305 -0.4689 -1.1937
 2447TIP3   OH228831   4.680   4.170   5.037  0.1117  0.5206 -0.2188
 2447TIP3    H128832   4.638   4.172   5.123 -0.9328  0.9644 -0.7127
 2447TIP3    H228833   4.617   4.122   4.982  1.5563 -1.3273 -0.3473
 2448TIP3   OH228834   0.768   0.011   2.812  0.1054 -0.2286 -0.5461
 2448TIP3    H128835   0.740  -0.049   2.881  0.1186  0.2665 -0.1040
 2448TIP3    H228836   0.801  -0.046   2.743  0.3129 -0.7268 -0.0470
 2449TIP3   OH228837   3.490   1.680  13.368  0.1285 -0.4625 -0.7519
 2449TIP3    H128838   3.545   1.605  13.343  0.2694 -0.6916  0.2140
 2449TIP3    H228839   3.400   1.647  13.363 -0.0325  0.1511 -3.1677
 2450TIP3   OH228840   5.647   4.613  11.605  0.0674 -1.0293 -0.1917
 2450TIP3    H128841   5.599   4.593  11.685  0.1077  0.3885  0.2083
 2450TIP3    H228842   5.690   4.696  11.622 -0.2756 -0.4661 -1.8225
 2451TIP3   OH228843   5.697   5.583  12.770 -0.3580 -0.5399 -0.2012
 2451TIP3    H128844   5.745   5.649  12.821 -0.3102  0.5505 -1.6055
 2451TIP3    H228845   5.764   5.524  12.738  0.0948  0.8591 -1.9815
 2452TIP3   OH228846   3.795   3.811   4.115 -0.0365 -0.5447 -0.5268
 2452TIP3    H128847   3.735   3.740   4.092 -0.4231 -0.1013 -0.9144
 2452TIP3    H228848   3.878   3.787   4.074 -0.4394 -0.2823 -1.5332
 2453TIP3   OH228849   2.458   6.008  11.504 -0.2996  0.0715  0.1546
 2453TIP3    H128850   2.409   5.931  11.532 -2.0906  0.5477 -1.4956
 2453TIP3    H228851   2.420   6.033  11.420  1.8515  1.3460 -0.5406
 2454TIP3   OH228852   6.764   6.233   3.733 -0.4602 -0.2950 -0.7885
 2454TIP3    H128853   6.745   6.145   3.700 -3.4091  0.1082 -0.4514
 2454TIP3    H228854   6.705   6.290   3.684  2.2818  1.7620 -1.9149
 2455TIP3   OH228855   1.449   2.523   5.082  0.2254  0.0411  0.4867
 2455TIP3    H128856   1.424   2.607   5.042  0.2314 -0.7412 -1.2634
 2455TIP3    H228857   1.366   2.482   5.105  0.1034 -0.4281 -0.7475
 2456TIP3   OH228858   0.828   2.073  13.039 -0.6219 -0.2740  0.3261
 2456TIP3    H128859   0.845   2.021  12.960 -0.2165  2.2182 -1.3451
 2456TIP3    H228860   0.741   2.046  13.067  0.7970 -4.1641  1.5391
 2457TIP3   OH228861   5.665   2.918   3.615  0.4677 -0.0395 -0.0302
 2457TIP3    H128862   5.663   2.844   3.554  1.2061  0.1740 -0.3281
 2457TIP3    H228863   5.757   2.924   3.642  0.0679 -0.5068  1.5761
 2458TIP3   OH228864   1.676   5.878  15.587 -0.4702  0.7680 -0.8330
 2458TIP3    H128865   1.710   5.967  15.599  1.1053  0.2553 -1.3042
 2458TIP3    H228866   1.744   5.833  15.537 -0.2049 -1.3494  1.3006
 2459TIP3   OH228867   3.196   0.053   5.330 -0.9277  0.0145 -0.5370
 2459TIP3    H128868   3.216  -0.009   5.400 -0.8035 -0.0024 -0.5868
 2459TIP3    H228869   3.192   0.138   5.374  0.6466  0.2207 -0.7401
 2460TIP3   OH228870   6.799   0.467  12.862 -0.1587 -0.7085  0.9562
 2460TIP3    H128871   6.765   0.508  12.783 -0.4791 -1.7996  0.5019
 2460TIP3    H228872   6.890   0.496  12.867 -0.4421  0.2380  0.8002
 2461TIP3   OH228873   4.270   0.931  15.557 -0.1839 -0.6930  0.4406
 2461TIP3    H128874   4.288   1.016  15.596  0.1781 -0.2235 -0.7069
 2461TIP3    H228875   4.179   0.936  15.529  0.0006 -0.4652 -0.1345
 2462TIP3   OH228876   5.922   0.883  12.082 -0.5835 -0.3830  0.1220
 2462TIP3    H128877   5.997   0.936  12.109 -0.4092 -0.6251  0.1235
 2462TIP3    H228878   5.920   0.811  12.145 -1.1797 -0.0543  0.4787
 2463TIP3   OH228879   0.783   4.031  12.247 -0.0270  0.1558 -0.2819
 2463TIP3    H128880   0.829   4.084  12.313  1.8061 -0.8466 -0.6758
 2463TIP3    H228881   0.696   4.017  12.284 -0.1941  2.4466  0.3402
 2464TIP3   OH228882   3.854   0.668  14.551  0.0623  0.0603  0.3281
 2464TIP3    H128883   3.865   0.581  14.514 -0.8034 -0.5035  1.3545
 2464TIP3    H228884   3.938   0.686  14.595  0.9764  0.6012 -1.5356
 2465TIP3   OH228885   2.723   6.582  14.034  0.0646 -0.2407 -0.6169
 2465TIP3    H128886   2.710   6.502  14.086 -0.3640  0.3668  0.2343
 2465TIP3    H228887   2.682   6.651  14.086 -0.4797  0.3753 -1.8303
 2466TIP3   OH228888   4.821   6.791  12.959 -0.5589  0.0818 -0.3442
 2466TIP3    H128889   4.867   6.713  12.990 -1.4613 -0.3879 -0.1542
 2466TIP3    H228890   4.795   6.837  13.038 -3.4952 -1.4840 -0.2307
 2467TIP3   OH228891   0.643   5.034  15.776 -0.0194 -0.0405 -0.2725
 2467TIP3    H128892   0.595   5.080  15.844  1.1804  0.1290  0.4839
 2467TIP3    H228893   0.615   5.075  15.694 -2.9658 -1.5370 -0.1435
 2468TIP3   OH228894   0.893   5.829   1.460 -0.4338 -0.4282  0.2562
 2468TIP3    H128895   0.834   5.892   1.418  0.6204 -0.2594 -1.0481
 2468TIP3    H228896   0.958   5.883   1.504 -0.4021 -0.6067  0.4283
 2469TIP3   OH228897   1.349   4.207   4.554  0.1150  0.7577 -0.6355
 2469TIP3    H128898   1.354   4.201   4.459  1.2116  1.4071 -0.6414
 2469TIP3    H228899   1.439   4.194   4.584 -0.1009  1.2005  0.2627
 2470TIP3   OH228900   4.033   6.266  15.975 -0.2654  0.2835 -0.2916
 2470TIP3    H128901   3.994   6.183  15.949  0.8898 -0.0227 -1.1485
 2470TIP3    H228902   4.124   6.243  15.997  0.8837  1.6620 -3.1202
 2471TIP3   OH228903   6.605   5.450   4.796 -0.3917  0.5361 -0.0389
 2471TIP3    H128904   6.561   5.473   4.878 -1.1301 -0.2018 -0.2126
 2471TIP3    H228905   6.535   5.414   4.741 -0.3144  2.8049 -1.7419
 2472TIP3   OH228906   1.430   4.833  13.634 -0.2685  0.1783 -0.5303
 2472TIP3    H128907   1.386   4.749  13.621 -1.6657  0.5949  1.1280
 2472TIP3    H228908   1.379   4.895  13.581 -1.8582  0.6766  1.4572
 2473TIP3   OH228909   1.786   3.817   2.296  0.0286 -0.0338 -0.2637
 2473TIP3    H128910   1.766   3.747   2.359  0.5729 -1.2164 -1.3470
 2473TIP3    H228911   1.874   3.796   2.265  0.1778  1.1185 -0.6690
 2474TIP3   OH228912   3.543   0.576   0.714  0.3556 -0.1106  0.4241
 2474TIP3    H128913   3.491   0.513   0.764 -0.2309 -0.4167 -0.5274
 2474TIP3    H228914   3.542   0.542   0.625  0.4372  0.9831 -0.0155
 2475TIP3   OH228915   5.782   0.007   3.843 -0.8547  0.2891 -0.2870
 2475TIP3    H128916   5.743  -0.026   3.924  0.1182  0.6477  0.3509
 2475TIP3    H228917   5.860   0.055   3.872 -0.7371  0.8049 -1.4062
 2476TIP3   OH228918   5.080   6.433  16.978 -0.0404  0.7541 -0.0423
 2476TIP3    H128919   5.051   6.478  17.057  1.8397  0.8659  0.6519
 2476TIP3    H228920   5.158   6.385  17.005 -0.6236 -1.0113 -1.3427
 2477TIP3   OH228921   0.391   2.890   1.902  0.0574 -0.2417 -0.0420
 2477TIP3    H128922   0.369   2.872   1.994  2.4996  1.5450  0.9957
 2477TIP3    H228923   0.475   2.847   1.888  0.0934  0.1742 -1.2294
 2478TIP3   OH228924   4.195   2.338  10.377  0.2779  0.7629  0.2822
 2478TIP3    H128925   4.141   2.352  10.455  2.0027  3.0860  1.1746
 2478TIP3    H228926   4.272   2.392  10.392  1.7758 -0.6163 -2.0008
 2479TIP3   OH228927   6.681   3.611   4.325 -0.0196 -0.2964  0.0476
 2479TIP3    H128928   6.694   3.575   4.413 -0.2274  0.5524  0.4467
 2479TIP3    H228929   6.662   3.704   4.341  0.3184 -0.0488 -0.9185
 2480TIP3   OH228930   1.754   0.089   5.648 -0.2216 -0.3264 -0.0403
 2480TIP3    H128931   1.821   0.156   5.662 -0.4715 -0.3275  1.2995
 2480TIP3    H228932   1.785   0.013   5.699 -1.1308 -0.3874  0.4407
 2481TIP3   OH228933   5.439   3.026   1.794  0.4166  0.7089  0.0844
 2481TIP3    H128934   5.489   3.074   1.860  0.9374 -0.1034  0.3065
 2481TIP3    H228935   5.360   2.997   1.839  1.2512 -0.7295  0.6841
 2482TIP3   OH228936   4.496   1.812   5.334 -0.5216  0.2607  0.3325
 2482TIP3    H128937   4.482   1.820   5.429 -0.0515  0.6372  0.3742
 2482TIP3    H228938   4.423   1.758   5.304  1.0279 -2.6992  1.4094
 2483TIP3   OH228939   0.192   0.004   3.174  0.3032 -0.0774  0.1444
 2483TIP3    H128940   0.114  -0.034   3.133  0.5735 -1.0880  0.5515
 2483TIP3    H228941   0.170   0.010   3.267  1.2434 -1.8198  0.5240
 2484TIP3   OH228942   0.829   4.110   5.647  0.2960  0.2900  0.2610
 2484TIP3    H128943   0.895   4.077   5.708  0.5107  0.1550 -0.0425
 2484TIP3    H228944   0.880   4.148   5.576  0.0554  1.2063  0.5642
 2485TIP3   OH228945   2.992   5.592   1.043  0.7641  0.8765  0.1384
 2485TIP3    H128946   2.922   5.658   1.039  0.0540  0.1207 -0.3850
 2485TIP3    H228947   2.987   5.547   0.959 -0.0828 -1.1176  1.1640
 2486TIP3   OH228948   4.147   6.735  16.510 -0.4799  0.1782 -0.1942
 2486TIP3    H128949   4.233   6.769  16.534 -0.5638  0.0639  0.2678
 2486TIP3    H228950   4.092   6.813  16.501 -0.4145  0.2291 -0.1492
 2487TIP3   OH228951   1.239   3.899   3.842 -0.1772 -0.3116  0.1150
 2487TIP3    H128952   1.172   3.967   3.845  0.3354  0.2001  0.0805
 2487TIP3    H228953   1.209   3.839   3.773  0.3423  0.9167 -1.2168
 2488TIP3   OH228954   6.388   3.307   2.840  0.1797  0.0884  0.8027
 2488TIP3    H128955   6.351   3.395   2.845  0.1647  0.2420 -1.1991
 2488TIP3    H228956   6.451   3.312   2.768 -2.3854 -2.3802 -1.8157
 2489TIP3   OH228957   0.143   2.396   3.226  0.6518 -0.0078  0.0176
 2489TIP3    H128958   0.154   2.399   3.321 -1.5902 -1.1577  0.3940
 2489TIP3    H228959   0.187   2.315   3.199 -2.2047 -1.9943  0.7908
 2490TIP3   OH228960   1.029   1.898   1.787  0.7200 -0.1676  0.1406
 2490TIP3    H128961   1.060   1.876   1.875 -0.8519 -0.8448  0.5590
 2490TIP3    H228962   0.972   1.974   1.801 -2.0836 -2.1795  0.2333
 2491TIP3   OH228963   5.573   6.405  11.224  0.0577  0.2484  0.4876
 2491TIP3    H128964   5.487   6.435  11.251 -1.4328 -1.1954 -2.1853
 2491TIP3    H228965   5.564   6.310  11.217  0.0423  0.3529 -4.8428
 2492TIP3   OH228966   3.490   0.185   1.268  0.0681  0.0409  0.1897
 2492TIP3    H128967   3.533   0.223   1.344  1.5536 -2.2075  0.5728
 2492TIP3    H228968   3.556   0.184   1.199 -0.2121 -0.9278 -0.0909
 2493TIP3   OH228969   0.722   0.071   3.272  0.0964 -0.6662  0.0774
 2493TIP3    H128970   0.655   0.048   3.207  0.1850 -0.5310 -0.0634
 2493TIP3    H228971   0.677   0.065   3.356  0.3330 -2.2005  0.1291
 2494TIP3   OH228972   1.930   4.077   5.150 -0.0394  0.3518  0.2256
 2494TIP3    H128973   1.852   4.095   5.097 -0.3672 -0.8392  0.2722
 2494TIP3    H228974   1.913   4.120   5.234 -1.1053 -0.7255  0.5843
 2495TIP3   OH228975   0.258   3.577   5.492  0.0652  0.2454  0.2008
 2495TIP3    H128976   0.170   3.586   5.456  0.0563 -2.0911 -0.5605
 2495TIP3    H228977   0.312   3.553   5.417  1.1604  0.5852  0.8491
 2496TIP3   OH228978   1.613   1.393  16.598  0.0986  0.2739 -0.1787
 2496TIP3    H128979   1.606   1.416  16.691 -0.1842 -0.1307 -0.0938
 2496TIP3    H228980   1.526   1.412  16.562 -0.0659 -0.3976 -0.1596
 2497TIP3   OH228981   0.734   3.246   0.898 -0.3394  0.7038 -0.3183
 2497TIP3    H128982   0.709   3.153   0.901 -1.3206  0.9847  2.1353
 2497TIP3    H228983   0.818   3.249   0.943 -0.6034  1.0917  0.1495
 2498TIP3   OH228984   5.088   5.162   3.511  0.2746 -0.2218 -0.1854
 2498TIP3    H128985   5.117   5.119   3.430 -0.0622 -0.5249 -0.1452
 2498TIP3    H228986   5.007   5.118   3.534  1.4360 -1.6181  1.4861
 2499TIP3   OH228987   0.317   3.027   5.486  0.4876  0.1999 -0.1175
 2499TIP3    H128988   0.304   2.986   5.571  0.8470  1.4395  0.5558
 2499TIP3    H228989   0.241   3.084   5.475 -0.4921 -1.2745 -1.4639
 2500TIP3   OH228990   1.502   3.123   2.335  0.4255  0.3656  0.2981
 2500TIP3    H128991   1.530   3.195   2.392  0.2850 -0.8443  1.9537
 2500TIP3    H228992   1.576   3.110   2.275  1.6330  0.0900  1.7849
 2501TIP3   OH228993   1.040   4.289  16.440  0.2781  0.1559 -0.7885
 2501TIP3    H128994   0.967   4.336  16.399 -0.6752 -0.0221  0.6387
 2501TIP3    H228995   1.062   4.341  16.517  3.5370  1.7274 -2.5645
 2502TIP3   OH228996   6.167   3.148  13.669 -0.6411 -0.0935 -0.0497
 2502TIP3    H128997   6.174   3.234  13.711 -1.3020 -0.2272  0.3501
 2502TIP3    H228998   6.102   3.101  13.721  0.2749 -1.1279  0.2222
 2503TIP3   OH228999   2.456   4.576   6.022  0.0059 -0.1570 -0.0467
 2503TIP3    H129000   2.387   4.537   5.969 -0.0942 -2.0659  1.3910
 2503TIP3    H229001   2.496   4.642   5.965 -1.0719 -1.0598 -1.9262
 2504TIP3   OH229002   4.972   6.306  15.776 -0.6223  0.1319 -0.2614
 2504TIP3    H129003   4.953   6.259  15.695 -0.3567  1.6218 -1.2131
 2504TIP3    H229004   5.027   6.380  15.750  0.2934  0.1118  1.4104
 2505TIP3   OH229005   0.012   2.075   1.077 -0.5746 -0.0537 -0.1735
 2505TIP3    H129006  -0.026   1.988   1.070 -1.4747  0.2529  0.6575
 2505TIP3    H229007   0.103   2.060   1.101 -1.0436 -0.7680  1.2807
 2506TIP3   OH229008   3.332   5.514   2.691  0.1220  0.0073 -0.1112
 2506TIP3    H129009   3.322   5.597   2.738  2.2019 -0.4839  1.3336
 2506TIP3    H229010   3.251   5.467   2.709  0.0873  0.5988  1.4555
 2507TIP3   OH229011   3.148   4.968  10.499 -0.1926 -0.7992 -0.0021
 2507TIP3    H129012   3.061   4.994  10.467 -0.8499 -1.0318  1.5092
 2507TIP3    H229013   3.141   4.974  10.594  2.1712  1.4088  0.1265
 2508TIP3   OH229014   5.438   1.115  15.790 -0.5045 -0.3855  1.0155
 2508TIP3    H129015   5.394   1.197  15.812 -0.0430 -0.0853  0.8184
 2508TIP3    H229016   5.408   1.053  15.857  0.0756  0.2466  1.8813
 2509TIP3   OH229017   4.383   2.882  12.156  0.1644  0.3454 -0.8775
 2509TIP3    H129018   4.310   2.829  12.127  0.2781 -0.2837 -0.0526
 2509TIP3    H229019   4.459   2.824  12.150  0.0942 -0.0641  1.2653
 2510TIP3   OH229020   0.923   3.144   2.690  0.2839  0.7491  0.2953
 2510TIP3    H129021   0.978   3.148   2.768 -1.3052 -0.2946  1.5220
 2510TIP3    H229022   0.903   3.051   2.679 -4.6613  1.2721  2.5049
 2511TIP3   OH229023   0.206   5.519  11.241 -0.2260  0.0521  0.5996
 2511TIP3    H129024   0.205   5.567  11.159  0.2925 -0.3166  0.3742
 2511TIP3    H229025   0.187   5.586  11.308  2.9753  1.1615  0.5713
 2512TIP3   OH229026   2.660   1.922   1.743 -0.1946 -0.7352 -0.0176
 2512TIP3    H129027   2.704   2.005   1.725 -1.3954 -0.2628 -0.9811
 2512TIP3    H229028   2.703   1.888   1.821  0.1885  0.9099  0.5440
 2513TIP3   OH229029   4.074   5.689  16.409  0.5096 -0.0721 -0.8832
 2513TIP3    H129030   4.010   5.622  16.384  0.8020  0.0755 -2.0666
 2513TIP3    H229031   4.046   5.717  16.496 -1.9180  0.9795 -1.8872
 2514TIP3   OH229032   1.528   3.794  13.137  0.2219 -0.0299 -0.4049
 2514TIP3    H129033   1.447   3.745  13.120 -0.3572  0.9111 -0.4145
 2514TIP3    H229034   1.591   3.727  13.165 -0.7393 -0.7039  0.2275
 2515TIP3   OH229035   1.293   4.407  15.349  0.6614 -0.0221 -0.3659
 2515TIP3    H129036   1.229   4.381  15.282 -0.5493 -0.4469  0.9213
 2515TIP3    H229037   1.300   4.502  15.339 -0.5750  0.1056 -0.2041
 2516TIP3   OH229038   6.415   0.520  16.154  0.5160 -0.1100  0.4042
 2516TIP3    H129039   6.489   0.580  16.145 -0.1974  0.5766 -1.2239
 2516TIP3    H229040   6.352   0.566  16.210  0.8412 -0.2419  0.8892
 2517TIP3   OH229041   1.344   0.968   2.450 -0.2741 -0.0427  0.4950
 2517TIP3    H129042   1.319   0.959   2.542 -2.1969  3.0440  0.4444
 2517TIP3    H229043   1.268   0.935   2.401  0.3446 -0.7742 -0.0006
 2518TIP3   OH229044   5.358   6.404  13.806  0.0295 -0.1326 -0.0823
 2518TIP3    H129045   5.400   6.410  13.721 -1.1767 -0.8839 -0.7722
 2518TIP3    H229046   5.420   6.443  13.867 -0.0069  2.5097 -1.5991
 2519TIP3   OH229047   0.593   1.617  12.701  0.7362 -0.7599  0.2459
 2519TIP3    H129048   0.603   1.660  12.785  1.6596  1.2506 -0.8385
 2519TIP3    H229049   0.508   1.647  12.669  1.4141  0.4144 -0.5435
 2520TIP3   OH229050   5.893   6.540   6.031 -0.1481  0.0565 -0.3318
 2520TIP3    H129051   5.902   6.619   6.085 -0.7927 -0.1052  0.0258
 2520TIP3    H229052   5.800   6.534   6.013 -0.3114 -1.4137  0.8624
 2521TIP3   OH229053   5.472   1.178  12.061 -0.2178  0.1411  0.3583
 2521TIP3    H129054   5.414   1.237  12.013 -0.9713 -0.1225  0.9359
 2521TIP3    H229055   5.466   1.206  12.152  0.0527 -0.3094  0.5184
 2522TIP3   OH229056   0.471   6.805   2.103 -0.2217  0.1363  0.1130
 2522TIP3    H129057   0.435   6.893   2.116  0.7044  0.5364 -0.0085
 2522TIP3    H229058   0.557   6.808   2.143 -0.6253 -1.0667  1.1313
 2523TIP3   OH229059   2.095   4.224  14.248 -0.1898  0.2868 -0.0505
 2523TIP3    H129060   2.083   4.261  14.335 -0.6993  1.7433 -0.7100
 2523TIP3    H229061   2.188   4.240  14.228  0.0697 -0.5613  0.4357
 2524TIP3   OH229062   3.855   0.805  12.314  0.5302  0.1984 -0.9245
 2524TIP3    H129063   3.824   0.801  12.404  1.3961 -1.4649 -0.6568
 2524TIP3    H229064   3.860   0.899  12.294  0.9359  0.6271  0.9735
 2525TIP3   OH229065   1.867   5.539   4.890 -0.7095  0.3425  0.4530
 2525TIP3    H129066   1.846   5.632   4.894 -0.2479  0.4576  0.2194
 2525TIP3    H229067   1.902   5.519   4.977 -0.0428  0.5748  0.2410
 2526TIP3   OH229068   1.465   4.259  13.215 -0.0371  0.1670  0.2055
 2526TIP3    H129069   1.538   4.262  13.277  0.3766  0.3673 -0.2933
 2526TIP3    H229070   1.430   4.170  13.225  2.6094 -1.3079 -2.2027
 2527TIP3   OH229071   4.440   0.325  15.832 -0.6137 -0.1953 -0.4797
 2527TIP3    H129072   4.455   0.253  15.771  1.7255 -1.1589  1.0753
 2527TIP3    H229073   4.401   0.395  15.779  1.1318 -1.0150 -3.0236
 2528TIP3   OH229074   0.055   4.351  14.730 -0.1473  0.4344  0.2138
 2528TIP3    H129075   0.080   4.443  14.721  0.9699  0.1649  0.4502
 2528TIP3    H229076  -0.037   4.349  14.702  0.3747  1.2764 -1.7612
 2529TIP3   OH229077   0.742   5.601   1.549  0.0582 -0.6610 -0.5717
 2529TIP3    H129078   0.801   5.663   1.507  0.1589 -0.9671 -0.8933
 2529TIP3    H229079   0.737   5.630   1.640 -0.4882  0.2522 -0.8835
 2530TIP3   OH229080   1.056   1.737   5.869  0.0275 -0.7385  0.2607
 2530TIP3    H129081   1.143   1.723   5.906  0.6314  0.4942 -0.6041
 2530TIP3    H229082   1.030   1.824   5.900  0.6472  0.4415 -2.2146
 2531TIP3   OH229083   0.910   4.146  12.763 -0.1383  0.3785 -0.4290
 2531TIP3    H129084   0.984   4.168  12.707  1.4592 -0.8328  1.1031
 2531TIP3    H229085   0.902   4.220  12.824 -0.8188  0.9327 -1.1688
 2532TIP3   OH229086   5.724   5.075   3.463  0.4001 -0.1300 -0.4956
 2532TIP3    H129087   5.739   5.033   3.548 -0.6509 -1.4656 -0.9426
 2532TIP3    H229088   5.710   5.003   3.402  1.5539  0.7949 -1.9171
 2533TIP3   OH229089   0.636   3.559  11.650 -0.4557  0.4275 -0.3264
 2533TIP3    H129090   0.673   3.481  11.608  0.8279  1.0567 -0.4127
 2533TIP3    H229091   0.595   3.608  11.579 -2.1033 -0.5825 -0.1341
 2534TIP3   OH229092   4.983   4.784   2.574 -0.0817 -0.0367 -0.5861
 2534TIP3    H129093   5.050   4.717   2.577  0.5646  0.5101 -2.1617
 2534TIP3    H229094   4.969   4.807   2.666  2.2793  0.2204 -0.2295
 2535TIP3   OH229095   5.935   5.288  10.816 -0.3508  0.6309 -0.5116
 2535TIP3    H129096   5.928   5.216  10.880  0.0590  0.4301 -0.6866
 2535TIP3    H229097   5.968   5.362  10.867 -2.2740  1.1824  0.0204
 2536TIP3   OH229098   4.320   3.798  13.143 -0.5838 -0.0901 -0.9332
 2536TIP3    H129099   4.305   3.844  13.226 -0.9327 -2.6599  0.5610
 2536TIP3    H229100   4.266   3.844  13.079 -2.3214  0.4816  0.8461
 2537TIP3   OH229101   1.091   3.410   2.689 -0.2477 -0.6699  0.1114
 2537TIP3    H129102   1.049   3.337   2.643 -1.3516  0.4029 -0.6604
 2537TIP3    H229103   1.022   3.445   2.746 -0.6417  1.4147 -1.5066
 2538TIP3   OH229104   5.823   1.581   3.598 -0.3637 -0.7521  0.4917
 2538TIP3    H129105   5.894   1.519   3.616 -0.3682 -0.5122  1.3994
 2538TIP3    H229106   5.830   1.599   3.504  1.5753  0.2473  0.7694
 2539TIP3   OH229107   4.265   5.085   3.768  0.7018  0.5192 -0.2516
 2539TIP3    H129108   4.234   5.092   3.858  0.9696  0.2376 -0.1375
 2539TIP3    H229109   4.225   5.160   3.723 -1.3926 -0.6375 -0.4723
 2540TIP3   OH229110   3.714   4.479  10.303  0.0778  0.4018 -0.2158
 2540TIP3    H129111   3.684   4.489  10.393  1.4048 -0.4219  0.3494
 2540TIP3    H229112   3.688   4.561  10.260 -2.5522 -0.0952  0.2863
 2541TIP3   OH229113   2.823   2.573   3.425  0.4841 -0.1988 -0.1816
 2541TIP3    H129114   2.766   2.627   3.370 -0.7244  0.2797  1.4634
 2541TIP3    H229115   2.765   2.535   3.490  2.0702  0.7389  1.9133
 2542TIP3   OH229116   0.209   4.833  11.386 -0.5090 -0.5517  0.2391
 2542TIP3    H129117   0.132   4.781  11.364 -0.5516 -0.5874  0.4661
 2542TIP3    H229118   0.201   4.912  11.332 -0.0746 -1.0914 -0.6185
 2543TIP3   OH229119   1.086   2.787   0.766 -0.5257 -0.7433  0.2993
 2543TIP3    H129120   1.029   2.762   0.839 -0.8461 -1.2403 -0.1177
 2543TIP3    H229121   1.070   2.721   0.699  1.6231 -1.7578  0.7161
 2544TIP3   OH229122   4.554   5.367   3.119  0.3712  0.1014 -0.0070
 2544TIP3    H129123   4.588   5.380   3.031  2.1567 -0.7205  0.5245
 2544TIP3    H229124   4.572   5.449   3.165  1.7593 -0.3510  0.2895
 2545TIP3   OH229125   2.966   2.789   1.038  0.1276  0.2880 -0.3697
 2545TIP3    H129126   3.045   2.753   0.997 -0.1979  0.8594 -1.5462
 2545TIP3    H229127   2.963   2.880   1.008 -0.5879  0.4816  0.2617
 2546TIP3   OH229128   3.934   6.004   3.343 -0.0366  0.0419  0.1292
 2546TIP3    H129129   4.001   6.031   3.280  0.4164 -1.3659 -0.0469
 2546TIP3    H229130   3.982   5.994   3.425 -0.0701 -0.6910  0.0689
 2547TIP3   OH229131   0.266   4.576   5.891 -0.3141  0.7093 -0.2310
 2547TIP3    H129132   0.199   4.623   5.841 -1.0340  0.2001  0.2472
 2547TIP3    H229133   0.286   4.499   5.838 -1.1968  0.0830  0.3237
 2548TIP3   OH229134   3.790   3.194   2.261 -0.3878 -0.0181 -0.2318
 2548TIP3    H129135   3.780   3.109   2.220 -1.6723  0.6414 -1.3461
 2548TIP3    H229136   3.731   3.191   2.337 -0.3164 -0.1702 -0.1818
 2549TIP3   OH229137   2.353   0.495  11.629 -0.0272  0.1555  0.3967
 2549TIP3    H129138   2.279   0.453  11.673 -0.1286  0.0597  0.1375
 2549TIP3    H229139   2.345   0.588  11.652 -0.9290  0.3415 -0.6061
 2550TIP3   OH229140   6.585   2.131  15.988 -0.2309  0.4117 -0.1157
 2550TIP3    H129141   6.625   2.193  15.927  0.0402 -0.7179 -1.1442
 2550TIP3    H229142   6.510   2.095  15.940 -0.0151 -0.4985  0.1980
 2551TIP3   OH229143   2.283   1.258  16.547  0.0790 -0.1435  0.4637
 2551TIP3    H129144   2.323   1.235  16.631 -1.0483  0.8697  1.3151
 2551TIP3    H229145   2.234   1.339  16.565  0.1341  0.3205 -1.2682
 2552TIP3   OH229146   0.772   3.064   2.253  0.2008  0.1666 -0.1468
 2552TIP3    H129147   0.779   3.122   2.177  1.3355  1.6973  1.0857
 2552TIP3    H229148   0.858   3.068   2.294 -1.2885  2.1264  3.1669
 2553TIP3   OH229149   5.043   6.358  16.551 -0.1256 -0.3717 -0.2757
 2553TIP3    H129150   4.979   6.425  16.524 -0.2218  0.2304  1.3237
 2553TIP3    H229151   4.995   6.302  16.611  0.2614 -1.2730 -0.7884
 2554TIP3   OH229152   6.606   0.567   3.128 -0.4046 -1.1113  0.5438
 2554TIP3    H129153   6.539   0.599   3.067  0.6796 -0.3747 -0.3016
 2554TIP3    H229154   6.593   0.472   3.131 -1.1257 -1.0398 -0.0502
 2555TIP3   OH229155   6.398   0.673   2.485 -0.1101  0.3446  0.0457
 2555TIP3    H129156   6.381   0.669   2.391 -1.4912 -0.3903  0.3041
 2555TIP3    H229157   6.493   0.668   2.492 -0.0166 -0.1335 -1.2897
 2556TIP3   OH229158   0.290   0.710  13.010 -0.5384  0.1645  0.3349
 2556TIP3    H129159   0.202   0.748  13.020 -0.3675  0.9004 -0.7938
 2556TIP3    H229160   0.336   0.735  13.090 -1.0839  0.5504  0.5339
 2557TIP3   OH229161   6.647   1.839   5.672 -0.6881 -0.3328 -0.4594
 2557TIP3    H129162   6.622   1.753   5.638 -1.2990 -0.8958  1.3032
 2557TIP3    H229163   6.590   1.852   5.748  0.7744  0.7538  0.4895
 2558TIP3   OH229164   1.432   6.397   1.747  0.1965  0.1207  0.0071
 2558TIP3    H129165   1.495   6.446   1.801  1.5220  1.2873 -2.4340
 2558TIP3    H229166   1.475   6.388   1.663 -2.4927 -0.0328 -1.4580
 2559TIP3   OH229167   3.624   6.551   1.997 -0.4806 -0.6193  0.4497
 2559TIP3    H129168   3.536   6.584   2.013 -0.3510 -1.1373  2.5720
 2559TIP3    H229169   3.621   6.459   2.023  0.6007 -0.7265  0.2695
 2560TIP3   OH229170   1.445   2.188  13.081  0.0615 -0.3757  0.5628
 2560TIP3    H129171   1.464   2.098  13.053  3.2632 -0.2801  2.0007
 2560TIP3    H229172   1.404   2.178  13.167  0.1586 -0.4863  0.5971
 2561TIP3   OH229173   2.275   5.855  12.673 -0.1102 -0.4725  0.1025
 2561TIP3    H129174   2.357   5.830  12.632  0.8703  0.0535  1.6257
 2561TIP3    H229175   2.245   5.776  12.717  0.6202 -0.1982  1.1419
 2562TIP3   OH229176   2.779   0.064   4.703  0.0974  0.1889 -0.3984
 2562TIP3    H129177   2.845   0.042   4.637 -0.0831  0.3930 -0.6448
 2562TIP3    H229178   2.809   0.019   4.782  1.9333  2.3325  0.2096
 2563TIP3   OH229179   5.909   5.803  12.478 -0.2713  0.0771  0.2379
 2563TIP3    H129180   5.952   5.736  12.532 -0.8209 -0.2608  0.2685
 2563TIP3    H229181   5.861   5.753  12.413  0.1233  0.4774 -0.3723
 2564TIP3   OH229182   5.663   6.175  13.538  0.4318  0.2105  0.4036
 2564TIP3    H129183   5.744   6.184  13.487  0.2849 -1.7271 -0.2698
 2564TIP3    H229184   5.669   6.088  13.577 -1.5450 -0.1973 -0.0876
 2565TIP3   OH229185   4.498   4.884  15.362 -0.5016 -0.4753 -0.6222
 2565TIP3    H129186   4.421   4.841  15.322 -0.5736 -0.4351 -0.5256
 2565TIP3    H229187   4.461   4.949  15.421 -0.4568 -2.4264  1.6802
 2566TIP3   OH229188   2.499   0.120  15.384  0.4465 -0.1001  0.1094
 2566TIP3    H129189   2.549   0.047  15.347  0.0702 -0.6978  0.7575
 2566TIP3    H229190   2.424   0.130  15.326  0.7985  0.1577 -0.3090
 2567TIP3   OH229191   5.346   2.794  13.423  0.2919  0.2754  0.4362
 2567TIP3    H129192   5.359   2.777  13.329 -0.4334  0.6397  0.2640
 2567TIP3    H229193   5.281   2.865  13.426 -2.1797 -1.8614  1.2379
 2568TIP3   OH229194   5.639   4.394   0.929  0.1128  0.2036 -0.1343
 2568TIP3    H129195   5.579   4.319   0.927  0.4315 -0.1419  1.6316
 2568TIP3    H229196   5.630   4.434   0.843 -2.2021 -0.1901 -0.1299
 2569TIP3   OH229197   3.316   0.363  15.383  0.9206  0.0688  0.1321
 2569TIP3    H129198   3.394   0.399  15.341  0.4417 -1.3645 -2.2053
 2569TIP3    H229199   3.326   0.268  15.375 -0.8253 -0.1576  0.1948
 2570TIP3   OH229200   0.588   6.107  13.547 -0.5206 -0.0200  0.2935
 2570TIP3    H129201   0.603   6.142  13.635  0.1598  0.1220  0.1257
 2570TIP3    H229202   0.672   6.069  13.521 -0.9702 -0.8860  0.0697
 2571TIP3   OH229203   6.024   3.932   3.370  0.1036  0.3245 -0.4756
 2571TIP3    H129204   6.112   3.968   3.384  0.8231 -1.5337  0.0285
 2571TIP3    H229205   6.026   3.899   3.280 -0.4729  1.2446 -0.8460
 2572TIP3   OH229206   3.191   0.913  14.364  0.4314 -0.2095 -0.0480
 2572TIP3    H129207   3.131   0.976  14.405 -0.8561 -0.2630 -1.7172
 2572TIP3    H229208   3.153   0.897  14.277  2.3647 -1.0070 -0.8111
 2573TIP3   OH229209   1.352   2.880   2.423  0.1312 -0.5330  0.4029
 2573TIP3    H129210   1.407   2.929   2.361  0.2770 -0.7443  0.3634
 2573TIP3    H229211   1.406   2.806   2.449 -1.0717 -2.2527 -1.6685
 2574TIP3   OH229212   3.534   6.692   5.721 -0.3171 -0.3538 -0.3006
 2574TIP3    H129213   3.621   6.731   5.709  0.2431 -1.6502 -0.6633
 2574TIP3    H229214   3.552   6.604   5.754 -1.5552 -0.2193  0.8186
 2575TIP3   OH229215   6.739   3.873   1.213 -0.0421 -0.0554  0.0724
 2575TIP3    H129216   6.700   3.950   1.171 -0.1802  0.6079  1.3701
 2575TIP3    H229217   6.818   3.907   1.255 -1.6413  0.0945  3.2311
 2576TIP3   OH229218   2.753   3.706   3.712  0.0082  0.6566 -0.1107
 2576TIP3    H129219   2.737   3.654   3.790  0.0729 -0.8214 -1.0320
 2576TIP3    H229220   2.823   3.659   3.666 -0.5705  1.0554 -1.4407
 2577TIP3   OH229221   4.032   6.456   0.815 -0.3566 -0.0189 -0.0148
 2577TIP3    H129222   4.042   6.373   0.862 -2.6128  0.2044  1.0135
 2577TIP3    H229223   4.044   6.524   0.881 -0.5317  0.4026 -0.4018
 2578TIP3   OH229224   6.704   0.350  15.326 -0.6162  0.0953 -0.4907
 2578TIP3    H129225   6.781   0.404  15.343 -0.4079  0.4557 -2.3581
 2578TIP3    H229226   6.630   0.403  15.355 -0.3118  0.7355 -0.8659
 2579TIP3   OH229227   4.679   5.286  10.852  0.4051  0.0439 -0.7295
 2579TIP3    H129228   4.656   5.205  10.807 -0.9182 -0.6610  1.0915
 2579TIP3    H229229   4.597   5.334  10.860  0.8537  0.7539 -0.2176
 2580TIP3   OH229230   4.020   5.342  11.671 -0.2316  0.1878 -0.4917
 2580TIP3    H129231   4.015   5.248  11.690  0.2030 -0.0263 -1.3725
 2580TIP3    H229232   3.957   5.356  11.601 -0.9077  0.7234  0.2105
 2581TIP3   OH229233   0.781   3.892   4.915 -0.5959  0.4572  0.2368
 2581TIP3    H129234   0.692   3.907   4.882 -0.6545  0.3185  0.3330
 2581TIP3    H229235   0.787   3.797   4.928 -0.7075  0.5488  1.0022
 2582TIP3   OH229236   0.920   1.295  13.652  0.2285  0.1357 -0.3476
 2582TIP3    H129237   1.015   1.307  13.645  0.4357 -0.9282  0.3763
 2582TIP3    H229238   0.907   1.200  13.646 -0.7374  0.2273  0.0863
 2583TIP3   OH229239   6.423   3.729   5.773  0.9225 -0.8892 -0.0702
 2583TIP3    H129240   6.441   3.661   5.837  0.5610 -0.0148  0.9911
 2583TIP3    H229241   6.328   3.728   5.762  1.0325 -1.4802 -1.1209
 2584TIP3   OH229242   1.373   4.498  14.407 -0.2496 -0.1367 -0.5693
 2584TIP3    H129243   1.421   4.416  14.417 -2.3082 -1.3169  0.1599
 2584TIP3    H229244   1.295   4.488  14.462 -0.1354  2.6874  0.2909
 2585TIP3   OH229245   5.388   3.318  13.456 -0.3539  0.0461 -0.6421
 2585TIP3    H129246   5.348   3.375  13.390  0.8896  1.4021 -0.2643
 2585TIP3    H229247   5.375   3.365  13.538 -1.1819 -1.2544 -0.0050
 2586TIP3   OH229248   6.052   6.659   6.225  1.0327 -0.3719 -0.2362
 2586TIP3    H129249   5.998   6.609   6.286 -0.2814 -0.1347 -1.1529
 2586TIP3    H229250   6.133   6.608   6.216  0.4319 -1.4266  0.1741
 2587TIP3   OH229251   6.752   2.234   4.590 -1.0520 -0.3784 -0.5368
 2587TIP3    H129252   6.726   2.142   4.597  0.8079 -1.0918 -1.8561
 2587TIP3    H229253   6.730   2.258   4.500 -2.6423  0.8960  0.1535
 2588TIP3   OH229254   3.498   6.229   3.263  0.3330 -0.5440  0.0752
 2588TIP3    H129255   3.455   6.314   3.268 -0.4178 -0.6967 -2.3254
 2588TIP3    H229256   3.501   6.198   3.354 -3.8295 -0.1134  0.5518
 2589TIP3   OH229257   1.360   3.999  13.320 -0.1980 -0.5285 -0.5090
 2589TIP3    H129258   1.451   4.006  13.348 -0.4791 -0.9198  0.5439
 2589TIP3    H229259   1.354   3.912  13.280  0.1030 -0.1300 -1.4646
 2590TIP3   OH229260   6.094   6.609  11.358 -0.5398 -0.1626 -0.4293
 2590TIP3    H129261   6.024   6.606  11.423 -1.5740 -0.6803 -1.5460
 2590TIP3    H229262   6.139   6.525  11.367  0.3110  0.3676  0.6371
 2591TIP3   OH229263   5.878   2.033  15.396 -0.1930  0.3467 -1.0354
 2591TIP3    H129264   5.905   2.065  15.310  0.2468 -1.7067 -1.7185
 2591TIP3    H229265   5.860   1.940  15.383 -0.5834  0.0806  1.0029
 2592TIP3   OH229266   5.204   2.531  12.199 -0.0189 -0.0495 -0.0131
 2592TIP3    H129267   5.175   2.498  12.114 -0.2696 -0.9735  0.4087
 2592TIP3    H229268   5.261   2.461  12.234 -0.2110  0.1503  0.7272
 2593TIP3   OH229269   4.616   5.540  15.035  0.2173  0.2676  0.4689
 2593TIP3    H129270   4.612   5.479  15.108 -1.0702 -0.0893  0.1358
 2593TIP3    H229271   4.529   5.534  14.995  0.8750  0.4723 -1.0586
 2594TIP3   OH229272   1.131   0.751  11.933 -0.0895 -0.8352 -0.7019
 2594TIP3    H129273   1.170   0.682  11.880  1.1521 -0.3854 -0.4290
 2594TIP3    H229274   1.154   0.727  12.023 -1.4916 -1.1780 -0.4228
 2595TIP3   OH229275   3.234   3.983  12.005  0.7929 -0.3018  0.0525
 2595TIP3    H129276   3.292   3.958  12.077  1.8945  1.0539 -0.3164
 2595TIP3    H229277   3.279   4.056  11.962 -0.8384  0.2976 -0.7241
 2596TIP3   OH229278   1.594   6.163   4.394 -0.1373  0.6959 -1.1408
 2596TIP3    H129279   1.628   6.170   4.305  0.0468 -0.1082 -1.1435
 2596TIP3    H229280   1.504   6.130   4.383  0.2850 -0.5615 -0.9952
 2597TIP3   OH229281   2.327   4.378  13.560  0.2341 -0.1966  0.5850
 2597TIP3    H129282   2.232   4.383  13.565  0.1480 -1.3167  0.3321
 2597TIP3    H229283   2.345   4.338  13.475  0.9960  1.1974  0.0501
 2598TIP3   OH229284   6.438   3.375  15.326 -0.7120  1.2045  0.2152
 2598TIP3    H129285   6.430   3.341  15.415 -0.8149 -0.7153 -0.4872
 2598TIP3    H229286   6.519   3.426  15.328 -0.7772  1.2996  1.4304
 2599TIP3   OH229287   4.769   3.556  15.042 -0.2329 -0.0045 -0.0542
 2599TIP3    H129288   4.735   3.528  15.127  1.0459 -0.5283  0.3180
 2599TIP3    H229289   4.780   3.475  14.993  0.4883  0.1429 -0.1443
 2600TIP3   OH229290   4.964   0.513  16.997 -0.9905 -0.1141 -0.6631
 2600TIP3    H129291   4.952   0.583  16.933 -3.0214 -0.3759 -0.6305
 2600TIP3    H229292   4.939   0.433  16.950 -0.9904 -0.5084 -0.0018
 2601TIP3   OH229293   2.876   6.281   1.863  0.2060 -0.3729 -0.2312
 2601TIP3    H129294   2.854   6.374   1.852  2.3673  0.3083  0.8315
 2601TIP3    H229295   2.870   6.266   1.957  1.7788 -0.7825 -0.1772
 2602TIP3   OH229296   2.013   5.668   6.123 -0.2066  0.9811 -0.8257
 2602TIP3    H129297   2.092   5.718   6.144 -0.5074  1.0649  0.1919
 2602TIP3    H229298   1.995   5.618   6.203 -0.4527 -0.0374 -1.5015
 2603TIP3   OH229299   2.545   1.684   0.055 -0.3198  0.4337  0.0505
 2603TIP3    H129300   2.461   1.654   0.092  0.0077  0.0569  0.5033
 2603TIP3    H229301   2.520   1.733  -0.023 -0.9917  0.7003  0.4202
 2604TIP3   OH229302   5.390   3.966   1.645 -0.1006 -0.0770  0.4411
 2604TIP3    H129303   5.473   3.974   1.598  0.4947 -1.0690  1.2729
 2604TIP3    H229304   5.410   3.996   1.733 -1.4889  2.8651 -0.1239
 2605TIP3   OH229305   4.552   0.575  16.637 -0.3613 -0.2291  0.3747
 2605TIP3    H129306   4.520   0.513  16.572  0.0871 -0.0397 -0.0263
 2605TIP3    H229307   4.514   0.659  16.611  0.6651  0.0469 -0.2515
 2606TIP3   OH229308   6.418   4.705  13.427 -0.3476  0.5219  0.5064
 2606TIP3    H129309   6.510   4.731  13.420 -0.0240 -0.7343 -0.5728
 2606TIP3    H229310   6.413   4.654  13.508  0.3540 -0.9207 -0.3187
 2607TIP3   OH229311   3.503   1.722   2.191  0.0663 -0.2393 -0.2308
 2607TIP3    H129312   3.470   1.812   2.197  1.3130  0.4045 -1.8947
 2607TIP3    H229313   3.490   1.685   2.278 -0.4571  1.5661  0.5061
 2608TIP3   OH229314   5.768   0.418   2.335  0.1226 -0.0694  0.2788
 2608TIP3    H129315   5.810   0.334   2.351  0.7490 -0.3604 -2.4511
 2608TIP3    H229316   5.679   0.396   2.308  0.7223 -0.0370 -1.9119
 2609TIP3   OH229317   4.247   4.844  10.395 -0.6004  0.4657 -0.4707
 2609TIP3    H129318   4.293   4.789  10.459 -3.3007 -0.3656  0.9241
 2609TIP3    H229319   4.242   4.930  10.436 -1.6628  0.1316  0.1250
 2610TIP3   OH229320   5.649   0.978  12.000  0.3204  0.3897  0.5065
 2610TIP3    H129321   5.585   1.039  12.036  0.1497  0.9354 -0.6625
 2610TIP3    H229322   5.697   0.944  12.076 -2.4622 -1.3743  1.6303
 2611TIP3   OH229323   5.485   1.727  11.731 -0.4630  0.5260 -0.6430
 2611TIP3    H129324   5.401   1.750  11.772 -0.7438  0.0203 -0.9357
 2611TIP3    H229325   5.507   1.804  11.678  0.2474  1.4875  0.9663
 2612TIP3   OH229326   2.808   2.292  13.061  0.1557  0.6876 -0.2461
 2612TIP3    H129327   2.752   2.269  13.136 -0.5854  1.2003 -0.6311
 2612TIP3    H229328   2.857   2.369  13.091 -0.5847  1.2648 -0.4847
 2613TIP3   OH229329   2.314   6.145   3.266  0.1499  0.0993 -0.4378
 2613TIP3    H129330   2.308   6.227   3.218 -0.2040  0.4198  0.1451
 2613TIP3    H229331   2.402   6.144   3.302  0.3663 -0.0741 -0.9617
 2614TIP3   OH229332   2.074   5.261   0.362 -0.4008 -0.0017  0.2146
 2614TIP3    H129333   2.108   5.189   0.414 -0.5774 -1.7364 -1.9259
 2614TIP3    H229334   2.057   5.331   0.425  0.9977 -1.3520  2.1958
 2615TIP3   OH229335   2.983   1.018  16.621  0.2479  0.0249 -0.5124
 2615TIP3    H129336   2.943   1.045  16.539  0.5201  0.5521 -0.4707
 2615TIP3    H229337   2.933   1.063  16.689  0.8903  0.6671 -0.4575
 2616TIP3   OH229338   4.460   1.684  16.653  0.6125  0.3937 -0.0815
 2616TIP3    H129339   4.394   1.670  16.721  1.2608  0.6369  0.6094
 2616TIP3    H229340   4.458   1.604  16.601  1.2040 -0.4515  1.1657
 2617TIP3   OH229341   2.195   1.157   4.014  0.4390  0.2103  0.1400
 2617TIP3    H129342   2.287   1.160   4.040  0.7951 -0.0137 -1.0460
 2617TIP3    H229343   2.157   1.089   4.070  1.1047 -0.0366  0.3034
 2618TIP3   OH229344   1.381   4.820   1.212  0.5344 -0.2879 -0.7669
 2618TIP3    H129345   1.335   4.793   1.132  0.7418  0.7103 -1.2366
 2618TIP3    H229346   1.425   4.902   1.188  2.6139 -1.2268 -0.3566
 2619TIP3   OH229347   3.516   2.043  16.594 -0.2414  0.1483  0.0204
 2619TIP3    H129348   3.541   1.985  16.523 -0.4885 -1.4943  1.2224
 2619TIP3    H229349   3.448   2.099  16.557  0.1701 -0.1730 -1.2385
 2620TIP3   OH229350   4.969   4.625   1.683 -0.3952  0.1323  0.9720
 2620TIP3    H129351   5.048   4.593   1.726 -0.1602  0.3282  0.6865
 2620TIP3    H229352   4.951   4.709   1.725  0.2417  0.6654  0.2022
 2621TIP3   OH229353   4.278   4.248  10.936 -1.0000  0.1234 -0.5970
 2621TIP3    H129354   4.305   4.211  10.852 -1.3610 -0.4342 -0.4723
 2621TIP3    H229355   4.352   4.303  10.962 -1.2874  1.1067 -1.7532
 2622TIP3   OH229356   4.819   0.477   1.573 -0.0050  0.0299 -0.3892
 2622TIP3    H129357   4.883   0.454   1.505  0.2579 -0.0443 -0.1146
 2622TIP3    H229358   4.792   0.567   1.551 -1.1511 -0.5538 -1.5608
 2623TIP3   OH229359   2.637   1.520  13.324  0.3913  0.2033 -0.5125
 2623TIP3    H129360   2.633   1.489  13.414  3.1855  0.0697 -0.3284
 2623TIP3    H229361   2.575   1.466  13.276 -0.2751 -0.5292  1.1200
 2624TIP3   OH229362   2.736   0.369  12.757  0.4312 -0.4784  0.2118
 2624TIP3    H129363   2.736   0.403  12.846 -2.2493 -0.1539  0.1854
 2624TIP3    H229364   2.747   0.446  12.702 -1.7869 -0.0676  0.2440
 2625TIP3   OH229365   4.802   5.240  16.455  0.1626 -0.0158  0.1003
 2625TIP3    H129366   4.897   5.246  16.447  0.3690 -1.5199  1.0660
 2625TIP3    H229367   4.774   5.195  16.375  0.3113  0.0063  0.0352
 2626TIP3   OH229368   4.799   6.183  12.370 -0.0370  0.0867 -0.7516
 2626TIP3    H129369   4.783   6.170  12.463 -1.0487  1.8699 -0.6298
 2626TIP3    H229370   4.808   6.095  12.334 -1.4173 -0.7146  0.7366
 2627TIP3   OH229371   0.794   6.363   4.731 -0.1983 -0.4048  0.6082
 2627TIP3    H129372   0.872   6.407   4.700  0.0371 -1.0533  0.2622
 2627TIP3    H229373   0.820   6.271   4.741 -0.5152 -0.3767  1.8596
 2628TIP3   OH229374   0.072   3.758   5.013 -0.0113 -0.3334 -0.3158
 2628TIP3    H129375   0.095   3.845   5.045  0.3135 -0.8607  0.9841
 2628TIP3    H229376  -0.023   3.757   5.012 -0.0163  0.2870 -1.0902
 2629TIP3   OH229377   4.911   3.831  11.695  0.0284 -0.4936  0.0356
 2629TIP3    H129378   4.961   3.910  11.675 -2.7735  1.3908 -0.1646
 2629TIP3    H229379   4.926   3.816  11.789  0.4751  0.4042  0.1143
 2630TIP3   OH229380   3.610   0.592  15.314  0.1270  0.3750 -0.1079
 2630TIP3    H129381   3.683   0.637  15.356  1.0942 -0.9173 -0.3536
 2630TIP3    H229382   3.649   0.514  15.275 -1.3599 -0.2658 -0.3776
 2631TIP3   OH229383   5.132   2.311  15.100 -0.1237  0.0220 -0.0772
 2631TIP3    H129384   5.122   2.252  15.175  1.9138  0.0578  0.2672
 2631TIP3    H229385   5.132   2.398  15.139 -0.4142  0.1171 -0.2867
 2632TIP3   OH229386   6.546   0.412   5.360 -0.3045 -0.0038 -0.4548
 2632TIP3    H129387   6.598   0.346   5.315 -1.1374 -0.1563 -1.2274
 2632TIP3    H229388   6.521   0.475   5.292  0.8754  1.4028  0.3478
 2633TIP3   OH229389   0.439   1.973   4.040  0.4388  0.4261  0.2897
 2633TIP3    H129390   0.400   1.972   4.128 -0.7105 -1.5468 -0.1966
 2633TIP3    H229391   0.366   1.996   3.982  0.7098 -0.2497 -0.3317
 2634TIP3   OH229392   1.531   0.644   6.183  0.3091  0.5611 -0.3179
 2634TIP3    H129393   1.515   0.680   6.095  1.3537 -0.0507 -0.7744
 2634TIP3    H229394   1.483   0.561   6.184  1.2076  0.0201 -0.7328
 2635TIP3   OH229395   5.931   2.092   1.991 -0.2738 -0.1164  0.0662
 2635TIP3    H129396   5.917   2.142   2.072 -1.2454  1.0119 -0.7658
 2635TIP3    H229397   5.985   2.149   1.936  1.3291 -1.3379  0.3059
 2636TIP3   OH229398   3.179   3.180   1.431 -0.6802 -0.3268  0.3932
 2636TIP3    H129399   3.095   3.161   1.471 -0.1910  0.8443  2.0477
 2636TIP3    H229400   3.173   3.272   1.405 -0.8735 -0.9577 -2.0527
 2637TIP3   OH229401   4.187   6.772  11.283  0.4311 -0.6480  0.0579
 2637TIP3    H129402   4.120   6.804  11.223  2.1289  2.8838 -0.2029
 2637TIP3    H229403   4.199   6.680  11.258 -3.2367 -1.0711 -0.7415
 2638TIP3   OH229404   4.425   5.148  15.021  1.0915  0.1159  0.9214
 2638TIP3    H129405   4.410   5.168  15.114  0.7928  1.2883  0.6373
 2638TIP3    H229406   4.519   5.162  15.009  1.3120 -0.9707  1.2472
 2639TIP3   OH229407   5.353   5.545   1.098 -0.1423 -0.2098 -0.1570
 2639TIP3    H129408   5.339   5.625   1.047  0.3355 -1.3316 -2.1202
 2639TIP3    H229409   5.448   5.533   1.098 -0.2424 -1.0034 -0.2391
 2640TIP3   OH229410   4.487   6.299   4.556 -0.8195  0.2588 -0.2093
 2640TIP3    H129411   4.537   6.361   4.610 -1.7642  0.0058  1.0022
 2640TIP3    H229412   4.396   6.311   4.583 -1.1334 -0.9955 -0.6248
 2641TIP3   OH229413   5.599   2.609   4.179 -0.1300 -0.0120  0.8308
 2641TIP3    H129414   5.649   2.678   4.136  3.2162 -2.0325  1.1180
 2641TIP3    H229415   5.614   2.623   4.273 -0.5960 -0.3144  0.9568
 2642TIP3   OH229416   3.467   4.428   1.752 -0.3078  0.1106  0.3422
 2642TIP3    H129417   3.496   4.365   1.818  0.8101 -1.6554 -1.7164
 2642TIP3    H229418   3.537   4.429   1.687 -1.8330  0.9399 -1.3822
 2643TIP3   OH229419   2.463   1.432  16.442 -0.5648  0.2626 -0.1843
 2643TIP3    H129420   2.461   1.450  16.535 -1.8401  0.3635 -0.2059
 2643TIP3    H229421   2.403   1.358  16.430  1.1831 -1.1632 -0.6718
 2644TIP3   OH229422   5.223   1.231  15.318 -0.2811  0.3315  0.0087
 2644TIP3    H129423   5.148   1.181  15.349  1.6697 -2.0817  1.1824
 2644TIP3    H229424   5.270   1.170  15.260  2.4690  0.4732  1.8838
 2645TIP3   OH229425   1.055   5.685   4.331 -0.7559 -0.2934  0.5815
 2645TIP3    H129426   1.005   5.657   4.408  0.0599  0.3086  1.3542
 2645TIP3    H229427   1.087   5.604   4.292 -0.0749 -0.5551  1.6447
 2646TIP3   OH229428   1.541   4.347  15.268  0.5280 -0.5166 -0.0586
 2646TIP3    H129429   1.578   4.274  15.318  2.2419 -0.5745 -1.3022
 2646TIP3    H229430   1.452   4.357  15.302  1.2007 -1.3283  2.0998
 2647TIP3   OH229431   1.447   0.261   3.300  0.1931  0.7176 -0.0432
 2647TIP3    H129432   1.363   0.216   3.311  0.8562 -0.9859 -1.4334
 2647TIP3    H229433   1.471   0.288   3.388 -0.9454 -0.4267  0.6543
 2648TIP3   OH229434   1.989   3.249  16.818  0.1037  0.5097  0.0334
 2648TIP3    H129435   1.975   3.322  16.758 -0.8363 -1.1834 -1.9589
 2648TIP3    H229436   1.968   3.171  16.766 -0.5358 -1.0970  2.5175
 2649TIP3   OH229437   1.720   3.620   4.797  0.0414 -0.0199 -0.4027
 2649TIP3    H129438   1.747   3.529   4.812  0.9853  0.3114 -0.0308
 2649TIP3    H229439   1.755   3.668   4.872  0.0346  0.7468 -0.8775
 2650TIP3   OH229440   1.974   0.200   6.061 -0.8358 -0.6586 -0.4451
 2650TIP3    H129441   1.930   0.204   5.976 -0.6466  1.1570 -0.5082
 2650TIP3    H229442   2.055   0.249   6.048 -0.1107 -1.5937  0.4152
 2651TIP3   OH229443   4.626   2.392  17.022 -0.2040  0.4673  0.2136
 2651TIP3    H129444   4.706   2.410  16.973 -1.6608  1.7126 -1.9269
 2651TIP3    H229445   4.625   2.297  17.034  0.6967  0.2254 -1.3717
 2652TIP3   OH229446   2.855   0.979  10.497  0.3653  0.9130 -0.0287
 2652TIP3    H129447   2.929   0.933  10.537  1.6563  0.0859 -3.1002
 2652TIP3    H229448   2.840   0.934  10.414 -2.6705  1.9929 -0.2005
 2653TIP3   OH229449   3.584   4.388  14.958 -0.2818 -0.1027  0.0223
 2653TIP3    H129450   3.547   4.322  14.900 -2.3345  0.9895  0.0006
 2653TIP3    H229451   3.631   4.338  15.025 -0.2354 -1.4780 -1.0043
 2654TIP3   OH229452   1.522   4.734  14.666 -0.2457  0.6760 -0.2695
 2654TIP3    H129453   1.452   4.681  14.703  0.1467  0.6723  0.4786
 2654TIP3    H229454   1.594   4.673  14.652  0.2072  0.9913  0.5937
 2655TIP3   OH229455   6.680   0.680   4.501 -0.2219 -0.1509 -0.5556
 2655TIP3    H129456   6.650   0.642   4.583  1.2016  1.5521  0.8543
 2655TIP3    H229457   6.692   0.605   4.442 -2.1992 -1.3153  0.4365
 2656TIP3   OH229458   4.027   0.055  13.911  0.0391  0.0950 -0.1931
 2656TIP3    H129459   4.089   0.024  13.845  0.4912  1.6084 -0.5148
 2656TIP3    H229460   3.967   0.113  13.863 -0.2873  0.3627  0.5207
 2657TIP3   OH229461   5.511   0.004  11.660 -0.1767 -0.4026 -0.2056
 2657TIP3    H129462   5.497   0.002  11.565  0.0271 -1.9510 -0.2267
 2657TIP3    H229463   5.457  -0.068  11.694  2.2140 -2.0296  0.4676
 2658TIP3   OH229464   0.455   4.015   5.547  0.4858 -0.6250 -0.7963
 2658TIP3    H129465   0.377   3.970   5.580  0.0743 -0.3976 -1.4355
 2658TIP3    H229466   0.508   3.946   5.507  1.8841 -1.2392  1.8792
 2659TIP3   OH229467   0.002   5.332  10.483  0.2868  0.4376  0.0625
 2659TIP3    H129468  -0.080   5.380  10.470  0.0094  0.0511  0.3595
 2659TIP3    H229469  -0.002   5.259  10.421  1.3213  1.5261 -1.3791
 2660TIP3   OH229470   2.719   6.562   4.159  0.1930  0.6410 -0.1182
 2660TIP3    H129471   2.760   6.476   4.148  1.8071  1.1116  1.6101
 2660TIP3    H229472   2.778   6.622   4.113  0.8397  1.1695  1.3278
 2661TIP3   OH229473   4.484   4.373   2.179 -0.1419  0.4701 -0.1016
 2661TIP3    H129474   4.576   4.365   2.156 -0.1452  2.1824 -0.8741
 2661TIP3    H229475   4.438   4.317   2.117  0.2825  0.6532 -0.5788
 2662TIP3   OH229476   5.153   1.016   0.152  0.9010  0.2383  0.3674
 2662TIP3    H129477   5.141   0.924   0.172  1.4379  0.2444  0.7302
 2662TIP3    H229478   5.233   1.020   0.100  0.8727  0.5003  0.3380
 2663TIP3   OH229479   2.000   1.250   1.340  0.3702  0.1228  0.7344
 2663TIP3    H129480   2.031   1.188   1.274 -0.6777 -1.3003  1.5199
 2663TIP3    H229481   2.048   1.330   1.322  0.9283 -0.5647 -1.0450
 2664TIP3   OH229482   1.324   6.217  13.801 -0.1851  0.3016  0.2472
 2664TIP3    H129483   1.400   6.235  13.856 -0.3287  0.0659  0.5229
 2664TIP3    H229484   1.327   6.285  13.734 -0.2647  0.8754  0.8114
 2665TIP3   OH229485   2.097   3.512  16.037  0.0485  0.4789  0.4841
 2665TIP3    H129486   2.132   3.501  16.125 -0.8605  0.8471  0.9062
 2665TIP3    H229487   2.166   3.559  15.989  2.1784 -2.9214 -0.1356
 2666TIP3   OH229488   3.033   5.214  11.784  0.2140 -0.0353 -0.6186
 2666TIP3    H129489   3.002   5.200  11.695 -0.3450  0.4636 -0.5095
 2666TIP3    H229490   2.960   5.189  11.840  0.0245  1.0452 -0.3538
 2667TIP3   OH229491   3.155   4.938   0.169 -0.4931  0.5579  0.7993
 2667TIP3    H129492   3.069   4.902   0.147 -0.3283  0.0725  0.9288
 2667TIP3    H229493   3.156   4.941   0.265  0.7793 -2.4044  0.9836
 2668TIP3   OH229494   6.442   5.413  16.437 -0.1419  0.4143 -0.2329
 2668TIP3    H129495   6.378   5.406  16.366  0.6096 -0.3590 -0.8543
 2668TIP3    H229496   6.494   5.490  16.414 -1.2220  1.4515  0.6219
 2669TIP3   OH229497   1.357   2.821  16.489 -0.4386 -0.0829  0.1566
 2669TIP3    H129498   1.344   2.777  16.573  0.4623  0.7727  0.7733
 2669TIP3    H229499   1.319   2.762  16.424 -1.7734 -0.4400  1.2250
 2670TIP3   OH229500   4.861   1.222  16.013  0.1717 -0.2533 -0.4378
 2670TIP3    H129501   4.771   1.254  16.021 -0.2559 -1.4073 -0.3288
 2670TIP3    H229502   4.864   1.145  16.070  1.1850 -0.3169 -0.5551
 2671TIP3   OH229503   5.597   3.483  14.059 -0.2217  0.2712  0.2597
 2671TIP3    H129504   5.671   3.481  13.998 -1.6768 -0.8503 -1.5899
 2671TIP3    H229505   5.570   3.575  14.062 -0.5964  0.2537 -1.4694
 2672TIP3   OH229506   4.290   1.626  16.866 -0.0424  0.2298  0.1986
 2672TIP3    H129507   4.245   1.568  16.927 -3.4345  1.4257 -0.9486
 2672TIP3    H229508   4.322   1.698  16.921  3.6201 -2.1215  1.5186
 2673TIP3   OH229509   4.923   3.649  12.356  0.1719  0.0453 -0.1621
 2673TIP3    H129510   4.907   3.738  12.388 -0.3174  0.3883 -1.3206
 2673TIP3    H229511   4.998   3.658  12.298 -0.5966 -0.0673 -1.2034
 2674TIP3   OH229512   4.128   5.621   2.806  0.6380 -0.2729  0.3584
 2674TIP3    H129513   4.159   5.582   2.724  0.9435 -1.6923  1.1295
 2674TIP3    H229514   4.159   5.562   2.874 -1.6596 -0.4329  1.3454
 2675TIP3   OH229515   6.228   3.428  13.538  0.9084 -0.1535  0.2990
 2675TIP3    H129516   6.211   3.458  13.627 -1.0235 -0.0372 -0.0653
 2675TIP3    H229517   6.220   3.333  13.542 -1.0929 -0.0263 -0.0884
 2676TIP3   OH229518   4.608   0.151   2.864  0.3366 -0.0759 -0.3639
 2676TIP3    H129519   4.633   0.076   2.918  0.9878  0.1367 -0.3668
 2676TIP3    H229520   4.545   0.116   2.801 -0.4273 -0.3319  0.5222
 2677TIP3   OH229521   4.965   5.734  14.578  0.1424 -0.0897 -0.5427
 2677TIP3    H129522   5.001   5.706  14.662  0.1110 -0.6667 -0.7179
 2677TIP3    H229523   4.978   5.659  14.519 -0.9976 -0.1845 -0.7086
 2678TIP3   OH229524   1.621   0.095   6.198 -0.4787 -0.0001 -0.0624
 2678TIP3    H129525   1.559   0.045   6.252 -1.6253 -0.3305 -1.6392
 2678TIP3    H229526   1.600   0.071   6.108  2.5012 -0.7580 -0.6500
 2679TIP3   OH229527   0.574   1.443  15.459 -0.0443  0.0757 -0.3879
 2679TIP3    H129528   0.608   1.455  15.548 -0.3326 -0.3393 -0.2138
 2679TIP3    H229529   0.587   1.350  15.441  1.6464  0.4780 -1.4850
 2680TIP3   OH229530   1.063   1.003  12.644 -0.2052 -0.1748  0.0662
 2680TIP3    H129531   1.022   0.929  12.599 -1.7914  0.6734  0.0376
 2680TIP3    H229532   1.058   1.075  12.581 -0.3983  0.4405  0.7726
 2681TIP3   OH229533   6.707   1.577  13.320  0.3164 -0.3054  0.4239
 2681TIP3    H129534   6.741   1.507  13.376  1.4946  0.1031  0.2443
 2681TIP3    H229535   6.717   1.657  13.373 -1.6478 -0.3099  0.9001
 2682TIP3   OH229536   3.624   4.782  11.990  0.6571  0.2542 -0.2648
 2682TIP3    H129537   3.633   4.701  11.939  1.1459 -0.4426  0.8943
 2682TIP3    H229538   3.544   4.770  12.041  0.9804  0.3019  0.2563
 2683TIP3   OH229539   4.369   3.748  10.825 -0.2353 -0.5040 -0.2844
 2683TIP3    H129540   4.300   3.786  10.769 -0.4873 -0.5027  0.0249
 2683TIP3    H229541   4.446   3.802  10.807 -0.0848 -1.0129 -1.2549
 2684TIP3   OH229542   0.981   1.039  11.962  0.1170  0.3995 -0.2881
 2684TIP3    H129543   0.970   0.963  11.905  0.8911  0.7085 -0.8753
 2684TIP3    H229544   0.962   1.114  11.906  1.9389  0.7694 -0.5004
 2685TIP3   OH229545   5.151   0.410   2.532 -0.4025 -0.8079 -0.3562
 2685TIP3    H129546   5.149   0.373   2.620 -0.3128 -2.0781 -0.8599
 2685TIP3    H229547   5.172   0.335   2.475 -1.6879 -0.2831 -1.5798
 2686TIP3   OH229548   6.628   1.071   5.367 -0.2485  0.7630  0.0892
 2686TIP3    H129549   6.668   1.090   5.451  0.8440  0.3713 -0.3299
 2686TIP3    H229550   6.655   0.981   5.347 -1.5252  0.4025 -0.1053
 2687TIP3   OH229551   1.513   3.399   5.544  0.2565 -0.0979 -0.2774
 2687TIP3    H129552   1.542   3.451   5.619  0.9678 -0.9210  0.0429
 2687TIP3    H229553   1.482   3.463   5.480  0.9025  0.6962  0.1874
 2688TIP3   OH229554   6.162   1.597  16.536  0.2570 -0.2428  0.1242
 2688TIP3    H129555   6.164   1.645  16.618 -1.0990 -0.0624  0.0678
 2688TIP3    H229556   6.231   1.638  16.483  1.6916 -0.8773  1.4117
 2689TIP3   OH229557   3.224   4.043  15.276 -0.5370  0.0748  0.1491
 2689TIP3    H129558   3.213   3.959  15.231  0.3524  0.3227 -0.5343
 2689TIP3    H229559   3.134   4.075  15.288 -0.8614 -0.7458  0.0037
 2690TIP3   OH229560   1.756   5.808   1.119 -0.5356 -0.1400 -0.1104
 2690TIP3    H129561   1.738   5.734   1.176  0.8368 -0.7427 -0.4057
 2690TIP3    H229562   1.851   5.806   1.105 -0.7765  0.1099 -2.2097
 2691TIP3   OH229563   3.115   1.165   3.473  0.0287 -0.0192 -0.3656
 2691TIP3    H129564   3.196   1.117   3.458  1.3994  1.4540  1.6684
 2691TIP3    H229565   3.073   1.119   3.547  0.1723  0.5210  0.0605
 2692TIP3   OH229566   0.097   2.726   3.816 -0.4506 -0.8001 -0.4935
 2692TIP3    H129567   0.021   2.699   3.765  0.8067 -0.6611 -2.5271
 2692TIP3    H229568   0.154   2.649   3.819 -0.0068 -0.4711 -0.2348
 2693TIP3   OH229569   5.681   1.474   3.825 -0.0026  0.3787  0.1551
 2693TIP3    H129570   5.602   1.419   3.816 -0.3363  0.4831  1.9880
 2693TIP3    H229571   5.694   1.512   3.738 -0.3024 -1.8499 -0.9446
 2694TIP3   OH229572   6.118   2.806  11.227 -0.1592 -0.1135  0.1858
 2694TIP3    H129573   6.079   2.814  11.139 -0.4705 -0.0943  0.3231
 2694TIP3    H229574   6.211   2.821  11.213 -0.0797 -0.9457 -0.2736
 2695TIP3   OH229575   0.024   4.740  14.083 -0.3209  0.5797  0.2519
 2695TIP3    H129576   0.117   4.737  14.061 -0.6826  1.1868 -1.5280
 2695TIP3    H229577  -0.008   4.821  14.043 -2.1584 -0.9340 -1.6181
 2696TIP3   OH229578   6.275   2.746   4.836  0.1432  0.2694  0.4692
 2696TIP3    H129579   6.241   2.664   4.803 -0.4079  0.1709  1.2521
 2696TIP3    H229580   6.291   2.730   4.930 -0.4519  1.1919  0.7457
 2697TIP3   OH229581   3.829   1.172  14.616  0.0945 -0.8186  0.0469
 2697TIP3    H129582   3.822   1.089  14.662 -0.3755 -0.2170  1.0769
 2697TIP3    H229583   3.851   1.236  14.684 -0.1807  0.0092 -0.6252
 2698TIP3   OH229584   3.892   1.608  10.892 -0.1838  0.4784 -0.2040
 2698TIP3    H129585   3.908   1.684  10.836  1.0046  0.0506 -0.4585
 2698TIP3    H229586   3.876   1.645  10.979  1.5690  0.9988 -0.0647
 2699TIP3   OH229587   5.391   5.883  15.212  0.6359 -0.0476  0.3780
 2699TIP3    H129588   5.435   5.967  15.221 -0.1434  0.3626  0.4365
 2699TIP3    H229589   5.297   5.904  15.214  0.4003 -0.6903 -1.5256
 2700TIP3   OH229590   1.747   6.580   3.237  0.0631  0.8240 -0.0947
 2700TIP3    H129591   1.802   6.514   3.279 -0.2066  0.9595  0.4814
 2700TIP3    H229592   1.729   6.544   3.150 -1.4121 -0.6531  0.7575
 2701TIP3   OH229593   1.732   6.727   1.213 -0.2490  0.6255 -0.1809
 2701TIP3    H129594   1.710   6.634   1.216  0.7749  0.3694 -0.3265
 2701TIP3    H229595   1.821   6.732   1.246 -0.6848  1.6989  0.9507
 2702TIP3   OH229596   5.502   3.994   3.414  0.1004  0.3269 -0.0827
 2702TIP3    H129597   5.562   3.934   3.457 -0.2498  0.7271  0.9877
 2702TIP3    H229598   5.515   3.977   3.320  2.7610  1.2286  0.0287
 2703TIP3   OH229599   3.287   2.412  11.320  0.6360  0.0869 -0.3027
 2703TIP3    H129600   3.258   2.391  11.409  1.2428  0.7832  0.0796
 2703TIP3    H229601   3.324   2.500  11.328  0.9383  0.0492 -1.1987
 2704TIP3   OH229602   6.696   3.475  13.223 -0.2376 -0.0253  0.7891
 2704TIP3    H129603   6.640   3.417  13.276  1.0409 -2.0059  0.1048
 2704TIP3    H229604   6.671   3.455  13.133 -0.1264  0.9104  0.5439
 2705TIP3   OH229605   3.960   4.194  11.477  0.1353  0.7135  0.4613
 2705TIP3    H129606   3.872   4.205  11.442  0.2816  1.3920  0.3048
 2705TIP3    H229607   4.011   4.266  11.439  1.4379 -1.1789 -1.6484
 2706TIP3   OH229608   2.248   5.740   3.131  0.2842  0.3010  0.2108
 2706TIP3    H129609   2.214   5.665   3.181  1.0116  0.0243  0.3072
 2706TIP3    H229610   2.330   5.708   3.093 -1.7240 -0.6102 -3.8732
 2707TIP3   OH229611   6.172   0.817   6.452  0.1190 -0.4638  0.1562
 2707TIP3    H129612   6.202   0.799   6.541  0.0724  1.5092  0.6122
 2707TIP3    H229613   6.227   0.762   6.397  1.8474  0.1201  1.2391
 2708TIP3   OH229614   6.334   3.039  16.766  0.1552 -0.2121  0.4159
 2708TIP3    H129615   6.271   3.105  16.795 -0.5361 -0.5181 -0.3649
 2708TIP3    H229616   6.330   3.042  16.671  0.0662 -1.4133  0.3672
 2709TIP3   OH229617   5.257   1.648   0.945  0.0825 -0.3529 -0.3091
 2709TIP3    H129618   5.310   1.727   0.932 -0.4301  0.0864  0.1824
 2709TIP3    H229619   5.235   1.650   1.038  0.3182 -1.2486 -0.2275
 2710TIP3   OH229620   6.614   3.179  14.079  0.0816 -0.2712 -0.0125
 2710TIP3    H129621   6.687   3.228  14.117  0.2587 -0.6209  0.1031
 2710TIP3    H229622   6.587   3.119  14.148 -1.1335  0.7067  0.3857
 2711TIP3   OH229623   3.428   2.030  16.031 -0.1566  0.2042  0.0229
 2711TIP3    H129624   3.473   2.022  15.946 -0.3011 -1.6939  0.0883
 2711TIP3    H229625   3.471   1.966  16.087 -1.0989  0.3444  0.9256
 2712TIP3   OH229626   2.873   5.675  13.257  0.5510 -0.3360  0.5475
 2712TIP3    H129627   2.781   5.647  13.253  0.0958  1.0914  0.2587
 2712TIP3    H229628   2.871   5.767  13.230  2.1023 -0.3301  0.3413
 2713TIP3   OH229629   2.428   3.218  12.026 -0.0309 -0.0207  0.0563
 2713TIP3    H129630   2.385   3.188  11.946 -1.2264 -0.4269  0.8220
 2713TIP3    H229631   2.410   3.312  12.030 -0.5438 -0.1196  0.1741
 2714TIP3   OH229632   4.038   2.491  14.678 -0.2828 -0.0939 -0.9760
 2714TIP3    H129633   3.979   2.416  14.673 -1.3778  0.5752  1.0392
 2714TIP3    H229634   4.066   2.493  14.769  1.0941  0.9478 -1.4027
 2715TIP3   OH229635   3.554   6.131   4.741  0.4037 -0.0435 -0.0455
 2715TIP3    H129636   3.650   6.130   4.748  0.3259  1.2915  2.3214
 2715TIP3    H229637   3.536   6.096   4.654  3.1222  1.8795 -1.5255
 2716TIP3   OH229638   2.343   3.908  16.852 -0.0317 -0.0888  0.5322
 2716TIP3    H129639   2.384   3.970  16.791 -1.5030  0.5191  0.1168
 2716TIP3    H229640   2.416   3.871  16.900  0.9185  2.5041  1.2949
 2717TIP3   OH229641   6.764   5.717  12.650  0.4631  0.5532 -0.2180
 2717TIP3    H129642   6.856   5.734  12.670  0.1917  1.1375  0.5733
 2717TIP3    H229643   6.721   5.802  12.654 -0.1904  0.2342 -0.1727
 2718TIP3   OH229644   5.272   6.613   5.279 -0.0813  0.1788  1.2626
 2718TIP3    H129645   5.263   6.575   5.191  0.9699  0.6441  0.9263
 2718TIP3    H229646   5.277   6.538   5.338  1.3932 -0.2207  0.6706
 2719TIP3   OH229647   3.608   0.657   2.378  0.1550  0.1532  0.6487
 2719TIP3    H129648   3.563   0.641   2.295 -0.1597  0.9152  0.6680
 2719TIP3    H229649   3.623   0.569   2.414  0.7490 -0.2097 -0.4456
 2720TIP3   OH229650   5.329   0.567  13.018 -0.0891  0.1246 -0.1322
 2720TIP3    H129651   5.398   0.584  13.081  0.7922  0.3899 -1.1382
 2720TIP3    H229652   5.365   0.501  12.959 -1.0350 -0.4015 -0.1480
 2721TIP3   OH229653   5.568   2.412   0.721  0.2672  0.1549 -0.5145
 2721TIP3    H129654   5.513   2.409   0.643  1.1883 -1.1753 -1.1570
 2721TIP3    H229655   5.571   2.504   0.745 -0.6185  0.4992 -1.6164
 2722TIP3   OH229656   0.120   3.860   2.579 -0.5987 -0.2016 -0.2205
 2722TIP3    H129657   0.136   3.898   2.493  1.4978 -2.2982 -0.8613
 2722TIP3    H229658   0.024   3.853   2.585 -0.9762  2.7524 -1.0152
 2723TIP3   OH229659   3.471   0.173   0.783  0.2309  0.4510  0.3392
 2723TIP3    H129660   3.542   0.109   0.793 -1.4077 -1.3703  1.1461
 2723TIP3    H229661   3.514   0.254   0.758  2.3821 -1.1260 -1.4213
 2724TIP3   OH229662   0.699   0.377  14.842 -0.3008  0.0133  0.2638
 2724TIP3    H129663   0.690   0.303  14.781  0.0699  0.8201 -0.8003
 2724TIP3    H229664   0.611   0.391  14.876 -0.7636  0.2701 -0.9824
 2725TIP3   OH229665   1.196   5.983   0.717  0.2300  0.1591 -0.1937
 2725TIP3    H129666   1.138   6.047   0.675 -0.1983  0.5129  0.9053
 2725TIP3    H229667   1.284   6.005   0.686  0.2275  1.9553  0.9369
 2726TIP3   OH229668   2.088   3.966  14.643 -0.0062 -0.0283  0.1473
 2726TIP3    H129669   2.066   3.892  14.700 -0.5324  0.0932  0.1125
 2726TIP3    H229670   2.074   3.933  14.554 -1.0025  0.3248  0.1482
 2727TIP3   OH229671   1.975   3.613   0.624 -0.6641 -0.0203 -0.6242
 2727TIP3    H129672   2.064   3.616   0.589  0.3311 -1.6787  1.5357
 2727TIP3    H229673   1.973   3.680   0.692 -0.7977 -0.5272 -0.1232
 2728TIP3   OH229674   6.476   4.903   4.515  0.0731  0.5676  0.4538
 2728TIP3    H129675   6.450   4.878   4.426 -0.3920 -0.3321  0.8308
 2728TIP3    H229676   6.547   4.843   4.537  0.1767  0.7791  0.7018
 2729TIP3   OH229677   2.786   1.625   3.457  0.6506  0.0448 -0.0515
 2729TIP3    H129678   2.816   1.545   3.500  0.3407 -1.1668 -1.9840
 2729TIP3    H229679   2.861   1.685   3.464  1.3147 -0.8120  0.4215
 2730TIP3   OH229680   5.844   3.524   4.247  0.2889  0.6751  0.4840
 2730TIP3    H129681   5.849   3.613   4.214  0.7414  0.3306 -0.4129
 2730TIP3    H229682   5.787   3.529   4.323  0.7162  1.8146  0.7375
 2731TIP3   OH229683   4.911   2.193   2.362 -0.2681  0.5429  0.0350
 2731TIP3    H129684   4.903   2.279   2.405  0.1391  0.6900 -0.1828
 2731TIP3    H229685   4.945   2.213   2.275 -1.0592  0.2387 -0.3461
 2732TIP3   OH229686   3.263   5.904   1.185  0.2501 -0.5993  0.1043
 2732TIP3    H129687   3.244   5.860   1.103 -0.9791 -1.2184  0.6875
 2732TIP3    H229688   3.341   5.860   1.219  0.7553 -0.3449 -0.7082
 2733TIP3   OH229689   0.176   5.046   0.693  0.2005 -0.0301 -0.0205
 2733TIP3    H129690   0.180   5.052   0.598 -0.6827 -0.2049 -0.0736
 2733TIP3    H229691   0.265   5.068   0.722  0.0681  1.6982 -0.7949
 2734TIP3   OH229692   4.526   3.245  16.866  0.9525 -0.7720  0.2536
 2734TIP3    H129693   4.525   3.159  16.824 -0.0194 -0.8662  0.4347
 2734TIP3    H229694   4.469   3.235  16.943  0.0536  0.2838 -0.2481
 2735TIP3   OH229695   0.102   2.774   2.543  0.3664  0.2083 -0.1404
 2735TIP3    H129696   0.175   2.826   2.508  0.8873 -1.9053 -2.5693
 2735TIP3    H229697   0.141   2.723   2.614 -0.0612  2.6552  2.0007
 2736TIP3   OH229698   2.318   2.533  12.875 -0.2555 -0.1625 -0.2640
 2736TIP3    H129699   2.399   2.510  12.920  0.7697  0.4260 -1.7641
 2736TIP3    H229700   2.333   2.621  12.840 -1.2289 -0.3704 -1.2701
 2737TIP3   OH229701   5.384   3.212   3.368 -0.2043  0.0603  0.1779
 2737TIP3    H129702   5.375   3.182   3.458  0.0410  1.2410  0.6068
 2737TIP3    H229703   5.300   3.192   3.328  0.2631 -2.1183  0.1317
 2738TIP3   OH229704   2.464   2.796  12.703 -0.4854 -0.0108  0.0051
 2738TIP3    H129705   2.418   2.880  12.709 -0.4710 -0.0436  0.5631
 2738TIP3    H229706   2.511   2.788  12.786  0.6419  0.0812 -0.6084
 2739TIP3   OH229707   5.916   1.868  12.120 -0.6539  0.1411  0.1175
 2739TIP3    H129708   5.884   1.778  12.127 -0.2726  0.1246  2.1291
 2739TIP3    H229709   6.003   1.859  12.082 -0.4408 -0.3919  0.7134
 2740TIP3   OH229710   3.584   2.388  10.767  0.0717 -0.9196  0.3769
 2740TIP3    H129711   3.588   2.418  10.857  1.6030  0.1000  0.0190
 2740TIP3    H229712   3.535   2.456  10.721  1.2728 -0.2394  0.0500
 2741TIP3   OH229713   4.345   1.806  12.406 -0.1359 -0.3910 -0.4634
 2741TIP3    H129714   4.423   1.800  12.350 -0.8403 -1.8636 -1.3542
 2741TIP3    H229715   4.277   1.839  12.348 -0.6283 -0.9342 -0.2008
 2742TIP3   OH229716   1.242   0.553  15.639 -0.3583 -0.0972  0.1411
 2742TIP3    H129717   1.208   0.615  15.703 -0.0060 -0.5196  0.7498
 2742TIP3    H229718   1.198   0.576  15.557 -1.9392 -0.4922  0.8482
 2743TIP3   OH229719   0.556   1.187  14.307  0.4925  0.1383  0.2857
 2743TIP3    H129720   0.556   1.281  14.326 -1.2386  0.7268 -2.1547
 2743TIP3    H229721   0.649   1.163  14.305  0.9278  1.2048  3.2198
 2744TIP3   OH229722   2.166   5.295   2.607  0.0385 -0.0887 -0.1587
 2744TIP3    H129723   2.080   5.278   2.569  0.5645  1.5050 -2.2560
 2744TIP3    H229724   2.222   5.226   2.571  0.0685  0.1612 -0.6127
 2745TIP3   OH229725   2.743   3.726   2.982 -0.1821  0.0058 -0.1726
 2745TIP3    H129726   2.773   3.816   2.966 -0.1946  0.0803  0.2041
 2745TIP3    H229727   2.815   3.685   3.030  0.7107 -0.8234 -2.1316
 2746TIP3   OH229728   5.432   5.803  10.888  0.3242  0.2672 -0.2374
 2746TIP3    H129729   5.367   5.872  10.874 -2.6086 -1.7083  2.2659
 2746TIP3    H229730   5.408   5.735  10.824  0.3391 -0.1782  0.2245
 2747TIP3   OH229731   2.452   4.374  16.250  0.3773  0.1546  0.0658
 2747TIP3    H129732   2.491   4.327  16.176  0.5904  0.9809 -0.3595
 2747TIP3    H229733   2.370   4.328  16.267  0.0145  0.3377 -1.1070
 2748TIP3   OH229734   0.897   5.511  13.738 -0.1549 -0.2672 -0.1005
 2748TIP3    H129735   0.848   5.522  13.657 -1.5056 -1.1948  0.5594
 2748TIP3    H229736   0.988   5.503  13.710 -0.3868  1.0726 -1.3826
 2749TIP3   OH229737   2.563   0.250  17.137 -0.0423  0.0003  0.3104
 2749TIP3    H129738   2.474   0.253  17.173 -0.2058  0.4469 -0.1318
 2749TIP3    H229739   2.613   0.198  17.201 -0.2144  1.1783  1.4434
 2750TIP3   OH229740   6.671   3.623  15.993 -0.0125  0.2362  0.3393
 2750TIP3    H129741   6.630   3.537  15.984 -1.3352  0.9382 -0.6508
 2750TIP3    H229742   6.652   3.668  15.911  0.4170  1.5814  0.9426
 2751TIP3   OH229743   0.393   1.447   3.906  0.4759 -0.3761 -0.0790
 2751TIP3    H129744   0.327   1.383   3.930  0.5198 -0.0603  0.9411
 2751TIP3    H229745   0.462   1.436   3.972  1.4054 -0.6500 -1.0776
 2752TIP3   OH229746   3.212   6.545   5.700  0.1419  0.6788  0.5300
 2752TIP3    H129747   3.252   6.586   5.776 -0.2767  1.9064  0.1129
 2752TIP3    H229748   3.121   6.576   5.701 -0.5891 -1.3246  0.9461
 2753TIP3   OH229749   4.566   6.641  16.316  0.3956 -0.1474 -0.4661
 2753TIP3    H129750   4.569   6.563  16.261 -1.7290  0.2972 -1.3040
 2753TIP3    H229751   4.523   6.707  16.261  0.3512  1.0205  0.9237
 2754TIP3   OH229752   6.228   3.237  11.130  0.7875  0.0991 -0.2447
 2754TIP3    H129753   6.212   3.323  11.169 -1.0805 -0.4593  0.3012
 2754TIP3    H229754   6.276   3.189  11.198 -0.1123  0.0066  0.3439
 2755TIP3   OH229755   3.046   1.783  12.541  0.0689 -0.0690 -0.6913
 2755TIP3    H129756   2.972   1.800  12.599  1.0924  0.8544  0.4116
 2755TIP3    H229757   3.008   1.740  12.464 -1.5934  0.4009 -0.1653
 2756TIP3   OH229758   4.545   3.805   1.673 -0.2731  0.8403  0.3395
 2756TIP3    H129759   4.632   3.802   1.633  0.1769  0.3512  1.3300
 2756TIP3    H229760   4.537   3.721   1.719 -0.8965  1.2720  1.0355
 2757TIP3   OH229761   2.359   1.042   1.109  0.0770 -0.1869  0.0459
 2757TIP3    H129762   2.410   1.019   1.031 -2.1980  0.3137 -1.7227
 2757TIP3    H229763   2.402   1.121   1.143 -0.6576  1.5818 -2.7182
 2758TIP3   OH229764   0.458   4.233   6.030  0.3132  0.1434 -0.0324
 2758TIP3    H129765   0.509   4.172   5.977 -2.9835 -3.2296  0.2406
 2758TIP3    H229766   0.496   4.226   6.118  0.0926 -1.5200 -0.0378
 2759TIP3   OH229767   0.590   0.134   4.636  0.3699 -0.2093  0.4052
 2759TIP3    H129768   0.646   0.171   4.568  0.2420 -1.0375 -0.1658
 2759TIP3    H229769   0.609   0.186   4.714 -0.6765  1.8455 -0.6333
 2760TIP3   OH229770   1.827   1.733   0.483 -0.3129  0.3424  0.4540
 2760TIP3    H129771   1.791   1.728   0.572  0.0352  3.7005  0.9066
 2760TIP3    H229772   1.871   1.818   0.480  0.5401 -0.1109 -2.6448
 2761TIP3   OH229773   5.374   1.827   4.024  0.7058 -0.8166 -0.5625
 2761TIP3    H129774   5.349   1.785   3.942  0.5498 -1.3095 -0.2677
 2761TIP3    H229775   5.382   1.755   4.086 -1.6870 -0.2515  0.5168
 2762TIP3   OH229776   5.365   6.767   4.020  0.2164  0.8444 -0.0199
 2762TIP3    H129777   5.327   6.841   4.068 -1.6650  0.4723 -0.8358
 2762TIP3    H229778   5.411   6.807   3.947 -1.5576  1.2567 -0.9831
 2763TIP3   OH229779   5.508   6.650  10.759  0.7922  0.0249 -0.1613
 2763TIP3    H129780   5.516   6.618  10.849  0.7184  1.5444  0.4232
 2763TIP3    H229781   5.596   6.682  10.738  0.5204  0.8245 -0.1401
 2764TIP3   OH229782   5.140   1.126  16.915 -0.5961 -0.1411  0.7846
 2764TIP3    H129783   5.065   1.068  16.902 -1.2200  0.6339  0.8700
 2764TIP3    H229784   5.166   1.153  16.827  1.5400 -2.7744  0.4653
 2765TIP3   OH229785   2.113   5.260  12.501  0.2144  0.2147  0.2852
 2765TIP3    H129786   2.078   5.172  12.484  1.2193 -0.3709  1.1765
 2765TIP3    H229787   2.207   5.248  12.507  0.2080  0.8728  3.0280
 2766TIP3   OH229788   2.904   3.387   2.348  0.1953 -0.7460  0.3861
 2766TIP3    H129789   2.982   3.403   2.402 -0.2699 -1.6468  1.3311
 2766TIP3    H229790   2.903   3.293   2.334 -0.6076 -0.7063  0.1622
 2767TIP3   OH229791   3.033   5.087  11.553 -0.1345 -0.0965  0.7252
 2767TIP3    H129792   3.119   5.074  11.592 -0.1787 -1.1050  0.5191
 2767TIP3    H229793   3.051   5.105  11.460 -0.1568 -1.2331  0.4767
 2768TIP3   OH229794   3.389   4.689  15.386  0.1460  0.0193  0.2413
 2768TIP3    H129795   3.427   4.774  15.409 -0.6354  0.2685  0.6180
 2768TIP3    H229796   3.300   4.708  15.358 -0.1434 -0.7126  0.6369
 2769TIP3   OH229797   2.081   1.650  12.625  0.1894 -1.0647 -0.2390
 2769TIP3    H129798   2.094   1.712  12.553 -0.4825 -0.1245  0.4393
 2769TIP3    H229799   1.987   1.648  12.638  0.3338 -0.8770  0.9232
 2770TIP3   OH229800   3.193   5.423  11.138  0.0569  0.9774  0.6632
 2770TIP3    H129801   3.171   5.380  11.221 -1.0937 -1.0600 -0.6090
 2770TIP3    H229802   3.113   5.470  11.114 -0.8994 -1.2692 -0.8932
 2771TIP3   OH229803   2.935   2.604  10.789 -0.0861  0.5801  0.7008
 2771TIP3    H129804   2.892   2.518  10.788 -0.7652  0.9131 -0.3094
 2771TIP3    H229805   2.918   2.640  10.702  0.0643  1.8042  1.1590
 2772TIP3   OH229806   4.801   1.757   5.480  0.0989 -0.1403 -0.0395
 2772TIP3    H129807   4.817   1.836   5.531  1.2584  1.2251 -2.3347
 2772TIP3    H229808   4.707   1.743   5.486 -0.7366  3.3609 -2.0460
 2773TIP3   OH229809   3.956   0.444  11.868  0.1618  0.3318 -0.7117
 2773TIP3    H129810   3.922   0.390  11.796 -1.6734 -0.0575  0.3751
 2773TIP3    H229811   4.032   0.396  11.900  0.4116  0.0050 -1.7498
 2774TIP3   OH229812   6.487   2.300  12.938 -0.2127  0.1551  0.1551
 2774TIP3    H129813   6.416   2.242  12.911 -0.4849  0.4188  0.3085
 2774TIP3    H229814   6.480   2.304  13.033 -1.6923  2.3269  0.0318
 2775TIP3   OH229815   0.614   4.483  12.073 -0.6986 -0.6002 -0.3195
 2775TIP3    H129816   0.661   4.413  12.028 -0.3623 -0.5385 -0.0708
 2775TIP3    H229817   0.673   4.511  12.143 -0.8674 -0.1307 -0.3566
 2776TIP3   OH229818   1.934   0.020   2.547  0.0429 -0.2977  0.4162
 2776TIP3    H129819   1.898  -0.054   2.497 -0.4606 -0.9150  1.6367
 2776TIP3    H229820   1.920   0.096   2.491  2.7334 -1.3829 -1.9417
 2777TIP3   OH229821   0.841   4.735   3.460 -0.1719  0.5704  0.5540
 2777TIP3    H129822   0.828   4.747   3.554 -0.5332  2.4498  0.3020
 2777TIP3    H229823   0.753   4.731   3.423 -0.0546  1.2969  0.1620
 2778TIP3   OH229824   3.382   3.528  14.561 -0.4645  0.5435 -0.1959
 2778TIP3    H129825   3.396   3.434  14.547 -1.0950  0.5369 -0.7804
 2778TIP3    H229826   3.470   3.562  14.580 -0.3556 -0.3098  0.9640
 2779TIP3   OH229827   3.369   1.344  14.292 -0.4519 -0.0873  0.0293
 2779TIP3    H129828   3.359   1.288  14.215 -1.4178  0.1042 -0.0023
 2779TIP3    H229829   3.447   1.311  14.336  1.3467  1.0494 -2.0647
 2780TIP3   OH229830   3.365   5.526  16.244  0.7176 -0.2722 -0.0711
 2780TIP3    H129831   3.388   5.619  16.254 -0.2151 -0.2764  3.0649
 2780TIP3    H229832   3.272   5.527  16.223  0.6588 -0.4994  0.1822
 2781TIP3   OH229833   5.321   3.787   5.954 -0.0516  0.5464  0.4519
 2781TIP3    H129834   5.363   3.703   5.973  0.6463  0.9988  0.9843
 2781TIP3    H229835   5.323   3.794   5.859  0.5956  0.3044  0.4406
 2782TIP3   OH229836   6.628   0.845  10.387 -0.3122  0.3587  0.1652
 2782TIP3    H129837   6.547   0.794  10.397 -0.4783 -0.0307 -2.3802
 2782TIP3    H229838   6.598   0.934  10.370 -0.1692  0.4023  0.1441
 2783TIP3   OH229839   1.959   6.358   2.503 -0.1597  0.5847  0.5442
 2783TIP3    H129840   2.000   6.374   2.588  2.5881 -1.1723 -0.3331
 2783TIP3    H229841   1.941   6.264   2.502  1.9692  0.0878 -1.5655
 2784TIP3   OH229842   5.190   3.859   0.646  0.1458 -0.3295 -0.1863
 2784TIP3    H129843   5.160   3.904   0.725  1.3067 -0.0139  0.0921
 2784TIP3    H229844   5.117   3.802   0.622  0.0151 -0.9298  1.4913
 2785TIP3   OH229845   4.780   4.919  10.641  0.3973 -0.1232 -0.0207
 2785TIP3    H129846   4.769   5.013  10.630 -1.5347 -0.3570 -0.4559
 2785TIP3    H229847   4.740   4.881  10.562  1.9721 -1.2978 -0.3053
 2786TIP3   OH229848   1.571   5.135   4.761 -0.2863 -0.8844  0.8429
 2786TIP3    H129849   1.555   5.120   4.854 -4.3835  1.6705  0.7975
 2786TIP3    H229850   1.619   5.218   4.758  1.3551 -1.7914  0.6049
 2787TIP3   OH229851   6.207   1.225  15.117  0.3717  0.3209 -0.6568
 2787TIP3    H129852   6.171   1.311  15.140  1.0527  0.5549 -0.4248
 2787TIP3    H229853   6.300   1.241  15.101  0.3834 -0.2684 -1.2360
 2788TIP3   OH229854   4.121   2.957  13.734  0.4626  0.3083  0.3735
 2788TIP3    H129855   4.200   2.951  13.786  1.7784  0.2215 -1.5233
 2788TIP3    H229856   4.143   2.913  13.651 -1.4768  0.5067 -0.3062
 2789TIP3   OH229857   6.369   2.372   2.786 -0.4733  0.2982  0.5889
 2789TIP3    H129858   6.287   2.349   2.829 -0.6842  1.2054  0.6899
 2789TIP3    H229859   6.354   2.350   2.694 -1.1138  1.1517  0.4727
 2790TIP3   OH229860   5.756   1.468  15.197  0.3981 -0.5695 -0.0877
 2790TIP3    H129861   5.779   1.539  15.257  0.6609 -0.5858 -0.1660
 2790TIP3    H229862   5.734   1.511  15.115 -2.6522 -0.3326  0.7478
 2791TIP3   OH229863   1.477   2.381  11.339  0.0374  0.0359 -0.3859
 2791TIP3    H129864   1.410   2.327  11.296 -1.6851 -0.3844  2.5848
 2791TIP3    H229865   1.549   2.321  11.357  0.1448 -0.1200 -1.2841
 2792TIP3   OH229866   0.788   6.224   5.202  0.2496  0.0583  0.2529
 2792TIP3    H129867   0.764   6.317   5.199  0.6098  0.1818  1.0288
 2792TIP3    H229868   0.853   6.214   5.133 -0.8195  0.0643 -0.7941
 2793TIP3   OH229869   5.076   6.341  11.666  0.3059  0.0181  0.1999
 2793TIP3    H129870   5.092   6.304  11.579  0.1380 -1.3206  0.7105
 2793TIP3    H229871   5.148   6.308  11.720  1.0559  1.7746  0.3405
 2794TIP3   OH229872   5.822   6.736  12.614 -0.2764  0.1849 -0.0070
 2794TIP3    H129873   5.838   6.743  12.709  1.3521  2.1172 -0.3512
 2794TIP3    H229874   5.885   6.797  12.575 -0.2067 -1.3075 -2.4253
 2795TIP3   OH229875   0.586   2.308  15.422  0.0669 -0.5623 -0.0450
 2795TIP3    H129876   0.638   2.255  15.361  0.1569 -0.2521 -0.2423
 2795TIP3    H229877   0.570   2.390  15.374  1.0177  0.1060  0.7296
 2796TIP3   OH229878   0.662   6.807  12.663  0.1358  0.1992  0.0028
 2796TIP3    H129879   0.657   6.712  12.673  1.2328  0.1093 -0.1579
 2796TIP3    H229880   0.572   6.838  12.675 -0.2660 -0.8800 -0.1641
 2797TIP3   OH229881   2.320   1.932   1.906 -0.3987 -0.2204  0.0350
 2797TIP3    H129882   2.377   1.994   1.953 -0.3199  0.7933 -1.3375
 2797TIP3    H229883   2.367   1.849   1.908  0.1862  0.1148  0.6465
 2798TIP3   OH229884   1.262   0.704   6.093  0.6961  0.1158  0.3977
 2798TIP3    H129885   1.225   0.672   6.175 -0.8864  0.4983 -0.1174
 2798TIP3    H229886   1.272   0.799   6.107  0.5477  0.1602  0.2118
 2799TIP3   OH229887   2.187   0.638  15.995  0.1883  0.2465  0.3983
 2799TIP3    H129888   2.094   0.629  15.976  0.8327 -2.0267 -2.4313
 2799TIP3    H229889   2.217   0.706  15.935  0.2879  1.5338  1.8486
 2800TIP3   OH229890   2.982   0.543  13.110 -0.4060  0.2530 -0.2076
 2800TIP3    H129891   3.032   0.597  13.172  0.7745  0.9891 -1.7502
 2800TIP3    H229892   2.986   0.455  13.148  3.1110  0.0147 -0.7850
 2801TIP3   OH229893   3.915   2.598   2.271  0.5403  0.3054 -0.8791
 2801TIP3    H129894   3.851   2.541   2.229  0.1725  0.0791 -0.0461
 2801TIP3    H229895   3.997   2.581   2.225  0.2262 -0.1858 -1.2676
 2802TIP3   OH229896   6.842   2.619  16.574  0.2268 -0.1577  0.2421
 2802TIP3    H129897   6.793   2.536  16.574  0.2278 -0.1667  1.4915
 2802TIP3    H229898   6.861   2.636  16.666  2.5833 -0.1403 -0.1948
 2803TIP3   OH229899   2.810   4.111   2.430  0.6569 -0.1696  0.1572
 2803TIP3    H129900   2.807   4.051   2.356  0.6147  1.2387 -1.0121
 2803TIP3    H229901   2.896   4.096   2.469  0.6306 -1.0046 -0.0792
 2804TIP3   OH229902   5.331   2.766  13.148 -0.4172  0.2596  0.4303
 2804TIP3    H129903   5.349   2.828  13.078 -2.2082  0.0933 -0.2220
 2804TIP3    H229904   5.236   2.758  13.150 -0.2946 -1.7034  1.1535
 2805TIP3   OH229905   6.085   6.661   6.524  0.4779 -0.2223 -0.1937
 2805TIP3    H129906   6.166   6.633   6.483 -0.1657 -1.1423 -0.8817
 2805TIP3    H229907   6.019   6.598   6.494 -0.6479  0.9394 -0.2602
 2806TIP3   OH229908   0.190   2.208   4.502 -0.0742  0.1581 -0.1879
 2806TIP3    H129909   0.111   2.259   4.486  0.0996  0.4143 -0.2242
 2806TIP3    H229910   0.158   2.129   4.546 -0.4650 -0.2373 -1.1741
 2807TIP3   OH229911   1.032   5.286   5.443  0.2031  0.0043 -0.5963
 2807TIP3    H129912   1.008   5.332   5.523 -3.0126 -0.7448 -1.0173
 2807TIP3    H229913   1.075   5.206   5.473 -0.0526  0.2086  0.3217
 2808TIP3   OH229914   4.331   2.371   5.864  0.1608  0.3369 -0.1570
 2808TIP3    H129915   4.271   2.359   5.938  0.9012  0.4867  0.4763
 2808TIP3    H229916   4.396   2.302   5.875 -0.5808 -0.6393 -1.5572
 2809TIP3   OH229917   3.950   0.262  16.118 -0.4413  0.5411 -0.3898
 2809TIP3    H129918   4.043   0.266  16.095  0.1196  0.5083  1.6895
 2809TIP3    H229919   3.906   0.251  16.034  1.5291 -1.0510 -1.3222
 2810TIP3   OH229920   1.786   0.921  17.195  0.6442  0.2845 -0.1486
 2810TIP3    H129921   1.713   0.885  17.245  0.8941  0.4379  0.3355
 2810TIP3    H229922   1.749   0.944  17.110  0.5436 -1.4897 -0.6347
 2811TIP3   OH229923   0.869   1.664   2.978  0.1877 -0.5026  0.2128
 2811TIP3    H129924   0.896   1.735   2.920 -2.1984 -1.6263 -2.5169
 2811TIP3    H229925   0.793   1.699   3.025 -0.3091 -0.8414 -0.3187
 2812TIP3   OH229926   2.846   0.903   2.024  0.5302 -0.3401 -0.2551
 2812TIP3    H129927   2.796   0.823   2.041  0.2519 -0.2561 -0.6414
 2812TIP3    H229928   2.909   0.908   2.095  1.1431 -1.3791 -0.6875
 2813TIP3   OH229929   2.906   6.492   2.552 -0.5250 -0.4543  0.1294
 2813TIP3    H129930   2.863   6.577   2.554  0.4143  0.0282  1.1776
 2813TIP3    H229931   2.900   6.460   2.642 -0.9093 -1.5352 -0.2612
 2814TIP3   OH229932   6.168   2.365   0.938 -0.0781  0.0202  0.2361
 2814TIP3    H129933   6.187   2.351   1.031  1.5742 -1.3336 -0.2354
 2814TIP3    H229934   6.242   2.418   0.907 -0.9600  1.0276 -0.1822
 2815TIP3   OH229935   5.416   6.349   0.821  0.3329  0.1067  0.0152
 2815TIP3    H129936   5.382   6.273   0.775 -0.6600  0.5388  0.0130
 2815TIP3    H229937   5.358   6.361   0.896  0.0204  1.2792 -0.3845
 2816TIP3   OH229938   0.297   1.714   2.977  0.4029 -0.1639  0.1406
 2816TIP3    H129939   0.359   1.698   2.906  0.2213  0.3647 -0.1474
 2816TIP3    H229940   0.217   1.669   2.949 -0.1939  1.3734 -0.7975
 2817TIP3   OH229941   1.384   2.879   0.770  0.2873  0.1921  0.0158
 2817TIP3    H129942   1.376   2.968   0.736  0.2964  0.0715 -0.3065
 2817TIP3    H229943   1.294   2.845   0.768 -0.3337  1.2824  3.2106
 2818TIP3   OH229944   4.385   5.961  10.607 -0.2881 -0.2982  0.6522
 2818TIP3    H129945   4.357   5.899  10.540  0.0493 -0.9554  1.1053
 2818TIP3    H229946   4.310   6.020  10.618 -0.6054 -0.6076  0.1979
 2819TIP3   OH229947   1.528   1.538  14.564 -0.4014  0.7464 -0.1970
 2819TIP3    H129948   1.473   1.461  14.547  0.1545  0.3723 -0.3471
 2819TIP3    H229949   1.543   1.576  14.478 -1.2841  1.4659 -0.0502
 2820TIP3   OH229950   3.159   0.869  14.929  0.4433 -0.1951  0.1917
 2820TIP3    H129951   3.093   0.857  14.861 -0.1149  1.2511  0.4392
 2820TIP3    H229952   3.224   0.801  14.912 -2.2412 -3.3691  1.4014
 2821TIP3   OH229953   5.619   6.029   6.366  0.1455  0.6298 -0.0416
 2821TIP3    H129954   5.631   6.038   6.272  0.3543 -0.2436 -0.1015
 2821TIP3    H229955   5.672   6.099   6.404 -0.1826  1.1778 -0.5730
 2822TIP3   OH229956   0.757   2.635  14.127  0.6851  0.6569 -0.1363
 2822TIP3    H129957   0.721   2.589  14.203  1.2890  2.0684  1.0452
 2822TIP3    H229958   0.851   2.639  14.144  0.5156  3.6172  0.5977
 2823TIP3   OH229959   1.631   4.101   2.549 -0.0461 -0.0207  0.5615
 2823TIP3    H129960   1.666   4.014   2.566 -0.3310 -0.3318 -0.3690
 2823TIP3    H229961   1.678   4.132   2.472 -0.2750  0.4595  0.6082
 2824TIP3   OH229962   4.110   0.915   2.800 -0.2357  0.3120 -0.0607
 2824TIP3    H129963   4.201   0.886   2.810 -0.2122  0.4942  0.2484
 2824TIP3    H229964   4.059   0.847   2.844 -0.5020 -1.4558 -2.8345
 2825TIP3   OH229965   1.031   5.620   3.139  0.1071 -0.2607 -0.4840
 2825TIP3    H129966   1.046   5.540   3.190 -0.3586  0.6436  1.1433
 2825TIP3    H229967   0.945   5.606   3.098  0.1704 -0.7162 -0.4692
 2826TIP3   OH229968   1.846   2.411   3.429  0.7386  0.0577 -0.2844
 2826TIP3    H129969   1.843   2.328   3.475  1.5209  0.9618  1.4773
 2826TIP3    H229970   1.803   2.473   3.488 -1.6217  0.6057 -2.3708
 2827TIP3   OH229971   1.025   2.911   0.186  0.4552  0.0499 -0.6463
 2827TIP3    H129972   1.002   2.833   0.135 -2.1160 -0.1890  0.7223
 2827TIP3    H229973   1.078   2.877   0.258 -1.4717 -0.6364  0.4926
 2828TIP3   OH229974   3.987   4.601  12.234 -0.1947 -0.0047 -0.2960
 2828TIP3    H129975   4.081   4.585  12.227 -0.1507 -0.6105  1.2863
 2828TIP3    H229976   3.965   4.648  12.154  1.7064  1.3903 -0.0702
 2829TIP3   OH229977   6.161   4.492   3.967  0.1715  0.9562  0.0119
 2829TIP3    H129978   6.166   4.422   3.901 -1.0133  0.2127  0.6809
 2829TIP3    H229979   6.076   4.479   4.010  0.2107  2.4188  0.5992
 2830TIP3   OH229980   4.954   1.211  11.373 -0.0426 -0.0636 -0.1456
 2830TIP3    H129981   5.032   1.258  11.402  0.2125 -0.8691  0.5039
 2830TIP3    H229982   4.984   1.162  11.296 -0.4642  1.2826 -1.2014
 2831TIP3   OH229983   5.315   0.450  11.470 -0.0490  0.8482  0.0969
 2831TIP3    H129984   5.380   0.491  11.526 -0.2977  0.0662  0.9853
 2831TIP3    H229985   5.242   0.512  11.469 -0.1749  0.7190  0.9193
 2832TIP3   OH229986   4.245   6.836   3.978  0.0857 -0.2034 -0.0632
 2832TIP3    H129987   4.277   6.913   4.025  1.6197 -0.7662 -0.1384
 2832TIP3    H229988   4.282   6.762   4.026 -0.0237 -0.8436 -0.9580
 2833TIP3   OH229989   1.433   5.644  16.647 -0.2834  0.2582 -0.1040
 2833TIP3    H129990   1.438   5.658  16.552  2.5308 -0.9045 -0.2104
 2833TIP3    H229991   1.478   5.719  16.685  1.6438 -0.9121  0.0631
 2834TIP3   OH229992   0.176   1.961   5.614  0.3263 -0.6051  0.0566
 2834TIP3    H129993   0.259   2.008   5.603 -0.1338 -0.0390 -1.1712
 2834TIP3    H229994   0.139   1.997   5.695 -0.5289  2.0468 -1.3874
 2835TIP3   OH229995   5.923   3.063  15.475 -0.1337 -0.1269  0.0258
 2835TIP3    H129996   5.854   3.000  15.495  0.8430 -1.0642  0.5575
 2835TIP3    H229997   6.004   3.012  15.479  0.6414  1.0624 -0.0041
 2836TIP3   OH229998   3.343   4.693  12.429 -0.2475  0.0638 -0.9241
 2836TIP3    H129999   3.436   4.677  12.439  0.0248  1.1898 -1.4454
 2836TIP3    H230000   3.333   4.788  12.443 -0.9926  0.3250 -2.8111
 2837TIP3   OH230001   0.628   1.668   3.613 -0.3046 -0.1445  0.5507
 2837TIP3    H130002   0.581   1.716   3.681 -0.1535 -0.5404  0.9444
 2837TIP3    H230003   0.566   1.662   3.541  0.2911  2.2065 -0.2348
 2838TIP3   OH230004   4.913   6.075   2.588  0.0546 -0.3566  0.3653
 2838TIP3    H130005   4.866   6.032   2.517  0.9040 -1.6245  0.5342
 2838TIP3    H230006   4.871   6.043   2.668 -1.3142  1.5546  0.4643
 2839TIP3   OH230007   0.861   6.118   5.907 -0.5109  0.6395  0.3919
 2839TIP3    H130008   0.799   6.053   5.941 -0.5848  0.4318 -0.1322
 2839TIP3    H230009   0.882   6.087   5.819 -0.5556  1.3339  0.1343
 2840TIP3   OH230010   4.460   0.949  14.035 -0.2909 -0.1135  0.2111
 2840TIP3    H130011   4.373   0.913  14.021 -1.1516  1.7186  0.4553
 2840TIP3    H230012   4.488   0.979  13.948  1.4908 -3.3823 -0.5087
 2841TIP3   OH230013   3.241   6.376  13.411 -0.0678 -0.3030  0.1505
 2841TIP3    H130014   3.216   6.466  13.391 -2.3513 -0.9580 -0.1528
 2841TIP3    H230015   3.336   6.381  13.425  0.2148  1.7844 -1.8452
 2842TIP3   OH230016   2.452   0.263   5.641  0.2848 -0.1449  0.0294
 2842TIP3    H130017   2.388   0.201   5.606 -1.9715  2.2025 -0.2757
 2842TIP3    H230018   2.529   0.252   5.585 -0.1977 -2.2754 -0.2971
 2843TIP3   OH230019   6.015   2.519   1.753  0.4412 -0.1207  1.2245
 2843TIP3    H130020   6.058   2.598   1.786  0.8496  0.5540 -0.7744
 2843TIP3    H230021   6.072   2.489   1.681 -2.1437  0.6037 -1.3251
 2844TIP3   OH230022   3.855   6.370   1.097  0.3017 -0.2682  0.6890
 2844TIP3    H130023   3.788   6.307   1.123 -0.0471  0.1890  0.8933
 2844TIP3    H230024   3.847   6.442   1.159 -0.1380  0.5573 -0.2899
 2845TIP3   OH230025   6.305   5.666  11.898 -0.1699  0.0386 -0.4710
 2845TIP3    H130026   6.327   5.582  11.859 -1.9368 -0.1207 -1.2422
 2845TIP3    H230027   6.311   5.652  11.993  0.9552 -0.5227 -0.6208
 2846TIP3   OH230028   6.720   5.398   1.476  0.4741 -0.2694 -0.3928
 2846TIP3    H130029   6.643   5.417   1.422  0.3473 -0.1801 -0.1832
 2846TIP3    H230030   6.718   5.304   1.489  1.2737 -0.4830 -1.6927
 2847TIP3   OH230031   5.847   3.928   3.604 -0.1995  0.0902  0.0240
 2847TIP3    H130032   5.928   3.936   3.554  0.1922 -0.3790  0.5739
 2847TIP3    H230033   5.781   3.903   3.539 -0.6073  3.3615 -1.0351
 2848TIP3   OH230034   2.705   4.591  11.380 -0.5301 -0.0369 -0.2112
 2848TIP3    H130035   2.670   4.674  11.348  1.6054  1.2874  0.6815
 2848TIP3    H230036   2.689   4.530  11.308  0.8250  1.9443 -2.3591
 2849TIP3   OH230037   6.633   4.133   0.375 -0.3786  0.2247  0.1348
 2849TIP3    H130038   6.663   4.043   0.361 -0.7329 -0.0886  1.2573
 2849TIP3    H230039   6.543   4.133   0.345  0.2012  0.7599 -1.7635
 2850TIP3   OH230040   2.651   5.600   5.029  0.0582  0.0939  0.3400
 2850TIP3    H130041   2.562   5.600   4.993 -0.3014 -1.1987  1.1457
 2850TIP3    H230042   2.647   5.662   5.102  0.4162  1.6485 -0.8966
 2851TIP3   OH230043   2.421   4.587  15.356 -0.8195 -0.4108  0.2605
 2851TIP3    H130044   2.464   4.547  15.432  0.1174 -0.3015 -0.1978
 2851TIP3    H230045   2.491   4.599  15.292 -1.7382 -1.2622 -0.9553
 2852TIP3   OH230046   5.291   5.613  13.757 -0.3855 -0.3136  0.1618
 2852TIP3    H130047   5.272   5.690  13.810 -0.6500 -0.5133  0.3612
 2852TIP3    H230048   5.375   5.581  13.791 -0.2026 -0.0311 -0.0190
 2853TIP3   OH230049   6.542   6.561  15.004  0.2182  0.4950  0.0180
 2853TIP3    H130050   6.561   6.545  14.912 -0.9488 -0.4019 -0.0988
 2853TIP3    H230051   6.453   6.527  15.016 -0.5526  2.6510  0.9454
 2854TIP3   OH230052   6.559   6.568   4.104  0.5353  0.1072  0.4141
 2854TIP3    H130053   6.639   6.516   4.094 -1.1328 -2.7138  0.7516
 2854TIP3    H230054   6.551   6.582   4.198  0.1091 -0.5307  0.4773
 2855TIP3   OH230055   5.369   6.728  12.140  0.2807  0.6047 -0.8125
 2855TIP3    H130056   5.337   6.806  12.185 -0.8663  0.1934 -0.8767
 2855TIP3    H230057   5.372   6.753  12.048  0.9358  0.8988 -0.7127
 2856TIP3   OH230058   2.179   6.612   0.780  0.5379  0.5173 -0.2754
 2856TIP3    H130059   2.127   6.693   0.771  1.9265  1.5059  0.2517
 2856TIP3    H230060   2.204   6.590   0.690 -0.7000  0.0650 -0.5298
 2857TIP3   OH230061   5.317   3.652   3.405 -0.1046  0.2144 -0.1646
 2857TIP3    H130062   5.272   3.602   3.337  2.6338  0.2669 -2.1933
 2857TIP3    H230063   5.293   3.743   3.387 -1.5708  0.0550  0.7663
 2858TIP3   OH230064   3.993   5.039  11.248  1.2133 -0.1567  0.2382
 2858TIP3    H130065   3.951   4.953  11.249  0.1052  0.3436  2.3011
 2858TIP3    H230066   3.921   5.101  11.242  2.0275  0.6971 -1.8800
 2859TIP3   OH230067   6.754   1.939   2.795 -0.4885 -0.4894  0.0444
 2859TIP3    H130068   6.748   1.897   2.709  0.0723 -0.6487  0.0807
 2859TIP3    H230069   6.674   1.991   2.802  0.0471  0.5341 -1.0994
 2860TIP3   OH230070   3.600   1.787  10.944  0.2555  0.1885  0.2207
 2860TIP3    H130071   3.669   1.845  10.978 -1.3400  1.2544  1.8238
 2860TIP3    H230072   3.587   1.816  10.854  2.5176 -0.6856 -0.4611
 2861TIP3   OH230073   6.711   1.262  15.395 -0.3070  0.4309  0.5291
 2861TIP3    H130074   6.703   1.170  15.422 -0.3985 -0.0857 -1.1785
 2861TIP3    H230075   6.621   1.294  15.391 -0.5113 -0.2710 -1.6346
 2862TIP3   OH230076   1.440   6.548   4.224  0.2933 -0.1569 -0.0211
 2862TIP3    H130077   1.533   6.532   4.241  0.1057 -2.5904 -0.9230
 2862TIP3    H230078   1.435   6.642   4.207  2.4392  0.1823  0.8757
 2863TIP3   OH230079   1.709   3.212   4.229 -0.3039 -0.4149 -0.0908
 2863TIP3    H130080   1.638   3.265   4.266 -1.0485 -0.3829 -1.5173
 2863TIP3    H230081   1.690   3.208   4.135  2.1659  0.4955 -0.7034
 2864TIP3   OH230082   5.436   5.396   2.993 -0.1807  0.1670  0.0454
 2864TIP3    H130083   5.487   5.326   3.033 -0.0899 -0.2228 -0.7222
 2864TIP3    H230084   5.348   5.359   2.983 -0.1035  0.1089 -0.4721
 2865TIP3   OH230085   6.636   2.989   0.892  0.4756 -0.2260  0.1572
 2865TIP3    H130086   6.715   3.020   0.847  1.3175 -0.5652  1.3665
 2865TIP3    H230087   6.570   3.055   0.871  0.5435 -0.8643 -2.3504
 2866TIP3   OH230088   0.808   4.650   1.587 -0.3378  0.0050 -0.9714
 2866TIP3    H130089   0.831   4.560   1.566  0.6939  0.4413 -1.8295
 2866TIP3    H230090   0.830   4.660   1.680 -2.5982 -1.2442 -0.2247
 2867TIP3   OH230091   1.569   4.190  17.112 -0.0978 -0.0361 -0.1176
 2867TIP3    H130092   1.652   4.191  17.160  0.4746 -2.6142 -0.9190
 2867TIP3    H230093   1.558   4.099  17.084 -2.1806  0.6529 -1.8062
 2868TIP3   OH230094   0.523   5.109  13.734  0.2524 -0.5583 -0.1215
 2868TIP3    H130095   0.430   5.106  13.756  0.1095  0.1631 -0.5834
 2868TIP3    H230096   0.537   5.198  13.703  0.3186 -1.6093 -3.4460
 2869TIP3   OH230097   0.703   6.667  11.188  0.7203  0.8977  0.1652
 2869TIP3    H130098   0.713   6.576  11.216 -1.7659 -0.0016 -1.6025
 2869TIP3    H230099   0.625   6.668  11.133  1.6049  3.8004 -1.2646
 2870TIP3   OH230100   5.695   6.653  11.883  0.0164 -0.6999  0.1288
 2870TIP3    H130101   5.763   6.660  11.950  0.8014  1.4829 -0.8133
 2870TIP3    H230102   5.633   6.588  11.918 -1.5311  2.6987  4.6922
 2871TIP3   OH230103   0.421   2.611  14.113 -0.2635 -0.3498 -0.0561
 2871TIP3    H130104   0.423   2.666  14.191 -0.3560 -0.5789  0.1096
 2871TIP3    H230105   0.362   2.656  14.053  0.9119  0.5594 -0.5489
 2872TIP3   OH230106   4.579   4.309   4.307 -0.2706  0.2245 -0.3526
 2872TIP3    H130107   4.495   4.317   4.353  0.0627  0.2068  0.2627
 2872TIP3    H230108   4.562   4.247   4.236 -1.5725  2.4171 -2.0898
 2873TIP3   OH230109   3.442   4.663  14.551  0.2749 -0.2025 -0.2786
 2873TIP3    H130110   3.398   4.579  14.537 -0.5283  0.0183  0.7579
 2873TIP3    H230111   3.422   4.714  14.472 -0.4856 -0.4771 -0.2778
 2874TIP3   OH230112   5.829   4.767  12.947  0.2490 -0.4266  0.4264
 2874TIP3    H130113   5.828   4.717  13.028  0.7920  1.0291  1.3688
 2874TIP3    H230114   5.762   4.835  12.959  0.3337 -0.1956 -0.3404
 2875TIP3   OH230115   5.644   2.788  10.750  0.4212 -0.1066  0.5005
 2875TIP3    H130116   5.643   2.884  10.745 -1.1813 -0.0990  0.3632
 2875TIP3    H230117   5.657   2.769  10.843 -0.0968  0.2708  0.6556
 2876TIP3   OH230118   3.775   1.249  15.766  0.5338  0.0344  0.7647
 2876TIP3    H130119   3.681   1.239  15.747  0.6378 -0.7164  0.5982
 2876TIP3    H230120   3.782   1.229  15.860  0.5180  0.1556  0.7912
 2877TIP3   OH230121   3.626   1.292  14.444 -0.4406 -0.0236 -0.5818
 2877TIP3    H130122   3.645   1.384  14.459 -0.6273  0.1474 -1.3676
 2877TIP3    H230123   3.698   1.245  14.487 -0.8862  0.4367  0.7312
 2878TIP3   OH230124   2.244   4.310  13.905 -0.5121 -0.5197 -0.6179
 2878TIP3    H130125   2.294   4.317  13.986 -1.0868  0.2690 -0.3179
 2878TIP3    H230126   2.305   4.337  13.836  0.3091 -2.2097 -0.6000
 2879TIP3   OH230127   6.808   1.897  14.395 -0.4184  0.1159  0.0172
 2879TIP3    H130128   6.791   1.938  14.310 -1.5520  1.1891  0.7340
 2879TIP3    H230129   6.722   1.888  14.435 -0.0092 -1.3657  0.6376
 2880TIP3   OH230130   5.264   2.963  11.638 -0.0799 -0.0149 -0.8511
 2880TIP3    H130131   5.263   2.880  11.686 -1.1822 -0.0090 -0.8420
 2880TIP3    H230132   5.308   2.942  11.556  0.5947 -0.3503 -0.4160
 2881TIP3   OH230133   4.461   5.732   2.813  0.6508 -0.1497 -0.4806
 2881TIP3    H130134   4.388   5.789   2.792  0.0333 -0.2431  1.3224
 2881TIP3    H230135   4.461   5.667   2.742  1.2722  1.8914 -2.4845
 2882TIP3   OH230136   6.124   2.350  13.167  0.0649  0.0859  0.0827
 2882TIP3    H130137   6.111   2.445  13.170  0.2064  0.1257 -0.4158
 2882TIP3    H230138   6.045   2.316  13.126  0.5099  0.1050 -0.8081
 2883TIP3   OH230139   0.400   3.004  15.710 -0.4405  0.4297 -0.1229
 2883TIP3    H130140   0.374   3.079  15.656  0.7228 -0.1349 -1.5383
 2883TIP3    H230141   0.436   3.043  15.790 -0.1102  1.3970 -0.7227
 2884TIP3   OH230142   4.300   3.381  11.324  0.5918  0.4115  0.3759
 2884TIP3    H130143   4.327   3.320  11.392  1.0796  0.6536  0.4059
 2884TIP3    H230144   4.307   3.468  11.365 -1.3309  0.4237  0.7469
 2885TIP3   OH230145   1.168   6.825  10.851  0.6058  0.1660  0.2694
 2885TIP3    H130146   1.176   6.919  10.870  0.7837  0.3208 -0.5281
 2885TIP3    H230147   1.256   6.790  10.868  0.8124  0.3365 -0.4278
 2886TIP3   OH230148   1.987   4.837  12.290  0.2499  0.0662 -0.4970
 2886TIP3    H130149   2.072   4.826  12.246 -0.3786  0.3343 -1.8193
 2886TIP3    H230150   1.983   4.765  12.353  2.6030  1.5271  1.5407
 2887TIP3   OH230151   4.250   2.198   0.691  0.3490 -0.3207  0.3740
 2887TIP3    H130152   4.283   2.288   0.687 -2.0443  0.6152 -0.0291
 2887TIP3    H230153   4.288   2.163   0.772  1.3683  1.0263  0.5188
 2888TIP3   OH230154   6.417   3.392  13.748  0.0416  0.0516  0.0973
 2888TIP3    H130155   6.366   3.368  13.825 -0.7539 -0.5608 -0.5963
 2888TIP3    H230156   6.439   3.308  13.706 -1.2591  0.4042 -1.4051
 2889TIP3   OH230157   1.171   2.333  14.910  0.1175  0.4798  0.6356
 2889TIP3    H130158   1.183   2.316  15.004  0.9571  0.9629  0.6306
 2889TIP3    H230159   1.144   2.425  14.906 -1.3811  0.0494  0.4842
 2890TIP3   OH230160   2.166   1.380   3.589 -0.3063 -0.1584  0.2344
 2890TIP3    H130161   2.123   1.322   3.652  0.7834 -1.5550 -0.2594
 2890TIP3    H230162   2.217   1.441   3.642  0.6493 -1.3542  0.7121
 2891TIP3   OH230163   0.522   1.322  16.625 -0.0015 -0.4467  0.2232
 2891TIP3    H130164   0.456   1.262  16.661 -0.0500  0.2556  1.3474
 2891TIP3    H230165   0.585   1.333  16.696  0.0447  0.7849  0.0033
 2892TIP3   OH230166   3.451   3.921  12.783  0.4481 -0.4861  0.4120
 2892TIP3    H130167   3.487   3.977  12.851 -0.8838  0.1810  0.6039
 2892TIP3    H230168   3.365   3.894  12.816  0.1783 -0.9131 -0.5809
 2893TIP3   OH230169   1.656   5.150  12.571  0.3502 -0.0341 -0.1883
 2893TIP3    H130170   1.640   5.211  12.499 -3.8652 -0.0780  0.4770
 2893TIP3    H230171   1.636   5.064  12.534 -0.4434 -0.2168  0.6455
 2894TIP3   OH230172   1.836   5.737  16.443  0.1327 -0.4732  0.5379
 2894TIP3    H130173   1.875   5.674  16.503  0.5527 -0.1042  0.6543
 2894TIP3    H230174   1.883   5.724  16.361 -1.0371 -1.5933  0.0124
 2895TIP3   OH230175   5.740   0.228   2.030 -0.3899  0.9851 -0.2104
 2895TIP3    H130176   5.766   0.230   1.938 -2.4423  1.6898 -0.8293
 2895TIP3    H230177   5.701   0.142   2.043 -1.1436  1.3015 -0.3299
 2896TIP3   OH230178   4.164   3.836  12.119  0.3547 -0.0325  0.4633
 2896TIP3    H130179   4.132   3.792  12.040 -0.1833 -0.3502  0.8511
 2896TIP3    H230180   4.259   3.841  12.107  0.1406  1.3664 -0.9323
 2897TIP3   OH230181   3.064   0.490   3.587  0.4095 -0.0982  0.3152
 2897TIP3    H130182   3.055   0.433   3.511  0.3540  0.1810  0.1141
 2897TIP3    H230183   2.974   0.515   3.609  0.3103 -1.1800  1.2346
 2898TIP3   OH230184   3.000   2.045   2.631  0.4037  0.1430  0.5282
 2898TIP3    H130185   2.911   2.034   2.665 -0.3350  0.1087 -1.2825
 2898TIP3    H230186   3.054   2.060   2.708 -1.3632  1.3774  1.5964
 2899TIP3   OH230187   6.279   1.806   0.115  0.1283 -0.4971  0.3511
 2899TIP3    H130188   6.317   1.733   0.163  0.2623 -0.1350  0.8060
 2899TIP3    H230189   6.192   1.817   0.152  0.0517 -0.5214  0.1794
 2900TIP3   OH230190   4.077   2.014  13.218 -0.8408 -0.2840 -0.2739
 2900TIP3    H130191   4.063   2.003  13.124 -2.1637 -0.1903 -0.1066
 2900TIP3    H230192   4.106   1.928  13.248  0.0763 -0.1818 -0.8420
 2901TIP3   OH230193   3.477   6.444   5.489  0.1780  0.2414 -0.0562
 2901TIP3    H130194   3.511   6.354   5.488 -0.5892 -0.0418 -0.8010
 2901TIP3    H230195   3.554   6.499   5.471  0.2855 -0.3868 -1.5875
 2902TIP3   OH230196   4.257   3.882   4.123 -0.8085  0.1817  0.2787
 2902TIP3    H130197   4.202   3.806   4.141 -0.9543  0.5731  1.6230
 2902TIP3    H230198   4.327   3.878   4.189  0.1033  0.3347 -0.6655
 2903TIP3   OH230199   5.589   6.704  12.877  1.0013  0.0871  0.4526
 2903TIP3    H130200   5.515   6.735  12.825  0.2666 -0.2512  1.2533
 2903TIP3    H230201   5.594   6.610  12.858  0.2232 -0.2024  1.5405
 2904TIP3   OH230202   3.463   1.478   5.470 -0.0222  0.2140 -0.3242
 2904TIP3    H130203   3.437   1.425   5.394 -0.0072 -0.0787 -0.1245
 2904TIP3    H230204   3.382   1.523   5.496  0.4870  2.3544 -2.1014
 2905TIP3   OH230205   4.091   5.779  14.077 -0.1893  0.0621 -0.3411
 2905TIP3    H130206   4.154   5.729  14.025  0.0475  0.6802 -0.6651
 2905TIP3    H230207   4.034   5.713  14.116 -0.3360 -0.4332 -1.3449
 2906TIP3   OH230208   6.315   2.713  10.923 -0.1507  0.8273  0.4165
 2906TIP3    H130209   6.402   2.753  10.922 -0.5749  1.7561  0.1993
 2906TIP3    H230210   6.303   2.680  10.834 -0.2061  1.1028  0.3221
 2907TIP3   OH230211   3.289   0.928  12.032  0.2867  0.1551 -0.4111
 2907TIP3    H130212   3.282   0.864  12.103 -2.0094 -0.6498 -1.2767
 2907TIP3    H230213   3.352   0.888  11.971 -0.9687 -1.2377 -0.8493
 2908TIP3   OH230214   4.329   2.381  14.225 -0.4685 -0.6943  0.2393
 2908TIP3    H130215   4.304   2.411  14.312  0.3943 -0.7786  0.5198
 2908TIP3    H230216   4.335   2.461  14.173  0.3359 -0.5048  0.6039
 2909TIP3   OH230217   3.333   5.507  13.097  0.5902  0.0847 -0.1098
 2909TIP3    H130218   3.241   5.530  13.088 -0.1174 -2.7625 -1.2909
 2909TIP3    H230219   3.335   5.447  13.171  0.9339 -2.0765 -1.7691
 2910TIP3   OH230220   5.415   1.978  16.698  0.8233  0.4232 -0.1436
 2910TIP3    H130221   5.361   2.039  16.747 -1.1133  1.5240 -3.3124
 2910TIP3    H230222   5.440   1.910  16.761 -3.0391  0.6395  1.9013
 2911TIP3   OH230223   0.720   2.662   0.053  0.5299  0.6177  0.1878
 2911TIP3    H130224   0.670   2.596   0.005  0.7523 -0.7489  1.7446
 2911TIP3    H230225   0.655   2.706   0.108  0.3938  1.6909 -0.7950
 2912TIP3   OH230226   5.196   3.261   4.064 -0.0078 -0.0477  0.3606
 2912TIP3    H130227   5.199   3.336   4.005 -0.3900  0.0155  0.4176
 2912TIP3    H230228   5.209   3.299   4.151  2.1068 -0.3065  0.2172
 2913TIP3   OH230229   2.161   3.412   2.367 -0.7142  0.0190  0.3126
 2913TIP3    H130230   2.235   3.441   2.421 -0.2279  0.3409 -0.5203
 2913TIP3    H230231   2.087   3.409   2.429 -0.2175  0.5918  0.9571
 2914TIP3   OH230232   0.824   2.308   5.794  0.1629  0.3887 -0.6521
 2914TIP3    H130233   0.754   2.302   5.729 -0.6611 -1.2490  0.3442
 2914TIP3    H230234   0.893   2.251   5.761  0.6793  1.2862 -1.1691
 2915TIP3   OH230235   6.259   3.891  11.671  0.3785  0.2115  0.5189
 2915TIP3    H130236   6.333   3.895  11.731  0.6687 -0.4374  0.2152
 2915TIP3    H230237   6.254   3.799  11.646  0.9628  0.6327 -1.3194
 2916TIP3   OH230238   2.212   0.846   4.740  0.0812 -0.0934 -0.0951
 2916TIP3    H130239   2.296   0.801   4.735 -0.3715 -1.1481  1.2267
 2916TIP3    H230240   2.184   0.834   4.830 -2.0153 -0.7359 -0.7734
 2917TIP3   OH230241   0.889   0.252   2.968  0.2533  0.1320 -0.1063
 2917TIP3    H130242   0.849   0.337   2.951  0.7162  0.2876 -0.4453
 2917TIP3    H230243   0.869   0.200   2.890 -1.3014 -0.5717  0.7199
 2918TIP3   OH230244   1.242   5.099   6.001 -0.4807 -0.1349  0.1411
 2918TIP3    H130245   1.231   5.151   6.080  1.3518 -1.2685  1.2426
 2918TIP3    H230246   1.320   5.045   6.019 -0.4626 -0.9846 -2.1381
 2919TIP3   OH230247   5.127   5.219   0.607  0.1979 -0.0634  0.8068
 2919TIP3    H130248   5.041   5.198   0.644  1.4217 -2.7024  2.4824
 2919TIP3    H230249   5.108   5.257   0.522 -2.6393 -2.3627  0.2434
 2920TIP3   OH230250   3.396   5.357   0.628  0.2801 -0.1008 -0.3906
 2920TIP3    H130251   3.403   5.330   0.719 -0.7959 -2.7729 -0.9970
 2920TIP3    H230252   3.478   5.325   0.588  1.2173  1.9499 -0.2348
 2921TIP3   OH230253   6.617   4.773  13.071  0.0224  0.2327 -0.3574
 2921TIP3    H130254   6.558   4.698  13.080  1.3997 -0.8390  0.1166
 2921TIP3    H230255   6.569   4.846  13.110 -0.2706 -1.0118  1.7879
 2922TIP3   OH230256   0.694   1.383  17.187 -0.3987 -0.2844 -0.7585
 2922TIP3    H130257   0.629   1.446  17.217 -1.0609 -1.4469  0.3331
 2922TIP3    H230258   0.645   1.324  17.130 -0.2721 -1.0240 -0.1219
 2923TIP3   OH230259   3.558   3.198   4.749 -0.1056 -0.2282  0.3348
 2923TIP3    H130260   3.484   3.203   4.688 -0.9830 -3.0209  1.0112
 2923TIP3    H230261   3.611   3.126   4.716  0.6815 -0.2264  1.5401
 2924TIP3   OH230262   5.172   2.734  14.031  0.4700  0.7561 -0.1150
 2924TIP3    H130263   5.143   2.722  14.121  0.2877 -0.9661 -0.3792
 2924TIP3    H230264   5.267   2.718  14.034  0.6393  1.6653 -0.0890
 2925TIP3   OH230265   6.333   4.137  15.138 -0.3209 -0.5393  0.1753
 2925TIP3    H130266   6.258   4.096  15.181 -1.9202  0.9209 -1.0827
 2925TIP3    H230267   6.335   4.226  15.174 -1.9384  0.8570 -2.8575
 2926TIP3   OH230268   3.402   2.805  13.264 -0.2786  0.2734  0.8442
 2926TIP3    H130269   3.448   2.722  13.261 -0.7477  0.0157  0.6041
 2926TIP3    H230270   3.412   2.835  13.355  1.3094  0.7842  0.5151
 2927TIP3   OH230271   1.567   3.616   4.070 -0.1300  0.9101  0.0874
 2927TIP3    H130272   1.623   3.544   4.038 -1.6059  0.0778 -0.7545
 2927TIP3    H230273   1.574   3.683   4.002  1.6970  1.8668  1.1448
 2928TIP3   OH230274   6.280   1.904   1.618  0.0313  0.4627 -0.4098
 2928TIP3    H130275   6.361   1.899   1.668  0.3522  0.2210 -0.9388
 2928TIP3    H230276   6.221   1.842   1.660 -1.1009  3.0112  2.0976
 2929TIP3   OH230277   1.799   1.753   3.638 -0.5468 -0.0138  1.0261
 2929TIP3    H130278   1.790   1.740   3.544 -0.7145  0.3590  0.9932
 2929TIP3    H230279   1.891   1.777   3.650 -0.6882  0.6187  0.8804
 2930TIP3   OH230280   6.703   2.472   3.386  0.0119 -0.5537  0.6596
 2930TIP3    H130281   6.655   2.489   3.305  0.9561  2.1639  0.5761
 2930TIP3    H230282   6.790   2.446   3.357  0.0316 -0.6710  0.8212
 2931TIP3   OH230283   2.386   2.494  15.525 -0.0022  0.1037 -0.5459
 2931TIP3    H130284   2.368   2.445  15.605 -0.2378  3.1243  1.3941
 2931TIP3    H230285   2.477   2.473  15.503  0.9757  1.1811  2.1104
 2932TIP3   OH230286   5.681   2.559  17.193 -0.3662 -0.0808  0.2922
 2932TIP3    H130287   5.734   2.625  17.149 -0.1994  0.3930  1.1644
 2932TIP3    H230288   5.730   2.478  17.184  0.1419  0.2048  0.4465
 2933TIP3   OH230289   4.085   1.549   2.684 -0.1189 -0.1195  0.1761
 2933TIP3    H130290   4.136   1.495   2.625 -0.9057 -0.4034 -0.2564
 2933TIP3    H230291   4.124   1.535   2.770  0.6661 -0.1509 -0.1772
 2934TIP3   OH230292   0.125   2.131   3.550  0.3679 -0.3045  0.3490
 2934TIP3    H130293   0.151   2.223   3.541 -0.0077 -0.2608 -0.4141
 2934TIP3    H230294   0.167   2.088   3.476 -2.0249 -0.1465 -1.2288
 2935TIP3   OH230295   3.614   6.383  11.519 -0.3198 -0.0200  0.1499
 2935TIP3    H130296   3.559   6.327  11.465 -0.9167  1.7088 -1.0933
 2935TIP3    H230297   3.702   6.374  11.481 -0.0931 -1.2609  0.9184
 2936TIP3   OH230298   0.869   6.488   5.788  0.3206  0.1044 -0.6686
 2936TIP3    H130299   0.859   6.487   5.883 -1.2217  0.8477 -0.7991
 2936TIP3    H230300   0.957   6.452   5.773 -0.2811 -2.2809  0.9016
 2937TIP3   OH230301   0.696   3.467  15.369 -0.6791 -0.5537  0.5052
 2937TIP3    H130302   0.769   3.435  15.421 -0.4917 -0.8733  0.0555
 2937TIP3    H230303   0.672   3.393  15.314 -0.6210 -0.1073 -0.1363
 2938TIP3   OH230304   6.630   6.473  10.762 -0.3122 -0.1984 -0.3939
 2938TIP3    H130305   6.678   6.411  10.707 -1.9217  0.1241 -2.2858
 2938TIP3    H230306   6.560   6.421  10.802 -1.2262  0.2039 -1.4158
 2939TIP3   OH230307   4.770   4.795   1.436 -0.1135 -0.3448  0.1098
 2939TIP3    H130308   4.830   4.765   1.368  2.0785 -1.1745  2.2893
 2939TIP3    H230309   4.826   4.815   1.511 -2.3660  1.1052  1.5230
 2940TIP3   OH230310   5.516   6.517  14.366  0.0047 -0.1995 -0.6274
 2940TIP3    H130311   5.452   6.567  14.416  0.2929 -0.4075 -0.0396
 2940TIP3    H230312   5.464   6.459  14.311 -0.3032 -0.6022  0.0881
 2941TIP3   OH230313   6.474   2.155  15.565 -0.2390 -0.0496  0.1600
 2941TIP3    H130314   6.547   2.130  15.621  0.5851 -0.5090 -1.0590
 2941TIP3    H230315   6.415   2.206  15.621  0.5439 -0.4976  1.4067
 2942TIP3   OH230316   2.796   1.312   4.258  0.2539 -0.2593  0.1393
 2942TIP3    H130317   2.888   1.287   4.259  0.4541  0.4553 -0.1126
 2942TIP3    H230318   2.792   1.388   4.201 -0.0692  1.3060  2.1404
 2943TIP3   OH230319   2.633   2.657  15.790  0.3247  0.3094  0.4035
 2943TIP3    H130320   2.722   2.666  15.823  0.3156  1.2570  0.1899
 2943TIP3    H230321   2.644   2.645  15.695  0.2340  0.1965  0.4071
 2944TIP3   OH230322   0.610   5.010   4.858 -0.3029 -0.0460 -0.6438
 2944TIP3    H130323   0.598   5.047   4.770 -0.3743 -1.8013 -1.4114
 2944TIP3    H230324   0.703   4.990   4.863 -0.1528  0.7824 -0.0005
 2945TIP3   OH230325   2.757   1.490  16.634 -0.1145 -0.8861 -0.1125
 2945TIP3    H130326   2.734   1.583  16.629  1.0469 -0.6383 -1.5762
 2945TIP3    H230327   2.712   1.458  16.712  0.0517  1.0753  0.8353
 2946TIP3   OH230328   5.814   1.929  11.757  0.3929  0.0188  0.3131
 2946TIP3    H130329   5.759   1.857  11.786  0.1592 -0.8364 -2.0213
 2946TIP3    H230330   5.756   2.005  11.756 -0.0081 -0.2813  0.4814
 2947TIP3   OH230331   0.625   5.636  13.558  0.4467  0.0380  0.5312
 2947TIP3    H130332   0.575   5.595  13.628 -1.0036  1.3077  0.2997
 2947TIP3    H230333   0.592   5.596  13.477  0.6122  0.0733  0.4440
 2948TIP3   OH230334   4.384   3.690  15.908  0.6490  0.2841  0.2371
 2948TIP3    H130335   4.346   3.769  15.947 -0.5586 -0.6005  0.9248
 2948TIP3    H230336   4.331   3.673  15.830  0.0185 -0.5779  0.8284
 2949TIP3   OH230337   6.635   5.261   2.097  0.3521  0.1415  0.7322
 2949TIP3    H130338   6.725   5.263   2.131 -0.2212 -0.7603  2.4213
 2949TIP3    H230339   6.603   5.174   2.122 -0.7241  0.1244 -0.6137
 2950TIP3   OH230340   4.443   3.613   6.741  0.3100  0.1316 -0.6033
 2950TIP3    H130341   4.518   3.554   6.731 -0.0271 -0.5546  0.7623
 2950TIP3    H230342   4.379   3.582   6.676  0.8488  0.1665 -1.1610
 2951TIP3   OH230343   4.056   0.373   4.781 -0.5825  0.1940  0.1844
 2951TIP3    H130344   4.021   0.296   4.827 -0.2982  0.0180  0.1028
 2951TIP3    H230345   4.019   0.367   4.693  0.6662 -0.6892 -0.3013
 2952TIP3   OH230346   6.700   0.708   4.987  0.6183  0.5962  0.1306
 2952TIP3    H130347   6.648   0.661   5.052 -1.0465  3.3261  0.9562
 2952TIP3    H230348   6.665   0.679   4.902  0.5230 -0.5368  0.5391
 2953TIP3   OH230349   1.218   4.931  15.695  0.0756  0.5361 -0.0887
 2953TIP3    H130350   1.253   4.948  15.782  0.3687  2.5961 -0.5576
 2953TIP3    H230351   1.273   4.983  15.637 -0.9767  0.2875 -1.3488
 2954TIP3   OH230352   5.009   1.930  13.240 -0.2615  0.4325 -0.4088
 2954TIP3    H130353   4.979   2.013  13.202 -0.5473  0.3434 -0.3819
 2954TIP3    H230354   4.928   1.881  13.256 -0.0988  0.1929 -0.3244
 2955TIP3   OH230355   1.634   2.343   4.788  0.6798  0.1778 -0.2785
 2955TIP3    H130356   1.540   2.341   4.771  0.6357  0.9935 -0.1748
 2955TIP3    H230357   1.675   2.319   4.705  0.3920  0.6747 -0.5685
 2956TIP3   OH230358   2.994   4.759  14.228 -0.0511 -0.1827  0.3037
 2956TIP3    H130359   3.059   4.697  14.258  0.1759  0.4624  1.1839
 2956TIP3    H230360   3.044   4.829  14.187 -0.1462  0.4854  1.2932
 2957TIP3   OH230361   1.820   5.468  14.857 -0.3845 -0.2920  0.0414
 2957TIP3    H130362   1.876   5.392  14.874 -0.2772 -0.4473 -0.9906
 2957TIP3    H230363   1.751   5.462  14.924  1.0692  0.1762  1.6560
 2958TIP3   OH230364   4.847   3.163  11.426 -0.2172  0.6958 -0.1911
 2958TIP3    H130365   4.905   3.178  11.351  0.9869 -2.8704 -0.1471
 2958TIP3    H230366   4.768   3.125  11.388 -1.4635  2.9040  0.0385
 2959TIP3   OH230367   2.838   0.690   2.399 -0.1190 -0.0804  0.3679
 2959TIP3    H130368   2.830   0.615   2.340 -0.5601 -1.2390  1.8423
 2959TIP3    H230369   2.769   0.678   2.464  0.3673  1.1309  1.1593
 2960TIP3   OH230370   2.199   3.326   0.296  0.1966  0.1489  0.1147
 2960TIP3    H130371   2.210   3.311   0.390  0.0803  1.3120  0.3307
 2960TIP3    H230372   2.225   3.417   0.283  0.7598 -0.1650 -1.0853
 2961TIP3   OH230373   3.188   4.070   4.960 -0.7601 -0.3364 -0.1460
 2961TIP3    H130374   3.220   4.053   4.871  1.3396 -0.6459  0.6067
 2961TIP3    H230375   3.143   3.990   4.985 -1.5749 -0.1663 -0.9848
 2962TIP3   OH230376   4.955   5.192  11.508  0.1264  0.2642  0.0340
 2962TIP3    H130377   4.937   5.268  11.453  0.5008  0.1433 -0.2645
 2962TIP3    H230378   4.912   5.119  11.464  2.5179 -0.3163 -1.5249
 2963TIP3   OH230379   4.765   2.375  13.404  0.4853  0.0426  0.1144
 2963TIP3    H130380   4.770   2.279  13.399 -0.0381 -0.1074  1.7425
 2963TIP3    H230381   4.709   2.391  13.480 -0.1309  1.6493 -0.6497
 2964TIP3   OH230382   5.086   6.602  17.191  0.5506  0.4305  0.1136
 2964TIP3    H130383   5.158   6.647  17.234 -0.7195  1.9700  0.7343
 2964TIP3    H230384   5.067   6.527  17.248  0.2696  1.2365  1.1015
 2965TIP3   OH230385   3.394   2.397   0.970 -0.0677 -0.3286 -0.4870
 2965TIP3    H130386   3.489   2.402   0.983 -0.2809  0.4026  0.9323
 2965TIP3    H230387   3.362   2.348   1.046 -1.2488  3.0468  1.3708
 2966TIP3   OH230388   2.099   5.412  14.618  0.0893 -0.4998  0.0515
 2966TIP3    H130389   2.007   5.420  14.644  0.5128 -1.2470  1.9583
 2966TIP3    H230390   2.096   5.390  14.525 -1.6605 -0.6648  0.1139
 2967TIP3   OH230391   4.905   1.401  12.739  0.1019  0.1781  0.7145
 2967TIP3    H130392   4.883   1.311  12.764  0.2345 -0.0916 -0.1234
 2967TIP3    H230393   4.874   1.454  12.812 -4.2057 -0.0299 -0.6576
 2968TIP3   OH230394   6.548   3.890   1.422  0.1573  0.8836 -0.7326
 2968TIP3    H130395   6.633   3.901   1.380  1.2378  0.8335  1.3100
 2968TIP3    H230396   6.549   3.799   1.454 -0.4192  1.0548 -0.2142
 2969TIP3   OH230397   6.445   0.058  12.901 -0.2516  0.4156  0.3025
 2969TIP3    H130398   6.505   0.129  12.878  1.3933 -0.4996  1.5343
 2969TIP3    H230399   6.358   0.099  12.902  0.3796  1.8799 -1.1362
 2970TIP3   OH230400   1.369   6.715   1.667  1.1035 -0.2080  0.2040
 2970TIP3    H130401   1.317   6.662   1.606  0.4315 -0.7269  1.1990
 2970TIP3    H230402   1.460   6.697   1.643  0.8648 -1.1121 -0.0736
 2971TIP3   OH230403   2.008   3.756  14.124  0.6551  0.4874  0.1659
 2971TIP3    H130404   1.952   3.688  14.161  0.9825  1.0315  1.7386
 2971TIP3    H230405   1.962   3.838  14.142  0.6607  0.7649 -0.9782
 2972TIP3   OH230406   1.252   3.913   2.284 -0.1900 -0.0520 -0.3171
 2972TIP3    H130407   1.297   3.956   2.356 -0.4898 -1.3961  0.7173
 2972TIP3    H230408   1.318   3.902   2.216 -0.2104  2.3638 -0.7952
 2973TIP3   OH230409   4.399   2.895   2.733 -0.4119  0.0606  0.0530
 2973TIP3    H130410   4.313   2.910   2.692  0.4153  0.2020 -1.6992
 2973TIP3    H230411   4.448   2.975   2.716  1.0484 -1.1106 -1.5652
 2974TIP3   OH230412   6.445   2.196  11.262 -0.3201 -0.1982  0.2830
 2974TIP3    H130413   6.529   2.154  11.242  1.3183  2.3715  1.2616
 2974TIP3    H230414   6.391   2.180  11.185  1.6064 -0.6926 -1.0298
 2975TIP3   OH230415   6.363   6.771  11.391 -0.1978 -0.5505 -0.0686
 2975TIP3    H130416   6.285   6.826  11.401 -1.0103 -1.7872  0.7596
 2975TIP3    H230417   6.436   6.826  11.420 -0.4850  1.1880 -2.3386
 2976TIP3   OH230418   2.556   4.287  16.836 -0.2167 -0.9215 -0.6303
 2976TIP3    H130419   2.584   4.378  16.843  0.3048 -1.1632  1.0963
 2976TIP3    H230420   2.465   4.287  16.866 -0.7765 -0.7495 -2.2446
 2977TIP3   OH230421   1.707   6.839  15.217 -0.2743 -0.0424  0.0477
 2977TIP3    H130422   1.790   6.822  15.173 -0.4277 -1.3738  0.2358
 2977TIP3    H230423   1.723   6.817  15.309 -1.0380 -1.1062 -0.0559
 2978TIP3   OH230424   1.016   1.871   1.233  0.1703 -0.4258 -0.5718
 2978TIP3    H130425   1.081   1.933   1.265  0.1003 -0.9673  0.6794
 2978TIP3    H230426   1.068   1.800   1.194  0.3030 -0.3676 -0.5004
 2979TIP3   OH230427   3.252   2.990   4.745  0.1159 -0.0114 -0.4926
 2979TIP3    H130428   3.297   2.909   4.770  2.3000  0.1826 -3.2222
 2979TIP3    H230429   3.296   3.017   4.664 -1.0835  3.4890 -0.1376
 2980TIP3   OH230430   4.625   6.827  14.774  0.2650  0.3290  0.0251
 2980TIP3    H130431   4.710   6.830  14.730 -0.1087 -1.3445 -0.8884
 2980TIP3    H230432   4.568   6.881  14.718  0.1491 -0.5705 -0.7395
 2981TIP3   OH230433   2.489   1.017   5.704 -0.1095  0.5188  0.4639
 2981TIP3    H130434   2.447   0.932   5.700  0.9408 -0.0112  0.3910
 2981TIP3    H230435   2.479   1.045   5.795  0.7584 -0.3297  0.8375
 2982TIP3   OH230436   5.086   0.538   3.479  0.1218  0.5755  0.5256
 2982TIP3    H130437   5.110   0.493   3.398 -1.6919 -0.6234  0.5966
 2982TIP3    H230438   5.163   0.590   3.501  1.0382  0.1326 -1.4076
 2983TIP3   OH230439   4.858   2.553  15.282 -0.3375 -0.0405 -0.2202
 2983TIP3    H130440   4.848   2.580  15.190  0.0102  0.3521 -0.1447
 2983TIP3    H230441   4.776   2.509  15.303 -1.2795  1.6990 -0.0836
 2984TIP3   OH230442   2.755   5.053   4.319 -0.7956 -0.0546  0.6598
 2984TIP3    H130443   2.697   5.047   4.243 -0.9358 -1.5690  0.8636
 2984TIP3    H230444   2.699   5.087   4.389 -1.0613 -0.1413  0.4895
 2985TIP3   OH230445   0.706   3.275   6.374 -0.0867  0.0081  0.0127
 2985TIP3    H130446   0.787   3.325   6.369  0.3513 -0.6236  0.5177
 2985TIP3    H230447   0.732   3.186   6.347 -0.2644 -0.5616  1.6196
 2986TIP3   OH230448   5.806   1.714  13.521 -0.2465 -0.1953  0.0199
 2986TIP3    H130449   5.723   1.762  13.512 -0.2035 -0.0855  0.2012
 2986TIP3    H230450   5.842   1.711  13.432 -1.9782 -3.0253 -0.7147
 2987TIP3   OH230451   2.450   4.297  15.460 -0.7469 -0.3401  0.1765
 2987TIP3    H130452   2.402   4.239  15.400 -0.8694 -0.0620  0.0010
 2987TIP3    H230453   2.537   4.304  15.422 -0.7223 -0.4409  0.2167
 2988TIP3   OH230454   5.422   6.209  12.718  0.4396  0.1898 -0.0395
 2988TIP3    H130455   5.416   6.125  12.672  0.6739  0.5790 -0.7962
 2988TIP3    H230456   5.369   6.269  12.666 -1.2798  0.1180  1.4941
 2989TIP3   OH230457   0.846   6.087   5.455 -0.0376 -0.1014  0.1863
 2989TIP3    H130458   0.865   6.138   5.376 -0.2436 -1.2746 -0.6601
 2989TIP3    H230459   0.814   6.150   5.518  1.4955  1.1011 -0.1766
 2990TIP3   OH230460   4.945   6.566   1.405  0.5643 -0.1607  0.1893
 2990TIP3    H130461   5.015   6.609   1.356 -0.1863  0.2118 -0.5710
 2990TIP3    H230462   4.939   6.615   1.487 -0.3716  1.3058 -0.7163
 2991TIP3   OH230463   6.054   4.875  12.119 -0.5599  0.1154 -0.0379
 2991TIP3    H130464   6.073   4.813  12.048  2.1487 -0.6295  1.1994
 2991TIP3    H230465   6.069   4.961  12.079 -4.0146  0.1000 -1.6751
 2992TIP3   OH230466   5.692   4.056   4.159  0.2507  0.3796  0.0546
 2992TIP3    H130467   5.683   4.149   4.183 -0.7673  0.0887  0.8628
 2992TIP3    H230468   5.621   4.041   4.097 -0.9180 -0.3555  1.5187
 2993TIP3   OH230469   3.796   0.726   4.795 -0.0199 -0.2914  0.1486
 2993TIP3    H130470   3.725   0.744   4.858 -0.2528  1.9036 -0.6566
 2993TIP3    H230471   3.868   0.693   4.849 -1.3676 -1.9358  1.0696
 2994TIP3   OH230472   0.979   3.966  16.111  0.7147 -0.1341 -0.7359
 2994TIP3    H130473   0.923   4.038  16.083 -3.6183 -2.2024  1.6193
 2994TIP3    H230474   0.999   3.987  16.203  1.0874 -0.9844 -0.6166
 2995TIP3   OH230475   3.096   1.832   5.218  0.4488 -0.1135  0.2212
 2995TIP3    H130476   3.025   1.780   5.183  0.6447 -0.2073 -0.0376
 2995TIP3    H230477   3.119   1.893   5.148  2.2717 -1.6982 -0.6674
 2996TIP3   OH230478   0.295   3.058   4.809  0.6690  0.2689 -0.4708
 2996TIP3    H130479   0.371   3.008   4.778  0.1650 -0.3243 -0.7800
 2996TIP3    H230480   0.254   3.091   4.729 -2.5130 -3.9527 -0.9816
 2997TIP3   OH230481   2.931   5.632  11.469  0.3630  0.3883 -0.0170
 2997TIP3    H130482   2.897   5.631  11.559  1.1867 -0.2620  0.3018
 2997TIP3    H230483   3.013   5.682  11.476 -0.3033  1.6196 -0.7023
 2998TIP3   OH230484   1.477   3.840   3.156 -0.1653 -0.1297 -0.2273
 2998TIP3    H130485   1.421   3.891   3.096 -2.3265 -1.7724  0.2447
 2998TIP3    H230486   1.416   3.779   3.198  1.7794 -0.9284  1.5702
 2999TIP3   OH230487   3.091   6.324  16.003 -0.8715 -0.2847  0.0013
 2999TIP3    H130488   3.102   6.406  15.955  2.1991 -0.3730  0.3686
 2999TIP3    H230489   3.098   6.255  15.937  0.7949 -0.3145  0.1503
 3000TIP3   OH230490   3.015   1.795   0.499  0.1192  0.1654 -0.4239
 3000TIP3    H130491   3.075   1.848   0.447  1.1524  0.2170  0.7823
 3000TIP3    H230492   3.070   1.756   0.567 -0.9124 -1.1873 -0.3328
 3001TIP3   OH230493   6.183   3.154   5.970  1.2546 -0.0696 -0.1149
 3001TIP3    H130494   6.259   3.160   5.913  2.1864  0.3128  1.1205
 3001TIP3    H230495   6.132   3.081   5.935  0.2159  1.9438 -3.2376
 3002TIP3   OH230496   4.695   5.240  16.704  0.3733  0.0428  0.6999
 3002TIP3    H130497   4.743   5.231  16.622  2.9778  0.3812  2.0985
 3002TIP3    H230498   4.735   5.176  16.763 -1.2244  0.0269  1.8497
 3003TIP3   OH230499   5.587   4.146   2.345 -0.6084 -0.0848  0.4603
 3003TIP3    H130500   5.617   4.084   2.412  0.6384  1.1843  1.1200
 3003TIP3    H230501   5.649   4.218   2.349 -2.1507  1.3431 -0.1202
 3004TIP3   OH230502   3.502   0.721  13.910  0.4412  0.4801  0.0945
 3004TIP3    H130503   3.449   0.679  13.842  1.2534  0.5161 -0.5722
 3004TIP3    H230504   3.438   0.752  13.974 -0.4742  1.6660 -1.3180
 3005TIP3   OH230505   0.649   2.926  15.555 -0.1668  0.7346 -0.4922
 3005TIP3    H130506   0.621   2.928  15.646 -0.1300 -0.2098 -0.4535
 3005TIP3    H230507   0.684   2.838  15.542  0.4281  1.0735 -1.2409
 3006TIP3   OH230508   0.761   4.319  11.885 -0.4344  0.0368  0.1816
 3006TIP3    H130509   0.818   4.243  11.871  0.1999  0.0657  2.3254
 3006TIP3    H230510   0.821   4.391  11.902 -1.0730  0.5914  0.1302
 3007TIP3   OH230511   0.916   4.867   5.214  0.0289 -0.7459 -0.1258
 3007TIP3    H130512   0.970   4.817   5.152 -0.1106  0.6036 -1.4177
 3007TIP3    H230513   0.833   4.880   5.168 -0.0858  0.2642  0.3426
 3008TIP3   OH230514   5.781   5.863   1.450  0.3895 -0.4666  0.1186
 3008TIP3    H130515   5.838   5.878   1.375  1.1378 -0.0382  0.7644
 3008TIP3    H230516   5.795   5.771   1.473 -0.1701 -0.7242 -0.5190
 3009TIP3   OH230517   2.898   4.623  16.962 -0.1703 -0.6190 -0.9088
 3009TIP3    H130518   2.824   4.565  16.976 -0.1876 -0.7899 -1.6435
 3009TIP3    H230519   2.891   4.689  17.031 -0.4751 -1.1621 -0.4187
 3010TIP3   OH230520   2.556   0.206   4.669  0.5326  0.4260  0.6096
 3010TIP3    H130521   2.609   0.127   4.657 -0.1618  0.2201 -1.3562
 3010TIP3    H230522   2.608   0.276   4.631  0.9114  0.8726  1.8785
 3011TIP3   OH230523   6.846   1.459   0.342 -0.6789  0.4340 -1.1068
 3011TIP3    H130524   6.832   1.412   0.259  0.3445  0.6739 -1.4288
 3011TIP3    H230525   6.814   1.547   0.325  0.4168  0.7604 -1.5852
 3012TIP3   OH230526   5.775   5.016   0.389 -0.6686 -0.3730 -0.1744
 3012TIP3    H130527   5.785   5.091   0.331  0.1920 -0.7341 -0.5146
 3012TIP3    H230528   5.785   5.051   0.477 -0.7726 -0.0131 -0.3070
 3013TIP3   OH230529   0.825   1.330   1.267  0.3169 -0.1153  0.5315
 3013TIP3    H130530   0.799   1.285   1.186  0.2522  0.7138  0.0804
 3013TIP3    H230531   0.768   1.407   1.271  3.2592  2.3769 -1.0593
 3014TIP3   OH230532   3.124   1.320   3.087  0.3922  0.3098 -0.2272
 3014TIP3    H130533   3.046   1.267   3.067 -1.0203  1.9165  0.7181
 3014TIP3    H230534   3.171   1.327   3.004 -0.4166 -0.7847 -0.8026
 3015TIP3   OH230535   4.500   0.982  11.628  0.7630 -0.2526 -0.1135
 3015TIP3    H130536   4.507   1.033  11.709  3.1387  0.2370 -0.5623
 3015TIP3    H230537   4.493   1.048  11.559 -0.1835 -0.6483 -0.4073
 3016TIP3   OH230538   2.631   6.579  11.901  0.0319 -0.6365 -0.2611
 3016TIP3    H130539   2.618   6.673  11.910 -1.0129 -0.6528 -1.3984
 3016TIP3    H230540   2.562   6.540  11.954 -0.5914 -0.7357 -1.1173
 3017TIP3   OH230541   0.722   3.498  14.895  0.5473 -0.1224  0.1477
 3017TIP3    H130542   0.775   3.572  14.867  2.2251 -1.3892 -0.2371
 3017TIP3    H230543   0.744   3.428  14.832 -0.1396 -1.2659  1.1299
 3018TIP3   OH230544   6.524   2.926  16.293 -0.2993  0.5092  0.4006
 3018TIP3    H130545   6.575   2.971  16.226 -1.9518  1.9579  0.0384
 3018TIP3    H230546   6.589   2.883  16.348  1.1635  0.5018 -1.2694
 3019TIP3   OH230547   1.315   6.028   6.045  0.4511  0.4616 -0.6918
 3019TIP3    H130548   1.241   6.062   6.095  0.5306  1.0333 -0.9506
 3019TIP3    H230549   1.359   5.967   6.104 -1.4280 -1.5366 -1.2402
 3020TIP3   OH230550   2.010   4.576  14.897 -0.1547 -0.2287  0.7465
 3020TIP3    H130551   2.050   4.632  14.963  0.2663  2.0118 -1.2609
 3020TIP3    H230552   2.084   4.527  14.860 -0.0023  0.2857  0.3540
 3021TIP3   OH230553   3.884   5.047   4.335 -0.2487  0.2976  0.2657
 3021TIP3    H130554   3.927   5.000   4.406 -3.3510  1.7884  3.4944
 3021TIP3    H230555   3.791   5.032   4.349 -1.1493  3.0922 -1.6713
 3022TIP3   OH230556   6.309   5.221   2.457  0.0858 -0.1999 -0.4710
 3022TIP3    H130557   6.393   5.180   2.436  1.3577  2.5017 -1.1174
 3022TIP3    H230558   6.331   5.291   2.518 -1.6608  0.7059 -0.8039
 3023TIP3   OH230559   4.929   4.579  16.037  0.6223 -0.3694  0.7160
 3023TIP3    H130560   4.954   4.616  16.122 -0.8012 -0.8360  1.3707
 3023TIP3    H230561   4.970   4.493  16.035  0.6853 -0.3446  0.9073
 3024TIP3   OH230562   6.371   6.623   2.748  0.1406 -0.0242  0.1172
 3024TIP3    H130563   6.356   6.556   2.682  2.2067  0.3793 -0.8264
 3024TIP3    H230564   6.447   6.592   2.797 -1.0238 -0.0520  2.0226
 3025TIP3   OH230565   2.501   0.368  15.742  0.7090  0.5973  0.3182
 3025TIP3    H130566   2.421   0.378  15.794 -0.0653  1.3830 -0.9579
 3025TIP3    H230567   2.499   0.276  15.714  0.3245  0.5749  0.4145
 3026TIP3   OH230568   0.818   5.394  14.286 -0.1081  0.3688 -0.5538
 3026TIP3    H130569   0.877   5.408  14.360  1.4384 -1.8807 -1.2466
 3026TIP3    H230570   0.834   5.470  14.229  1.7044  0.1596 -0.4080
 3027TIP3   OH230571   0.548   2.808  11.937  0.0624  0.2910 -0.1721
 3027TIP3    H130572   0.643   2.822  11.947  0.0680 -1.0293  2.5403
 3027TIP3    H230573   0.541   2.741  11.870  1.4824 -2.8064  2.4725
 3028TIP3   OH230574   4.753   2.263   5.107 -0.0527  0.5166 -0.0634
 3028TIP3    H130575   4.698   2.219   5.172  0.5086  0.7719  0.5961
 3028TIP3    H230576   4.738   2.356   5.121  1.7997  0.6700  1.2884
 3029TIP3   OH230577   5.969   0.132   4.012  0.0709 -0.5899  0.3510
 3029TIP3    H130578   5.990   0.217   4.050  1.1188 -0.9870  0.6956
 3029TIP3    H230579   6.037   0.117   3.947 -0.6034 -0.7902 -0.3313
 3030TIP3   OH230580   6.079   2.075  14.763 -0.4890 -0.0283 -0.2940
 3030TIP3    H130581   6.166   2.095  14.729 -0.2591 -0.1143  0.2385
 3030TIP3    H230582   6.094   2.014  14.836 -1.0555 -0.7172 -0.7379
 3031TIP3   OH230583   1.432   1.991  16.349  0.0994 -0.1222 -0.0877
 3031TIP3    H130584   1.515   1.987  16.301  0.7560  0.3650  0.9707
 3031TIP3    H230585   1.378   1.924  16.308  0.5685  0.3916 -1.6239
 3032TIP3   OH230586   3.401   3.149   3.993 -0.2366  0.3778 -0.3159
 3032TIP3    H130587   3.402   3.082   4.062 -0.2168  0.8237  0.1264
 3032TIP3    H230588   3.483   3.136   3.946 -0.8038 -0.7244 -1.0433
 3033TIP3   OH230589   0.628   5.007  16.069 -0.2121 -0.5925  0.4176
 3033TIP3    H130590   0.663   4.939  16.011  0.0989 -3.3004  3.5014
 3033TIP3    H230591   0.700   5.070  16.078  0.7361 -1.5887  0.0186
 3034TIP3   OH230592   2.624   6.803  13.790 -0.4243  0.5838 -0.0105
 3034TIP3    H130593   2.548   6.859  13.806 -0.8477 -0.4255  1.8568
 3034TIP3    H230594   2.684   6.822  13.862  0.8915  0.9700 -1.1629
 3035TIP3   OH230595   0.818   2.628  16.513 -0.0527  0.0047 -0.3515
 3035TIP3    H130596   0.737   2.666  16.478 -1.4496 -1.8199  0.7056
 3035TIP3    H230597   0.829   2.671  16.598 -0.6455 -0.6081  0.0537
 3036TIP3   OH230598   4.554   3.354   5.576  0.8324 -0.8563 -0.7771
 3036TIP3    H130599   4.591   3.282   5.626 -0.5556 -1.2768 -0.3004
 3036TIP3    H230600   4.461   3.354   5.599  0.8952  1.5238 -0.2092
 3037TIP3   OH230601   0.300   0.910   3.549 -0.0092 -0.3989  0.8121
 3037TIP3    H130602   0.336   0.984   3.599  0.0147  0.3300 -0.2574
 3037TIP3    H230603   0.367   0.842   3.556 -0.0073 -0.3129  1.7656
 3038TIP3   OH230604   3.512   3.270  10.204  0.5787 -0.6363  0.5604
 3038TIP3    H130605   3.555   3.224  10.132  1.5935 -1.0557  1.4045
 3038TIP3    H230606   3.436   3.216  10.226 -0.1167 -0.1681 -0.5948
 3039TIP3   OH230607   5.796   3.188  12.119 -0.6853 -0.0689  0.0298
 3039TIP3    H130608   5.731   3.121  12.098  1.3713 -2.4084  0.5418
 3039TIP3    H230609   5.789   3.200  12.214  0.4294 -1.3538  0.3153
 3040TIP3   OH230610   1.628   4.526   5.817 -0.1058  0.3740  0.3753
 3040TIP3    H130611   1.631   4.494   5.727 -1.2743 -1.4465  0.9198
 3040TIP3    H230612   1.568   4.600   5.815  0.2282  0.6329 -0.4015
 3041TIP3   OH230613   1.191   5.041   1.924  0.0332 -0.1242 -0.4462
 3041TIP3    H130614   1.184   4.945   1.922  0.0774 -0.1232 -1.1538
 3041TIP3    H230615   1.279   5.059   1.890  1.0300  0.0961  2.0317
 3042TIP3   OH230616   3.537   2.596  12.370  0.4982 -0.4885 -0.1324
 3042TIP3    H130617   3.494   2.621  12.452 -0.0567  0.9067 -0.8220
 3042TIP3    H230618   3.574   2.677  12.336  1.1672 -1.1425 -1.0144
 3043TIP3   OH230619   3.547   5.599  15.442  0.1381 -0.5739 -0.9548
 3043TIP3    H130620   3.562   5.633  15.354  0.0863 -1.1532 -1.1924
 3043TIP3    H230621   3.626   5.620  15.490  0.4756 -0.9205 -1.3508
 3044TIP3   OH230622   3.338   1.945   2.156 -0.4264  0.3595  0.2082
 3044TIP3    H130623   3.245   1.933   2.139  0.1540 -1.5756 -2.1710
 3044TIP3    H230624   3.375   1.971   2.072  1.5418 -1.6561  0.3443
 3045TIP3   OH230625   0.617   3.393   5.280  0.2606 -0.0118 -0.0608
 3045TIP3    H130626   0.546   3.342   5.318  0.0200  0.5341  0.2331
 3045TIP3    H230627   0.674   3.328   5.239 -0.3908 -0.4599 -0.2765
 3046TIP3   OH230628   1.520   5.377  12.839 -0.5483  0.1368  0.4167
 3046TIP3    H130629   1.532   5.469  12.817 -1.4498 -0.0392 -0.9357
 3046TIP3    H230630   1.507   5.333  12.755  1.9109 -1.5787  0.8209
 3047TIP3   OH230631   5.778   2.461   2.840  0.0204 -0.0192 -0.3051
 3047TIP3    H130632   5.726   2.509   2.905  0.4021 -1.1156  0.8679
 3047TIP3    H230633   5.742   2.486   2.756 -2.2772 -0.5770  0.4450
 3048TIP3   OH230634   0.488   2.326  15.017 -0.4735  0.0411 -0.2864
 3048TIP3    H130635   0.474   2.302  14.925  0.3215 -1.1087 -0.1247
 3048TIP3    H230636   0.403   2.313  15.059 -0.6359 -0.2204 -0.6902
 3049TIP3   OH230637   5.610   1.181   6.615  0.1510  0.1464 -0.3849
 3049TIP3    H130638   5.534   1.182   6.672 -0.1943 -0.0596 -0.8315
 3049TIP3    H230639   5.684   1.166   6.673 -0.1283  0.5546  0.0745
 3050TIP3   OH230640   3.186   4.091  16.499 -0.2308 -0.1067 -0.3770
 3050TIP3    H130641   3.190   4.167  16.441 -0.5167 -0.0461 -0.3168
 3050TIP3    H230642   3.251   4.109  16.567  0.2490 -0.2689 -0.7865
 3051TIP3   OH230643   0.909   2.456   6.292  0.4788  0.0005  0.0821
 3051TIP3    H130644   0.887   2.531   6.237  0.2231 -1.0721 -1.3373
 3051TIP3    H230645   0.898   2.380   6.234  0.3891 -1.1628  1.5692
 3052TIP3   OH230646   1.833   2.716  16.337  0.1662 -0.2838  0.3735
 3052TIP3    H130647   1.746   2.704  16.374  1.3680 -0.5827  3.3440
 3052TIP3    H230648   1.837   2.808  16.313 -0.0728  0.4624  2.9427
 3053TIP3   OH230649   1.154   5.193  11.370  0.1340 -0.0464 -0.2933
 3053TIP3    H130650   1.125   5.121  11.426  0.9647 -1.1582 -1.2452
 3053TIP3    H230651   1.249   5.194  11.379  0.0786  1.8315  0.7349
 3054TIP3   OH230652   3.181   2.202  11.967 -0.1165 -0.1058  0.7461
 3054TIP3    H130653   3.214   2.282  12.008 -0.3205 -0.5081  1.7256
 3054TIP3    H230654   3.226   2.198  11.882  2.7666 -0.8448  2.1853
 3055TIP3   OH230655   5.418   6.469   2.148 -0.1987 -0.2463  0.2634
 3055TIP3    H130656   5.406   6.514   2.065  1.7453  0.5381  0.3398
 3055TIP3    H230657   5.461   6.387   2.125 -0.6273 -0.5170  0.4145
 3056TIP3   OH230658   2.634   0.097  10.735  0.5109  0.0582 -0.1792
 3056TIP3    H130659   2.675   0.031  10.679  0.6956  0.4339 -0.4963
 3056TIP3    H230660   2.705   0.129  10.790 -0.1726 -2.2828  2.3193
 3057TIP3   OH230661   2.452   3.323  17.026  0.0398  0.5143  0.4542
 3057TIP3    H130662   2.371   3.323  16.975  0.1975  1.7160  0.1839
 3057TIP3    H230663   2.442   3.396  17.087  0.3047 -0.2392  1.4441
 3058TIP3   OH230664   5.570   2.400   2.066 -0.9600  0.2545  0.2740
 3058TIP3    H130665   5.601   2.424   2.154  1.1496  0.2851 -0.4290
 3058TIP3    H230666   5.649   2.399   2.012 -2.2825  0.8279 -1.7817
 3059TIP3   OH230667   1.479   4.497   2.617 -0.9203  0.7418  0.5433
 3059TIP3    H130668   1.558   4.491   2.563 -1.6025  0.4347 -0.4493
 3059TIP3    H230669   1.475   4.413   2.662  0.0293  1.2606  1.6352
 3060TIP3   OH230670   0.007   6.553   2.255  0.4619 -0.2024 -0.4294
 3060TIP3    H130671   0.063   6.621   2.216  1.8748  0.1746  2.0396
 3060TIP3    H230672   0.067   6.481   2.274 -0.3083 -0.6684  0.3007
 3061TIP3   OH230673   3.319   6.134  14.531  0.2031 -0.4011 -0.4139
 3061TIP3    H130674   3.255   6.094  14.472  0.4058 -1.1162 -0.1600
 3061TIP3    H230675   3.376   6.185  14.472  0.6898 -1.4869 -0.9270
 3062TIP3   OH230676   4.304   3.595   4.136  0.0494 -0.1505 -0.3122
 3062TIP3    H130677   4.372   3.662   4.145  0.4491 -0.4732 -0.8830
 3062TIP3    H230678   4.312   3.564   4.046 -0.7050 -0.3564 -0.3124
 3063TIP3   OH230679   2.381   3.289   1.380 -0.0214  0.3396  0.1963
 3063TIP3    H130680   2.465   3.327   1.352  0.2057  0.6606  1.2741
 3063TIP3    H230681   2.403   3.201   1.410 -0.3128 -0.1159 -0.8743
 3064TIP3   OH230682   3.916   4.700   2.863 -0.0455  0.0608  0.3251
 3064TIP3    H130683   3.906   4.669   2.953 -1.5256  0.8256  0.4578
 3064TIP3    H230684   3.914   4.621   2.810 -2.9491 -0.2453  0.7118
 3065TIP3   OH230685   3.717   1.448  12.990 -0.1721  0.1502 -0.7213
 3065TIP3    H130686   3.798   1.421  12.947  0.9584  2.0050  0.1044
 3065TIP3    H230687   3.648   1.417  12.933  1.0391 -2.3263 -1.0060
 3066TIP3   OH230688   5.449   2.990  16.393 -0.0007  0.5928  0.1894
 3066TIP3    H130689   5.511   2.980  16.321 -2.1956 -0.2472 -1.7136
 3066TIP3    H230690   5.390   3.060  16.365 -1.6628 -0.6070  0.5161
 3067TIP3   OH230691   3.980   2.552   1.551 -0.7642  0.4922  0.0725
 3067TIP3    H130692   3.989   2.536   1.457  0.9934  1.6895  0.0084
 3067TIP3    H230693   3.911   2.618   1.558 -0.6995  0.6088 -0.3863
 3068TIP3   OH230694   0.924   0.083   2.587 -0.0677 -0.4784 -0.1245
 3068TIP3    H130695   1.006   0.088   2.636 -1.0315 -1.3233  1.6792
 3068TIP3    H230696   0.892  -0.006   2.603 -1.8248  0.1511  0.0829
 3069TIP3   OH230697   2.856   1.794   2.843 -0.4881 -0.1016  0.4996
 3069TIP3    H130698   2.828   1.752   2.925  0.3135  1.8523  1.8624
 3069TIP3    H230699   2.950   1.807   2.854 -0.5635  1.2165 -0.2280
 3070TIP3   OH230700   0.239   6.400   4.836 -0.2836 -0.7342 -0.2036
 3070TIP3    H130701   0.238   6.433   4.746 -1.3095 -0.6481 -0.1720
 3070TIP3    H230702   0.320   6.435   4.874  0.0618 -0.6103 -1.0276
 3071TIP3   OH230703   0.464   5.438  16.435  0.0195 -0.2329 -0.2576
 3071TIP3    H130704   0.468   5.525  16.395 -0.2095 -0.5235 -0.9353
 3071TIP3    H230705   0.513   5.381  16.374  1.8715 -0.2330  1.1557
 3072TIP3   OH230706   0.885   2.218   3.629  0.3861 -0.2761  0.5555
 3072TIP3    H130707   0.935   2.293   3.598  0.2397 -0.2507  0.3790
 3072TIP3    H230708   0.942   2.143   3.612 -0.0271 -0.3617 -0.5828
 3073TIP3   OH230709   0.591   1.702  14.746  0.0473  0.2436 -0.0681
 3073TIP3    H130710   0.614   1.666  14.832  1.8769  0.3599 -0.4757
 3073TIP3    H230711   0.590   1.626  14.688  1.2709  0.4476 -0.3982
 3074TIP3   OH230712   1.765   0.083   3.244  0.1382  0.4998 -0.2368
 3074TIP3    H130713   1.828   0.011   3.242 -0.2929  0.0733  0.7503
 3074TIP3    H230714   1.818   0.161   3.232  0.6057  0.0305 -1.3866
 3075TIP3   OH230715   4.559   5.081  14.625 -0.1635 -0.3636 -0.1828
 3075TIP3    H130716   4.587   5.165  14.590  0.7770  0.3222  2.0301
 3075TIP3    H230717   4.605   5.073  14.709 -1.3853 -2.3960  0.3751
 3076TIP3   OH230718   5.470   4.161  12.992 -0.4930 -0.0736 -0.1110
 3076TIP3    H130719   5.453   4.247  13.030  2.8424  0.5012  0.4019
 3076TIP3    H230720   5.448   4.099  13.062 -1.6967  0.4166 -0.0344
 3077TIP3   OH230721   0.739   6.104  14.808 -0.0815  0.0815  0.1184
 3077TIP3    H130722   0.650   6.117  14.776  0.2255 -0.4898 -1.0466
 3077TIP3    H230723   0.767   6.022  14.767  0.8565  0.0743  0.7456
 3078TIP3   OH230724   5.310   6.607   2.975  0.5718 -0.1278 -0.4072
 3078TIP3    H130725   5.223   6.586   3.008  0.3533  0.0231 -0.8890
 3078TIP3    H230726   5.335   6.531   2.922 -0.0001  0.5715 -1.7158
 3079TIP3   OH230727   5.980   2.427  11.330  0.3764  0.1402 -0.0482
 3079TIP3    H130728   5.891   2.438  11.297 -0.7994  1.2208  3.0763
 3079TIP3    H230729   5.992   2.332  11.337 -0.2222 -0.0291 -1.1331
 3080TIP3   OH230730   5.886   4.388   5.372  0.1567  0.2107 -0.0630
 3080TIP3    H130731   5.852   4.332   5.303  0.1093 -0.5971  0.5970
 3080TIP3    H230732   5.898   4.473   5.331 -0.7635 -0.0132 -0.8222
 3081TIP3   OH230733   2.265   2.886  17.018 -0.1006 -0.1871 -0.0283
 3081TIP3    H130734   2.238   2.877  17.110  1.7655  1.8993  0.8133
 3081TIP3    H230735   2.359   2.900  17.022 -0.0696  0.5545 -2.2299
 3082TIP3   OH230736   6.078   4.747   1.533 -0.4833  0.4300 -0.2611
 3082TIP3    H130737   6.000   4.795   1.561 -1.7695 -1.4968 -0.3255
 3082TIP3    H230738   6.113   4.708   1.613 -0.1853  0.4585 -0.3767
 3083TIP3   OH230739   2.415   0.940   4.424  0.5483  0.4494 -0.0369
 3083TIP3    H130740   2.331   0.987   4.429  1.3119  1.7840  0.8182
 3083TIP3    H230741   2.464   0.972   4.499  1.2336 -1.5351  0.3986
 3084TIP3   OH230742   1.483   3.433   3.186  0.2024 -0.0806  0.3752
 3084TIP3    H130743   1.510   3.457   3.274  0.1541  0.4565  0.2512
 3084TIP3    H230744   1.390   3.457   3.182  0.1945 -0.1365  0.1951
 3085TIP3   OH230745   4.645   6.305   2.287 -0.2182 -0.2325 -0.9582
 3085TIP3    H130746   4.636   6.286   2.381  3.0561 -1.1085 -0.6833
 3085TIP3    H230747   4.717   6.369   2.283 -1.5890  1.3143 -2.8227
 3086TIP3   OH230748   3.835   1.085  12.191  0.0469  0.2772 -0.1169
 3086TIP3    H130749   3.814   1.034  12.113  0.1631  0.8444 -0.5234
 3086TIP3    H230750   3.930   1.097  12.188  0.2282 -0.8038  0.8035
 3087TIP3   OH230751   5.947   3.502  16.559 -0.0257  0.5667  0.0426
 3087TIP3    H130752   5.959   3.473  16.650 -1.5535  0.9047  0.3884
 3087TIP3    H230753   6.033   3.534  16.532  0.4597  0.4462  1.3736
 3088TIP3   OH230754   1.253   0.369  16.606  0.2192  0.0644 -0.7797
 3088TIP3    H130755   1.178   0.312  16.588 -1.2025  1.6446 -0.1323
 3088TIP3    H230756   1.329   0.314  16.591 -1.0734 -1.7562 -0.9539
 3089TIP3   OH230757   5.979   4.281  15.895  0.6359  0.3936 -0.3479
 3089TIP3    H130758   5.965   4.218  15.965 -3.2332 -0.2712 -1.4938
 3089TIP3    H230759   6.007   4.228  15.820  0.7136  0.4955 -0.3907
 3090TIP3   OH230760   4.261   0.665  12.845  0.0900 -0.1227  0.3833
 3090TIP3    H130761   4.327   0.596  12.851  0.0314 -0.1420  0.9112
 3090TIP3    H230762   4.178   0.620  12.856 -0.0231 -0.1224 -0.4637
 3091TIP3   OH230763   0.172   0.506   5.260 -0.0183 -0.0895 -0.1079
 3091TIP3    H130764   0.220   0.576   5.216  1.3954 -0.9048  0.0645
 3091TIP3    H230765   0.115   0.470   5.192  1.6984 -0.9373 -1.1935
 3092TIP3   OH230766   2.498   4.329  16.532  1.2964  0.4552  0.5458
 3092TIP3    H130767   2.511   4.364  16.444  1.5370  2.6304  1.3896
 3092TIP3    H230768   2.585   4.334  16.573  1.1960 -0.5669  0.9129
 3093TIP3   OH230769   4.691   3.768   3.741 -0.0130 -0.7355  0.2885
 3093TIP3    H130770   4.765   3.713   3.766 -0.0457 -0.3157  1.3747
 3093TIP3    H230771   4.703   3.848   3.791  0.6395  0.7505 -2.0829
 3094TIP3   OH230772   4.747   3.008  14.243  0.3348  0.2639  0.5074
 3094TIP3    H130773   4.770   2.929  14.194  0.0342  0.2868  0.3247
 3094TIP3    H230774   4.651   3.012  14.236  0.3797  0.8551  0.1855
 3095TIP3   OH230775   1.485   3.157   2.779 -0.1343 -0.1395  0.5026
 3095TIP3    H130776   1.432   3.188   2.852 -0.2308 -1.2423  0.9275
 3095TIP3    H230777   1.426   3.101   2.729 -0.1505  0.8304 -0.5971
 3096TIP3   OH230778   2.927   3.739  13.555 -0.4561 -0.2485  0.3510
 3096TIP3    H130779   2.891   3.821  13.589  0.0925 -0.2214  0.8934
 3096TIP3    H230780   2.859   3.674  13.573 -0.4074 -0.1256  1.0091
 3097TIP3   OH230781   4.621   4.338  12.814 -0.0752  0.2553 -0.0853
 3097TIP3    H130782   4.603   4.428  12.788  1.6271  0.4736 -0.5997
 3097TIP3    H230783   4.657   4.345  12.903 -2.0485 -0.1489  0.8035
 3098TIP3   OH230784   4.964   5.479  16.221 -0.3245 -0.1231 -0.0033
 3098TIP3    H130785   4.980   5.399  16.271 -0.0298  0.0332  0.1507
 3098TIP3    H230786   4.965   5.549  16.287 -3.0205 -0.2294  0.2742
 3099TIP3   OH230787   2.307   4.669  10.721 -0.3071  0.5904  0.2773
 3099TIP3    H130788   2.281   4.611  10.650  2.5626 -2.4248  1.4347
 3099TIP3    H230789   2.389   4.709  10.691 -0.7532  1.8480  0.6600
 3100TIP3   OH230790   4.095   0.825   1.515 -0.4544  0.2901 -0.6245
 3100TIP3    H130791   4.070   0.910   1.480 -0.2637  0.7143  0.2430
 3100TIP3    H230792   4.142   0.782   1.443 -0.2922  1.0317 -0.9739
 3101TIP3   OH230793   3.181   1.277  11.303  0.3064  0.6115  0.1810
 3101TIP3    H130794   3.271   1.307  11.312  0.5257 -0.5002  2.5843
 3101TIP3    H230795   3.129   1.340  11.354  0.1373 -0.2586  1.1254
 3102TIP3   OH230796   5.124   0.810  16.550  0.4996  0.2591 -0.0092
 3102TIP3    H130797   5.162   0.887  16.593 -1.6006  1.6516 -0.5270
 3102TIP3    H230798   5.034   0.835  16.530 -0.5676 -2.6930  0.6358
 3103TIP3   OH230799   5.406   3.378  11.360 -0.5976 -0.3335  0.4819
 3103TIP3    H130800   5.426   3.329  11.279  0.5786 -0.9048  1.0927
 3103TIP3    H230801   5.326   3.426  11.339  0.2062  0.3127 -1.3680
 3104TIP3   OH230802   5.632   5.168  12.774  0.3592 -0.8575  0.5880
 3104TIP3    H130803   5.655   5.261  12.779 -0.0945 -0.6211 -1.1201
 3104TIP3    H230804   5.560   5.164  12.711 -0.7553 -2.2002  1.8752
 3105TIP3   OH230805   2.225   0.287  13.556 -0.0155  0.3941  0.7252
 3105TIP3    H130806   2.158   0.355  13.560 -1.2135 -0.7780  1.2996
 3105TIP3    H230807   2.208   0.240  13.475  0.5006  0.4584  0.5719
 3106TIP3   OH230808   3.070   6.802   3.832  0.6006  0.2043 -0.0275
 3106TIP3    H130809   2.997   6.791   3.893 -0.7959  2.6279 -1.1171
 3106TIP3    H230810   3.073   6.896   3.815  4.4771  0.3279  0.4743
 3107TIP3   OH230811   5.816   0.726   0.228 -0.4873  0.2203 -0.0150
 3107TIP3    H130812   5.752   0.655   0.230 -2.2251  1.7028 -0.1404
 3107TIP3    H230813   5.860   0.716   0.144 -0.2785 -1.0426  0.2285
 3108TIP3   OH230814   1.383   6.008  14.073  0.0800  0.4283 -0.2267
 3108TIP3    H130815   1.445   6.064  14.026  0.8031  0.2193  0.4462
 3108TIP3    H230816   1.338   5.960  14.005 -1.2603  2.4980 -0.8925
 3109TIP3   OH230817   6.625   1.076   0.543  0.0474 -0.0638  0.3616
 3109TIP3    H130818   6.637   1.077   0.448 -0.7047 -1.0769  0.2310
 3109TIP3    H230819   6.713   1.069   0.579  0.7054  3.7209 -0.0877
 3110TIP3   OH230820   1.882   5.074   1.887  0.0201 -0.1726 -0.0207
 3110TIP3    H130821   1.895   5.031   1.802  0.9982 -0.1449  0.1020
 3110TIP3    H230822   1.794   5.112   1.881 -0.0985 -0.5373 -0.8559
 3111TIP3   OH230823   1.181   4.946  12.349  0.3671  0.7547 -0.2826
 3111TIP3    H130824   1.086   4.937  12.344  0.1950  1.6524  0.9792
 3111TIP3    H230825   1.214   4.879  12.289 -1.0101 -1.0354  0.8403
 3112TIP3   OH230826   1.183   4.544   0.904 -0.0473  0.0670  0.1405
 3112TIP3    H130827   1.264   4.560   0.954 -0.0785  0.8213 -0.0353
 3112TIP3    H230828   1.113   4.556   0.968 -0.0384 -0.1962  0.2008
 3113TIP3   OH230829   0.519   1.043  15.128 -0.0301 -0.0363  0.2713
 3113TIP3    H130830   0.501   0.949  15.131 -0.2383 -0.0034  0.0740
 3113TIP3    H230831   0.433   1.084  15.128  0.0277  0.1139 -1.0011
 3114TIP3   OH230832   4.911   4.443   4.512  0.5485 -0.7075  0.0487
 3114TIP3    H130833   4.872   4.386   4.578  0.4764  0.0609  0.6842
 3114TIP3    H230834   4.886   4.403   4.428 -3.6980  0.9717  0.2953
 3115TIP3   OH230835   3.213   1.524  15.435  0.4592 -0.2131  0.0371
 3115TIP3    H130836   3.137   1.514  15.378  1.1689  1.5092 -1.3005
 3115TIP3    H230837   3.181   1.572  15.511 -0.0267 -0.5215  0.0314
 3116TIP3   OH230838   1.089   3.116   2.907  0.3987 -0.1422 -0.3747
 3116TIP3    H130839   1.095   3.021   2.906  1.3452 -0.2525  3.3258
 3116TIP3    H230840   1.178   3.146   2.886  0.4378 -0.1118 -0.1644
 3117TIP3   OH230841   2.928   2.444   0.104 -0.2084 -0.1909  0.0983
 3117TIP3    H130842   2.870   2.401   0.167 -1.4533 -1.0400 -1.5275
 3117TIP3    H230843   2.893   2.532   0.096 -0.8616 -0.4802 -0.3433
 3118TIP3   OH230844   4.858   5.883  15.487 -0.0939 -0.6752  0.5770
 3118TIP3    H130845   4.797   5.911  15.419 -0.4284  0.5612  1.3764
 3118TIP3    H230846   4.845   5.944  15.559  0.7826 -1.5171  1.4847
 3119TIP3   OH230847   0.483   1.049  14.061 -0.0386  0.3785 -0.7528
 3119TIP3    H130848   0.477   1.063  14.155  0.3151 -0.6439 -0.5669
 3119TIP3    H230849   0.578   1.045  14.044 -0.1136 -0.2704 -1.0203
 3120TIP3   OH230850   4.882   3.589   4.830 -0.4862 -0.3874 -0.5679
 3120TIP3    H130851   4.871   3.575   4.924 -1.5203 -0.6449 -0.7145
 3120TIP3    H230852   4.793   3.591   4.795 -0.3934  3.3869 -1.0516
 3121TIP3   OH230853   0.334   0.322   0.479 -0.1159  0.1356  0.5375
 3121TIP3    H130854   0.249   0.288   0.508  0.0617 -1.6172 -0.8268
 3121TIP3    H230855   0.332   0.315   0.384  2.1479 -1.6036  0.5145
 3122TIP3   OH230856   6.191   4.939   6.204 -0.0005 -0.1039 -0.2472
 3122TIP3    H130857   6.253   4.868   6.220  0.7250  0.7788  1.1011
 3122TIP3    H230858   6.140   4.945   6.285  1.1235  1.9838  0.3987
 3123TIP3   OH230859   1.449   2.498  11.628 -0.4426 -0.0531  0.4274
 3123TIP3    H130860   1.487   2.493  11.540  0.2556  1.6754  0.6030
 3123TIP3    H230861   1.406   2.413  11.639 -0.2344 -0.4611 -1.4301
 3124TIP3   OH230862   2.535   6.615   0.219 -0.2713 -0.2092 -0.2267
 3124TIP3    H130863   2.621   6.633   0.259 -0.0651  1.3255 -1.2758
 3124TIP3    H230864   2.540   6.524   0.193  0.6993 -0.4062  0.5547
 3125TIP3   OH230865   1.667   0.022   0.759  0.1325 -0.0909  0.1109
 3125TIP3    H130866   1.584   0.004   0.802 -0.1237 -0.6473 -0.5921
 3125TIP3    H230867   1.726   0.047   0.830 -0.6094  0.2261  0.6237
 3126TIP3   OH230868   1.215   5.482   1.253  0.0369 -0.2872  0.0470
 3126TIP3    H130869   1.155   5.508   1.323  0.4917  0.6491  0.1137
 3126TIP3    H230870   1.301   5.480   1.295  0.1478 -0.9365 -0.2068
 3127TIP3   OH230871   5.686   5.800  16.290  0.7902  0.5797  0.3083
 3127TIP3    H130872   5.765   5.789  16.344  0.6036 -1.9142  0.2281
 3127TIP3    H230873   5.714   5.773  16.202  0.4989  2.3264 -0.3489
 3128TIP3   OH230874   3.498   3.477  13.913  0.2389 -0.5684  0.2262
 3128TIP3    H130875   3.409   3.447  13.897 -0.2001  1.0533 -0.5561
 3128TIP3    H230876   3.551   3.429  13.849 -0.4984  0.4936 -1.2579
 3129TIP3   OH230877   0.126   0.098  17.159 -0.3251 -0.2595 -0.2954
 3129TIP3    H130878   0.100   0.050  17.238 -0.8326  0.0243 -0.2939
 3129TIP3    H230879   0.141   0.029  17.093 -0.4297 -0.4593 -0.1104
 3130TIP3   OH230880   4.172   6.219   1.444 -0.2383 -0.0013  0.4380
 3130TIP3    H130881   4.091   6.206   1.493 -1.3196  0.9203 -1.0189
 3130TIP3    H230882   4.179   6.314   1.434  0.7818 -0.0950  0.1266
 3131TIP3   OH230883   0.714   5.083   3.670  0.4386  0.2747  0.6450
 3131TIP3    H130884   0.694   4.990   3.674 -0.7482  0.5522  1.7663
 3131TIP3    H230885   0.708   5.113   3.760 -2.1583  2.0090 -0.0091
 3132TIP3   OH230886   3.386   4.320  12.507 -0.2699 -0.1939 -0.1755
 3132TIP3    H130887   3.456   4.340  12.569 -1.0614 -2.2776  1.5182
 3132TIP3    H230888   3.425   4.333  12.421  1.5815  0.5443  0.7358
 3133TIP3   OH230889   1.039   2.560  14.126 -0.4044  0.1302  0.0784
 3133TIP3    H130890   1.075   2.564  14.038  2.8150  1.9166  1.3078
 3133TIP3    H230891   1.039   2.466  14.148 -0.2521 -0.2432 -1.4154
 3134TIP3   OH230892   2.503   0.022   5.901 -0.7806  0.1565 -0.0974
 3134TIP3    H130893   2.509   0.082   5.827  2.0665 -0.1616 -0.2308
 3134TIP3    H230894   2.422  -0.027   5.885 -0.4762  0.3732 -2.8160
 3135TIP3   OH230895   1.518   0.983  11.415  0.7272  0.3661 -0.2041
 3135TIP3    H130896   1.557   0.898  11.436  1.6869  1.0478  0.9490
 3135TIP3    H230897   1.445   0.992  11.475  0.1167  0.0146 -0.8868
 3136TIP3   OH230898   5.030   4.541   6.690  0.5738 -0.8541  0.9110
 3136TIP3    H130899   5.019   4.635   6.674 -1.8047 -1.0437  1.1225
 3136TIP3    H230900   5.017   4.501   6.604  2.7395 -0.9746  0.5847
 3137TIP3   OH230901   2.546   1.832  16.218 -0.2442 -0.5505  0.3567
 3137TIP3    H130902   2.501   1.807  16.299  1.4550  0.8016  1.8324
 3137TIP3    H230903   2.639   1.816  16.237  0.3254  1.0435 -0.8057
 3138TIP3   OH230904   4.011   5.801  12.326 -0.0121 -0.3228 -0.0516
 3138TIP3    H130905   4.025   5.708  12.307  0.2624 -0.5238  1.0819
 3138TIP3    H230906   3.918   5.816  12.308  0.0290 -0.7238 -0.6116
 3139TIP3   OH230907   2.072   3.884   1.648  0.8507 -0.0883 -0.4644
 3139TIP3    H130908   2.023   3.808   1.618  0.0641  0.3779 -0.3893
 3139TIP3    H230909   2.070   3.878   1.743 -0.0828  0.5584 -0.4356
 3140TIP3   OH230910   5.813   5.381   4.262  1.1307 -0.0382  0.1958
 3140TIP3    H130911   5.884   5.382   4.326 -0.7607 -2.6510  2.6049
 3140TIP3    H230912   5.746   5.439   4.299  0.8776  0.1822 -0.5851
 3141TIP3   OH230913   4.545   3.908  13.809 -0.1018 -0.4288 -0.1151
 3141TIP3    H130914   4.616   3.969  13.790  0.3668 -1.0432 -0.3418
 3141TIP3    H230915   4.536   3.855  13.730 -0.3298 -0.8343  0.1757
 3142TIP3   OH230916   4.838   6.833  14.525 -0.0818  0.1902  0.2769
 3142TIP3    H130917   4.785   6.870  14.454 -0.0049  1.1730  0.7082
 3142TIP3    H230918   4.863   6.747  14.494  0.3064  0.7644 -1.0839
 3143TIP3   OH230919   6.553   1.599   5.600  0.0999  0.1537 -0.3584
 3143TIP3    H130920   6.460   1.599   5.623  0.1471  0.2691 -0.1656
 3143TIP3    H230921   6.562   1.528   5.536  0.3662 -1.6595  1.5969
 3144TIP3   OH230922   4.636   0.899  11.899  0.1634 -0.4377 -0.1422
 3144TIP3    H130923   4.604   0.944  11.978 -0.0174 -0.0940 -0.4093
 3144TIP3    H230924   4.653   0.809  11.929 -1.7387 -0.8396 -0.1335
 3145TIP3   OH230925   2.877   0.027  12.426  0.4666 -0.1796  0.2428
 3145TIP3    H130926   2.873   0.104  12.370 -0.0412 -0.9504 -0.8079
 3145TIP3    H230927   2.864   0.062  12.515  0.0330  0.9069 -0.2279
 3146TIP3   OH230928   0.508   4.667  13.644  0.8719 -0.7701  0.3395
 3146TIP3    H130929   0.485   4.667  13.551  0.2196  1.3894  0.4509
 3146TIP3    H230930   0.543   4.579  13.660  1.3211 -1.0880 -2.0129
 3147TIP3   OH230931   2.738   6.219  13.023  0.3147  0.1221  0.5642
 3147TIP3    H130932   2.645   6.243  13.023  0.0415 -0.8552 -0.2231
 3147TIP3    H230933   2.773   6.262  12.945  0.1593 -0.8028 -0.0205
 3148TIP3   OH230934   2.761   6.009  11.534 -0.3582 -0.9459 -0.1243
 3148TIP3    H130935   2.666   6.010  11.523 -0.3459  0.9117 -0.3179
 3148TIP3    H230936   2.796   6.041  11.451  0.3817 -0.4327  0.3757
 3149TIP3   OH230937   5.591   1.947  11.995  0.5443 -0.4341  0.8326
 3149TIP3    H130938   5.584   2.006  11.920  1.3804 -0.5421  0.6626
 3149TIP3    H230939   5.620   2.003  12.067  1.3364 -0.6341  0.6713
 3150TIP3   OH230940   4.699   3.372   1.845  0.4687  0.0257  0.0052
 3150TIP3    H130941   4.776   3.364   1.901  0.0531  1.7088  0.8809
 3150TIP3    H230942   4.708   3.458   1.805 -0.3504 -0.2692 -0.8371
 3151TIP3   OH230943   2.331   1.778   1.103 -0.1491  0.0403  0.0913
 3151TIP3    H130944   2.418   1.787   1.141  0.3687  1.4736 -1.3486
 3151TIP3    H230945   2.298   1.868   1.095 -1.4251 -0.4185 -0.1466
 3152TIP3   OH230946   3.215   4.013   0.655  0.0928 -0.0566  0.2682
 3152TIP3    H130947   3.262   3.955   0.594 -0.0287 -0.0299  0.1490
 3152TIP3    H230948   3.284   4.048   0.712  0.2468  0.1283 -0.0282
 3153TIP3   OH230949   5.719   2.792  12.913  0.1385 -0.1738  0.5122
 3153TIP3    H130950   5.678   2.734  12.977  0.3305 -1.9874 -0.9538
 3153TIP3    H230951   5.692   2.758  12.828  1.5175  0.9521 -0.4276
 3154TIP3   OH230952   2.641   5.555   3.977  0.1528  0.3940  0.4620
 3154TIP3    H130953   2.558   5.597   3.998 -0.0179  0.4361 -0.2839
 3154TIP3    H230954   2.671   5.518   4.060 -0.1553  1.1782  0.9253
 3155TIP3   OH230955   3.760   1.635   0.470 -0.1471  0.2217 -0.1888
 3155TIP3    H130956   3.678   1.670   0.506 -0.0745  0.2152 -0.0180
 3155TIP3    H230957   3.770   1.680   0.386  0.5794  1.5318  0.5654
 3156TIP3   OH230958   1.508   4.713   0.532  0.0597  0.0686 -0.2649
 3156TIP3    H130959   1.525   4.696   0.440 -1.9067  0.6871 -0.7770
 3156TIP3    H230960   1.562   4.648   0.578  0.0675 -1.1289 -1.8632
 3157TIP3   OH230961   1.292   1.030   5.480 -0.2505 -0.8163  0.7076
 3157TIP3    H130962   1.271   1.096   5.414  0.2863 -0.1788  1.1639
 3157TIP3    H230963   1.337   0.961   5.432 -0.1952 -0.5279  0.3395
 3158TIP3   OH230964   6.759   0.557  14.471 -0.3191  0.0516 -0.3281
 3158TIP3    H130965   6.779   0.563  14.564 -0.5284 -0.9830 -0.2035
 3158TIP3    H230966   6.682   0.613  14.459 -0.9127 -0.5978  0.3236
 3159TIP3   OH230967   2.134   0.843   5.128  0.4946  0.3599 -0.3964
 3159TIP3    H130968   2.083   0.911   5.084 -2.0215 -0.0508  1.7051
 3159TIP3    H230969   2.113   0.763   5.081 -1.5163  0.0672  0.8767
 3160TIP3   OH230970   3.015   3.126  11.673 -0.9623  0.2751  0.2611
 3160TIP3    H130971   2.942   3.064  11.676 -1.8039  1.1465 -1.1887
 3160TIP3    H230972   3.011   3.172  11.758 -1.2080 -0.6489  0.7647
 3161TIP3   OH230973   3.002   4.366   2.656  0.2016  0.0352 -0.1673
 3161TIP3    H130974   2.990   4.284   2.703 -1.4186  0.0725 -0.4311
 3161TIP3    H230975   3.019   4.431   2.724 -0.6342 -0.1687  0.2494
 3162TIP3   OH230976   3.665   3.748   2.966 -0.1351 -0.5299  0.0671
 3162TIP3    H130977   3.686   3.665   3.009  0.6342 -0.3374  0.0878
 3162TIP3    H230978   3.572   3.762   2.984 -0.6610 -2.1091 -1.1733
 3163TIP3   OH230979   0.477   3.782  15.110 -0.1934 -0.5087  0.4131
 3163TIP3    H130980   0.403   3.843  15.106 -0.2176 -0.5941 -0.7542
 3163TIP3    H230981   0.471   3.732  15.029  1.9001  0.3837 -0.3729
 3164TIP3   OH230982   0.951   3.528  15.952  0.3284 -0.1706  0.1129
 3164TIP3    H130983   1.003   3.598  15.912  1.2095 -1.4390 -1.0033
 3164TIP3    H230984   0.930   3.468  15.881 -0.3493 -1.1128  1.0645
 3165TIP3   OH230985   2.330   2.195   0.869 -0.2095  0.5266 -0.2097
 3165TIP3    H130986   2.312   2.183   0.776 -0.3246 -0.6439 -0.0435
 3165TIP3    H230987   2.244   2.200   0.910 -0.1591  0.8391 -0.1405
 3166TIP3   OH230988   0.885   2.499  15.076 -0.0823  0.2634  0.2280
 3166TIP3    H130989   0.864   2.495  15.169 -0.6976  1.3344  0.1464
 3166TIP3    H230990   0.913   2.410  15.055 -3.4758 -1.0660  0.6311
 3167TIP3   OH230991   2.624   1.026  13.087 -0.7310  0.4219  0.0471
 3167TIP3    H130992   2.692   0.979  13.038 -0.3329  2.1224 -1.0996
 3167TIP3    H230993   2.583   0.958  13.140  1.9919 -0.6516  0.9772
 3168TIP3   OH230994   3.193   1.516  14.417 -0.0217  0.4101  0.5135
 3168TIP3    H130995   3.242   1.462  14.354 -0.3035 -0.4945  1.0433
 3168TIP3    H230996   3.254   1.529  14.489 -0.6330 -1.0359  1.3439
 3169TIP3   OH230997   0.569   5.384   3.225  0.0748  0.0241 -0.0033
 3169TIP3    H130998   0.515   5.404   3.148  0.2088  4.1783  0.7569
 3169TIP3    H230999   0.659   5.392   3.193  0.1297  1.2048  0.3873
 3170TIP3   OH231000   1.424   2.498  14.229 -0.2558  0.0055  0.4735
 3170TIP3    H131001   1.415   2.568  14.293 -0.8419 -1.4146  2.0223
 3170TIP3    H231002   1.386   2.421  14.272  1.3000 -1.5208 -0.7243
 3171TIP3   OH231003   0.899   5.968  16.059  0.3906 -0.2803  0.0860
 3171TIP3    H131004   0.987   5.957  16.024  0.3489  0.1334 -0.1551
 3171TIP3    H231005   0.881   5.887  16.106  0.9031 -0.3639  0.1413
 3172TIP3   OH231006   1.282   0.502   1.521  0.1774  0.3527 -0.0488
 3172TIP3    H131007   1.295   0.434   1.588 -2.9465  0.5318  0.9114
 3172TIP3    H231008   1.223   0.565   1.563  1.6321  2.8264 -1.5191
 3173TIP3   OH231009   0.020   5.861  10.729  0.2039 -0.3532  0.4881
 3173TIP3    H131010   0.116   5.864  10.725  0.4075 -0.7200  3.0131
 3173TIP3    H231011   0.002   5.816  10.812 -2.1354  1.3317  0.9713
 3174TIP3   OH231012   0.805   3.844   3.720 -0.1744  0.5323  0.1981
 3174TIP3    H131013   0.866   3.810   3.655 -0.1727 -0.7943  0.8674
 3174TIP3    H231014   0.861   3.885   3.786 -0.0255 -0.3012  0.5952
 3175TIP3   OH231015   3.778   1.469  13.523  0.2929 -0.3629 -0.1431
 3175TIP3    H131016   3.873   1.460  13.518  0.2267 -0.4184 -1.5426
 3175TIP3    H231017   3.764   1.556  13.563  0.9238 -0.2190 -0.2271
 3176TIP3   OH231018   0.011   4.057  11.944 -0.0851 -0.4296  0.3600
 3176TIP3    H131019   0.027   4.148  11.968  2.7442 -1.3142  2.2631
 3176TIP3    H231020  -0.034   4.020  12.020 -1.1814 -0.6767 -0.3855
 3177TIP3   OH231021   2.076   1.809   6.447  0.2175  0.4054 -0.2398
 3177TIP3    H131022   2.030   1.866   6.509 -0.3591 -1.7325  1.4367
 3177TIP3    H231023   2.031   1.822   6.364 -0.9663  1.1563  0.4875
 3178TIP3   OH231024   0.808   2.770   4.863  0.4154 -0.1009  0.4603
 3178TIP3    H131025   0.876   2.830   4.832  1.3229 -1.3519 -0.0342
 3178TIP3    H231026   0.744   2.827   4.906  1.0087  1.2693 -0.3997
 3179TIP3   OH231027   2.512   1.091   1.664  0.2765 -0.4876  0.3859
 3179TIP3    H131028   2.504   1.062   1.755 -0.9924 -0.0548  0.4425
 3179TIP3    H231029   2.438   1.050   1.620  0.3879 -0.0125 -0.2607
 3180TIP3   OH231030   0.904   6.753  13.380  0.0667  0.2630 -0.1560
 3180TIP3    H131031   0.901   6.661  13.405  1.6189  0.5818  1.4064
 3180TIP3    H231032   0.969   6.757  13.310 -1.0145  0.0155 -1.2142
 3181TIP3   OH231033   6.293   2.950  12.209 -0.0968 -0.3298 -0.1700
 3181TIP3    H131034   6.203   2.981  12.197  0.4540  1.2439 -0.4330
 3181TIP3    H231035   6.293   2.908  12.295 -1.0783 -0.3403 -0.1613
 3182TIP3   OH231036   2.467   3.995  11.426  0.1697 -0.2723 -0.4712
 3182TIP3    H131037   2.553   3.954  11.413 -0.3371 -1.0222 -1.7232
 3182TIP3    H231038   2.486   4.085  11.452  1.3173 -0.9390  1.1202
 3183TIP3   OH231039   6.291   2.166  12.009 -0.1065 -0.0136 -0.1837
 3183TIP3    H131040   6.364   2.228  12.000 -0.2686  0.0390 -1.2390
 3183TIP3    H231041   6.328   2.094  12.059  0.3419  0.5226  0.2808
 3184TIP3   OH231042   4.309   4.545  10.278  0.1794 -0.1786  0.4446
 3184TIP3    H131043   4.228   4.583  10.312 -0.6463 -1.0911 -0.4302
 3184TIP3    H231044   4.370   4.549  10.351 -0.8608 -0.0600  1.3331
 3185TIP3   OH231045   4.818   3.868   6.884  0.1194  0.1816  0.1295
 3185TIP3    H131046   4.727   3.893   6.870 -0.1036 -0.9397 -0.5533
 3185TIP3    H231047   4.868   3.926   6.826 -0.1480  0.8307  0.5399
 3186TIP3   OH231048   4.594   3.120   3.991  0.4626  0.4891  0.7540
 3186TIP3    H131049   4.627   3.123   3.901  2.3202 -1.3147  1.3031
 3186TIP3    H231050   4.527   3.053   3.989  1.4986 -0.5805  0.9694
 3187TIP3   OH231051   3.324   1.758   5.331 -0.3502 -0.0876 -0.1924
 3187TIP3    H131052   3.240   1.802   5.317 -0.5394 -0.3826  0.0072
 3187TIP3    H231053   3.335   1.757   5.427 -2.0522 -3.6103  0.1009
 3188TIP3   OH231054   0.570   1.711   3.980 -0.7417  0.1436  0.7720
 3188TIP3    H131055   0.507   1.734   4.048 -0.0244 -0.0448  1.5225
 3188TIP3    H231056   0.546   1.765   3.905 -0.5718  1.5510  1.7034
 3189TIP3   OH231057   4.764   2.132  13.758 -0.3121 -0.7883 -0.2526
 3189TIP3    H131058   4.714   2.060  13.720 -0.8838 -0.3843 -0.2800
 3189TIP3    H231059   4.855   2.108  13.745 -0.4934 -1.6566  0.0226
 3190TIP3   OH231060   6.647   0.956   4.529  0.7708 -0.1762 -0.4873
 3190TIP3    H131061   6.612   0.972   4.617  2.9747  2.3738  0.0911
 3190TIP3    H231062   6.673   0.864   4.530 -0.4816 -0.5609  1.0344
 3191TIP3   OH231063   5.737   2.482  15.883 -0.3324  0.6814 -0.1862
 3191TIP3    H131064   5.649   2.482  15.847  0.1979  2.0714 -1.5988
 3191TIP3    H231065   5.793   2.509  15.810  1.3488 -0.7567  0.4941
 3192TIP3   OH231066   0.491   1.326  12.179  0.8610 -0.3060 -0.3963
 3192TIP3    H131067   0.455   1.366  12.258  0.4418  0.8759 -1.1509
 3192TIP3    H231068   0.414   1.298  12.129  1.1037 -0.6628 -0.5712
 3193TIP3   OH231069   5.236   4.306  12.134 -0.1793  0.7978  0.0107
 3193TIP3    H131070   5.159   4.356  12.109 -0.1287  0.4107 -0.9647
 3193TIP3    H231071   5.310   4.356  12.098 -0.0618  0.5323 -0.1239
 3194TIP3   OH231072   2.920   0.577  12.008 -0.2607  0.3432  0.2644
 3194TIP3    H131073   2.945   0.517  12.079 -0.1695 -0.3378 -0.3221
 3194TIP3    H231074   3.003   0.604  11.969 -0.3016  0.8777  0.5444
 3195TIP3   OH231075   2.415   1.986   1.631 -0.3901  0.4198 -0.0739
 3195TIP3    H131076   2.505   1.953   1.633 -0.7389 -0.6106 -0.5039
 3195TIP3    H231077   2.372   1.944   1.705 -0.9860 -0.5909 -0.9529
 3196TIP3   OH231078   3.172   5.074   5.025 -0.2329 -0.8428 -0.5475
 3196TIP3    H131079   3.126   5.140   4.974 -1.0202 -0.1139  1.0488
 3196TIP3    H231080   3.250   5.119   5.059 -0.0389 -1.1333 -0.6046
 3197TIP3   OH231081   5.585   2.599  11.934  0.1951  0.0495 -0.1313
 3197TIP3    H131082   5.585   2.554  11.850 -0.5270 -0.4930  0.1489
 3197TIP3    H231083   5.499   2.639  11.941  0.5654  0.8545 -0.0398
 3198TIP3   OH231084   1.164   2.844  16.907  0.0247 -0.2531  0.3114
 3198TIP3    H131085   1.089   2.846  16.847  1.1252 -4.2072 -1.4996
 3198TIP3    H231086   1.133   2.795  16.983  0.1056  0.3207  0.7229
 3199TIP3   OH231087   2.236   3.545  15.360 -0.3340  0.0932  0.0767
 3199TIP3    H131088   2.251   3.534  15.454 -0.3331 -1.2591 -0.0714
 3199TIP3    H231089   2.153   3.592  15.354  0.0490  0.8715  0.7580
 3200TIP3   OH231090   1.955   6.658  10.795  0.1830 -0.1279 -0.0850
 3200TIP3    H131091   1.979   6.747  10.821 -2.8834  0.7453  0.0438
 3200TIP3    H231092   2.015   6.638  10.723  5.1788 -0.4926  3.6363
 3201TIP3   OH231093   2.416   3.871  14.677 -0.0590 -0.1929  0.5622
 3201TIP3    H131094   2.393   3.778  14.685 -2.0993  0.1666 -0.2729
 3201TIP3    H231095   2.380   3.911  14.757  0.2544 -0.0255  0.6190
 3202TIP3   OH231096   6.679   3.910  14.817  0.2814 -0.0198  0.1342
 3202TIP3    H131097   6.598   3.862  14.803  0.7393 -0.4872 -1.0796
 3202TIP3    H231098   6.673   3.986  14.759  0.9707 -0.4102 -0.4735
 3203TIP3   OH231099   1.651   3.876  15.120 -0.2893 -0.2178  0.4015
 3203TIP3    H131100   1.715   3.873  15.190  0.4193 -0.7551 -0.2484
 3203TIP3    H231101   1.686   3.941  15.058  0.4619 -1.6062 -0.7033
 3204TIP3   OH231102   1.693   1.103  10.830  0.4561 -0.4934 -0.6145
 3204TIP3    H131103   1.602   1.074  10.823  0.8836 -2.4720  1.0827
 3204TIP3    H231104   1.687   1.198  10.834 -1.7917 -0.5969  1.7827
 3205TIP3   OH231105   6.782   2.716   5.892 -0.0398 -0.1833 -0.1637
 3205TIP3    H131106   6.724   2.755   5.826 -1.4892  0.7805  1.5932
 3205TIP3    H231107   6.740   2.737   5.976  1.3309 -2.0149  1.0486
 3206TIP3   OH231108   6.145   2.195   4.187 -0.1335 -0.2455  0.2757
 3206TIP3    H131109   6.236   2.182   4.160 -0.4619 -0.4363 -0.7687
 3206TIP3    H231110   6.094   2.134   4.133 -1.0804  1.2162 -0.5634
 3207TIP3   OH231111   4.842   3.518   6.081 -0.0289  0.3434 -0.8319
 3207TIP3    H131112   4.768   3.476   6.125  1.4437 -0.3404  1.1619
 3207TIP3    H231113   4.826   3.612   6.092 -0.9022  0.2209 -0.9911
 3208TIP3   OH231114   4.021   6.599  13.879 -0.1624 -0.1325  0.7093
 3208TIP3    H131115   3.977   6.652  13.813 -0.8128  0.2549  1.4269
 3208TIP3    H231116   3.949   6.564  13.933  0.1802 -2.3583 -0.1718
 3209TIP3   OH231117   0.416   4.955  16.466 -0.1010  0.5061 -0.3962
 3209TIP3    H131118   0.345   5.019  16.460  0.0856  0.6377 -1.4811
 3209TIP3    H231119   0.382   4.877  16.423 -0.4560 -0.2697  1.2308
 3210TIP3   OH231120   5.780   0.395  16.870  0.2784 -0.5924  0.6763
 3210TIP3    H131121   5.813   0.380  16.958 -0.7698 -0.6885  1.0627
 3210TIP3    H231122   5.789   0.311  16.826 -0.5025 -0.9316  1.1404
 3211TIP3   OH231123   0.004   2.032  14.129  0.4696  0.7730 -0.6500
 3211TIP3    H131124   0.004   2.098  14.059 -0.6152 -0.2266 -1.6456
 3211TIP3    H231125   0.047   1.956  14.091  0.5089  0.4477  0.0276
 3212TIP3   OH231126   5.852   4.734   0.673  0.1404 -0.3589  0.4042
 3212TIP3    H131127   5.914   4.785   0.622 -1.8453  2.2471  0.3857
 3212TIP3    H231128   5.906   4.679   0.730  2.3838  0.1365 -1.1628
 3213TIP3   OH231129   3.953   4.160  14.502  0.4528  0.1861 -0.0253
 3213TIP3    H131130   3.967   4.081  14.449  1.0359  0.5605 -0.4434
 3213TIP3    H231131   3.869   4.194  14.472 -0.6043 -1.1317  1.2761
 3214TIP3   OH231132   6.813   6.729   3.326  0.2472  0.5246  0.1020
 3214TIP3    H131133   6.820   6.744   3.232  0.3627 -1.4066 -0.2320
 3214TIP3    H231134   6.733   6.775   3.351  0.9462  2.2230 -0.6517
 3215TIP3   OH231135   3.977   2.862  16.557  0.0345  0.3510 -0.5119
 3215TIP3    H131136   4.020   2.779  16.540 -0.7621 -0.2365  0.2371
 3215TIP3    H231137   4.035   2.928  16.519  0.0294 -0.6185 -2.2974
 3216TIP3   OH231138   6.259   0.808  13.152  0.3618  0.3996 -0.0280
 3216TIP3    H131139   6.257   0.737  13.089  1.5289  0.0161  0.3446
 3216TIP3    H231140   6.192   0.785  13.216 -1.3791  1.1787 -1.4801
 3217TIP3   OH231141   1.324   5.563  12.555  0.5537  0.6418 -0.2028
 3217TIP3    H131142   1.301   5.474  12.584  1.6097 -0.0636 -1.4516
 3217TIP3    H231143   1.393   5.590  12.615  0.5418  0.4422 -0.0961
 3218TIP3   OH231144   5.988   3.991  13.779  0.4261  0.1830  0.5651
 3218TIP3    H131145   5.904   3.970  13.736  1.4273 -1.3995 -0.7573
 3218TIP3    H231146   6.005   4.082  13.754  0.5614 -0.4305 -1.8140
 3219TIP3   OH231147   1.634   6.283  15.162  0.5190 -0.2090  0.0972
 3219TIP3    H131148   1.622   6.213  15.227  1.2799 -0.6959 -0.2805
 3219TIP3    H231149   1.624   6.364  15.213 -0.7962 -0.5648  0.4647
 3220TIP3   OH231150   6.417   0.979   1.561  0.0838 -0.5704  0.2037
 3220TIP3    H131151   6.402   1.068   1.593 -2.4708 -1.4848  1.8233
 3220TIP3    H231152   6.511   0.966   1.570  0.5024  1.8466  0.1398
 3221TIP3   OH231153   0.633   0.645  13.855 -0.4629  0.7363  0.4250
 3221TIP3    H131154   0.547   0.673  13.885 -0.9773  1.7212 -1.7461
 3221TIP3    H231155   0.692   0.668  13.926 -1.7979  1.4280  1.3500
 3222TIP3   OH231156   3.892   5.809   3.923 -0.5695 -0.0038 -0.0104
 3222TIP3    H131157   3.800   5.836   3.926 -0.7098 -0.5360  1.0610
 3222TIP3    H231158   3.904   5.774   3.835 -1.6638 -0.8096  0.1344
 3223TIP3   OH231159   3.036   3.243  12.530  0.0088  0.2546 -0.9896
 3223TIP3    H131160   3.112   3.239  12.588  0.0931 -0.1452 -1.1241
 3223TIP3    H231161   3.068   3.288  12.452 -0.2060  1.1313 -0.5769
 3224TIP3   OH231162   3.023   2.722   6.006 -0.5627  0.0170  0.0920
 3224TIP3    H131163   2.982   2.688   5.927 -0.6473  0.2494  0.0342
 3224TIP3    H231164   2.963   2.699   6.077 -0.5978  0.0062  0.0588
 3225TIP3   OH231165   6.015   3.560  13.391  0.0166 -0.3493 -0.3415
 3225TIP3    H131166   6.091   3.564  13.448 -0.4231 -0.9651  0.2904
 3225TIP3    H231167   6.003   3.651  13.360  0.1586  0.0167  0.6610
 3226TIP3   OH231168   2.367   0.730  15.397 -0.7744 -0.3335  0.1235
 3226TIP3    H131169   2.437   0.695  15.452 -2.0633 -0.2398  1.8779
 3226TIP3    H231170   2.406   0.735  15.310  1.1329 -1.0639  0.8859
 3227TIP3   OH231171   2.643   6.803  11.352  0.1849 -0.2226 -0.4245
 3227TIP3    H131172   2.608   6.764  11.433  2.1825 -0.7359  0.2410
 3227TIP3    H231173   2.702   6.737  11.317 -1.4495 -0.4536 -2.9538
 3228TIP3   OH231174   5.236   5.010  11.401  0.4683 -0.6659 -0.1787
 3228TIP3    H131175   5.231   4.965  11.316  1.6639  1.1968 -1.3056
 3228TIP3    H231176   5.175   5.083  11.393  0.4936 -0.5478  0.6331
 3229TIP3   OH231177   6.728   3.946   0.657 -0.3040  0.6344  0.0048
 3229TIP3    H131178   6.715   3.854   0.677  1.0864  0.1779 -0.9778
 3229TIP3    H231179   6.747   3.947   0.563 -0.4235  1.9400 -0.0257
 3230TIP3   OH231180   2.985   4.570  13.469  0.2021  0.3808 -0.3920
 3230TIP3    H131181   2.953   4.536  13.553  1.7678  0.0378  0.1030
 3230TIP3    H231182   2.941   4.654  13.458 -1.3598 -0.3674 -0.0973
 3231TIP3   OH231183   0.824   6.404   3.006 -0.0926  0.6079  0.8238
 3231TIP3    H131184   0.783   6.491   3.000 -3.1325 -0.7837 -0.2166
 3231TIP3    H231185   0.770   6.357   3.069  1.0460 -0.7995  0.7791
 3232TIP3   OH231186   0.889   5.672  15.181  0.1939  0.1114  0.1885
 3232TIP3    H131187   0.928   5.727  15.249 -0.3929 -0.6866  1.1913
 3232TIP3    H231188   0.834   5.733  15.130  0.0318  0.5769  0.8998
 3233TIP3   OH231189   5.191   1.020  12.663 -0.1278  0.6224 -0.0631
 3233TIP3    H131190   5.244   1.097  12.683 -1.0909  1.5354 -0.9139
 3233TIP3    H231191   5.207   1.003  12.570 -1.5672  1.1170 -0.4144
 3234TIP3   OH231192   3.865   2.524   0.494 -0.2287 -0.3990  0.9011
 3234TIP3    H131193   3.947   2.550   0.536 -0.2545 -1.0548  1.3718
 3234TIP3    H231194   3.892   2.475   0.416 -0.1728 -0.5094  0.9900
 3235TIP3   OH231195   6.280   1.244   5.370 -0.4296 -0.3033 -0.0662
 3235TIP3    H131196   6.290   1.150   5.389  0.4687 -0.3654 -0.8083
 3235TIP3    H231197   6.278   1.249   5.275  0.0428  0.4954 -0.0392
 3236TIP3   OH231198   5.265   4.816  13.739  0.5807 -0.1454 -0.2257
 3236TIP3    H131199   5.230   4.755  13.804  0.9960 -2.1336 -1.7357
 3236TIP3    H231200   5.201   4.887  13.735 -0.1982 -0.7352  1.2640
 3237TIP3   OH231201   2.046   0.774  17.135 -0.3160  0.2300  0.0303
 3237TIP3    H131202   1.966   0.824  17.150 -0.0836  0.4815  0.4391
 3237TIP3    H231203   2.062   0.782  17.041 -0.6166  0.4172 -0.0028
 3238TIP3   OH231204   1.459   5.041  11.069  0.2967 -0.3699 -0.0411
 3238TIP3    H131205   1.498   5.030  11.156  1.0953 -1.4299 -0.5084
 3238TIP3    H231206   1.365   5.048  11.086  0.4157 -0.8250  0.8979
 3239TIP3   OH231207   0.279   3.801   5.264 -0.5690 -0.3076 -0.1568
 3239TIP3    H131208   0.203   3.812   5.322  1.2920 -0.1963  2.4480
 3239TIP3    H231209   0.278   3.708   5.241 -1.5768 -0.2760 -0.2750
 3240TIP3   OH231210   4.481   6.043   3.598  0.3344  0.7355  0.0700
 3240TIP3    H131211   4.463   6.078   3.685 -0.0944  1.5343 -0.3246
 3240TIP3    H231212   4.534   6.110   3.555  0.8615  0.1804 -0.1603
 3241TIP3   OH231213   0.860   4.632  16.384 -0.1182 -0.0942 -0.2143
 3241TIP3    H131214   0.896   4.654  16.299 -0.7830  1.0620 -0.2130
 3241TIP3    H231215   0.792   4.567  16.365  1.1088 -1.3853 -0.3327
 3242TIP3   OH231216   6.066   1.958  14.089 -0.4272  0.1317  0.2224
 3242TIP3    H131217   6.155   1.987  14.108 -0.7796 -0.1756  2.6875
 3242TIP3    H231218   6.077   1.872  14.048  0.4358  1.3517 -2.2996
 3243TIP3   OH231219   6.532   0.553  15.452  0.0160  0.4239 -0.0488
 3243TIP3    H131220   6.442   0.523  15.461  0.0684  0.6291  1.3166
 3243TIP3    H231221   6.526   0.628  15.392 -0.4285 -0.7456 -1.5463
 3244TIP3   OH231222   4.387   6.438   0.848  0.0111  0.0462  0.3246
 3244TIP3    H131223   4.479   6.428   0.873  0.1988 -0.1852 -0.4461
 3244TIP3    H231224   4.343   6.364   0.891  0.5528 -1.1269 -1.0866
 3245TIP3   OH231225   4.387   4.890  15.979  0.4882 -0.0903 -0.4695
 3245TIP3    H131226   4.387   4.985  15.987  0.8662 -0.0895 -0.4799
 3245TIP3    H231227   4.466   4.869  15.930 -0.1521 -0.3312 -1.4413
 3246TIP3   OH231228   3.350   3.325  12.165  0.2045 -0.2049 -0.1501
 3246TIP3    H131229   3.333   3.356  12.076 -0.0379 -0.5586 -0.2305
 3246TIP3    H231230   3.440   3.293  12.163  0.1495 -0.3464 -0.3027
 3247TIP3   OH231231   1.499   0.906  10.622 -0.5254 -0.2697  0.0611
 3247TIP3    H131232   1.481   0.814  10.602  1.0272 -0.5664 -0.1135
 3247TIP3    H231233   1.508   0.947  10.536  1.8284 -0.6304  0.0818
 3248TIP3   OH231234   4.943   0.080  13.198  0.1480 -0.4758  0.1031
 3248TIP3    H131235   4.980   0.002  13.238 -0.4906 -0.5698  0.5254
 3248TIP3    H231236   4.853   0.083  13.230 -0.9134 -1.4127 -2.4860
 3249TIP3   OH231237   1.124   3.602  11.734  0.0247  0.1397  0.2202
 3249TIP3    H131238   1.137   3.549  11.656  1.5926 -0.0637  0.5766
 3249TIP3    H231239   1.063   3.552  11.788  0.5069 -0.7058 -0.0036
 3250TIP3   OH231240   5.422   2.576   0.906  0.9797 -0.1373 -0.2050
 3250TIP3    H131241   5.414   2.670   0.895  2.8353  0.0071 -0.6976
 3250TIP3    H231242   5.509   2.563   0.944  1.0615 -1.6913 -0.8193
 3251TIP3   OH231243   6.255   5.323   2.204  0.7747  0.4972 -0.4354
 3251TIP3    H131244   6.327   5.369   2.162  1.8400 -0.2464  0.4941
 3251TIP3    H231245   6.285   5.310   2.294 -0.5506  0.2071 -0.0193
 3252TIP3   OH231246   0.180   3.372   2.400  0.4153  0.2287 -0.3366
 3252TIP3    H131247   0.259   3.320   2.414  1.0548 -0.5983 -5.3110
 3252TIP3    H231248   0.108   3.309   2.407  0.2496  0.6158  2.3432
 3253TIP3   OH231249   2.412   4.335   6.167 -0.3363 -0.4433 -0.2540
 3253TIP3    H131250   2.425   4.415   6.116 -1.0952 -1.7273 -2.6166
 3253TIP3    H231251   2.494   4.324   6.216  0.1994  1.1867 -0.7390
 3254TIP3   OH231252   2.595   1.111   2.165 -0.5227 -0.3321 -0.2808
 3254TIP3    H131253   2.684   1.117   2.198 -0.1683 -0.9273 -1.0893
 3254TIP3    H231254   2.554   1.041   2.216 -0.0479 -1.0987 -0.9390
 3255TIP3   OH231255   5.919   4.018   1.757  0.2450  0.3699 -0.1322
 3255TIP3    H131256   5.954   3.965   1.828  0.1099  0.7048  0.1870
 3255TIP3    H231257   5.947   3.973   1.677 -1.7941 -1.4625  0.0877
 3256TIP3   OH231258   2.720   3.044   4.795  0.4259 -0.1236 -0.1362
 3256TIP3    H131259   2.636   3.024   4.835  0.4282  1.0971  0.5390
 3256TIP3    H231260   2.751   3.121   4.842  0.7439  0.9882 -2.0372
 3257TIP3   OH231261   3.070   3.812  15.145  0.5671 -0.1682  0.4930
 3257TIP3    H131262   3.062   3.756  15.222 -1.8838 -0.2932  0.2502
 3257TIP3    H231263   2.993   3.790  15.092  2.5037 -0.6110 -2.3724
 3258TIP3   OH231264   3.463   1.175  14.982 -0.1463  0.1758 -0.4003
 3258TIP3    H131265   3.493   1.197  14.894  1.3563  0.6618  0.2003
 3258TIP3    H231266   3.377   1.217  14.989  0.2914  1.2695 -1.1871
 3259TIP3   OH231267   5.771   3.114  16.869  1.2271 -0.1979  0.0722
 3259TIP3    H131268   5.833   3.184  16.888  0.3040  0.8878 -0.6978
 3259TIP3    H231269   5.702   3.157  16.817  1.1242 -1.8783 -1.2980
 3260TIP3   OH231270   4.882   2.657  13.978  0.4621 -0.3661  0.0008
 3260TIP3    H131271   4.977   2.664  13.989  1.0185 -1.9863 -2.8362
 3260TIP3    H231272   4.870   2.609  13.896 -2.8167 -1.7212  1.0756
 3261TIP3   OH231273   4.955   2.848  16.500  0.2348 -0.1401 -0.2388
 3261TIP3    H131274   4.945   2.926  16.446  1.5238 -0.1456 -0.5155
 3261TIP3    H231275   4.870   2.804  16.495 -0.0256  0.4622 -1.3143
 3262TIP3   OH231276   1.966   3.073   2.088 -0.0651  0.3151  0.6342
 3262TIP3    H131277   1.981   3.029   2.171 -0.1204  0.1340  0.5492
 3262TIP3    H231278   1.893   3.025   2.048  0.4573 -0.0764  0.1430
 3263TIP3   OH231279   0.819   3.812  13.904  0.7471 -0.0739 -0.2681
 3263TIP3    H131280   0.832   3.904  13.881  2.2343 -0.4617 -1.1870
 3263TIP3    H231281   0.774   3.814  13.988 -1.2678  1.4619 -1.3136
 3264TIP3   OH231282   5.999   5.903   3.266 -0.5355  0.0319 -0.3113
 3264TIP3    H131283   6.001   5.969   3.335  1.0817  0.2293 -0.4968
 3264TIP3    H231284   5.966   5.950   3.189 -1.5732  0.0144  0.1020
 3265TIP3   OH231285   1.464   5.410  17.140 -0.1532  0.4045 -0.3498
 3265TIP3    H131286   1.439   5.342  17.202 -0.9412  1.0475  0.0492
 3265TIP3    H231287   1.505   5.478  17.194 -0.2109  0.6586 -0.6210
 3266TIP3   OH231288   6.357   5.405   3.504  0.2851  0.3889  0.2813
 3266TIP3    H131289   6.408   5.486   3.493  1.0101 -0.2911 -2.0022
 3266TIP3    H231290   6.355   5.391   3.599 -0.3677  3.3596  0.8012
 3267TIP3   OH231291   2.550   6.155   5.386 -0.1822 -0.2481  0.4431
 3267TIP3    H131292   2.486   6.108   5.332 -0.2957  0.2134  0.1741
 3267TIP3    H231293   2.599   6.085   5.430 -0.6903 -0.6123  0.4452
 3268TIP3   OH231294   0.325   1.572   5.100 -0.6974  0.2456  0.1302
 3268TIP3    H131295   0.318   1.489   5.053  0.3064  1.1413 -1.7295
 3268TIP3    H231296   0.352   1.548   5.188 -3.2295 -1.5488  0.5258
 3269TIP3   OH231297   5.635   5.965   4.487  0.5821  0.3145  0.1907
 3269TIP3    H131298   5.697   6.027   4.448  0.3255  0.8094  0.5642
 3269TIP3    H231299   5.572   5.947   4.417  1.0788 -0.1071 -0.1553
 3270TIP3   OH231300   3.432   4.965  12.954  0.6323 -0.4083  0.3907
 3270TIP3    H131301   3.509   4.912  12.975 -0.9124 -3.0953 -0.2560
 3270TIP3    H231302   3.446   4.992  12.863  0.8410 -0.8190  0.2969
 3271TIP3   OH231303   2.242   5.627   2.063  0.6407  0.7195  0.4333
 3271TIP3    H131304   2.273   5.654   1.976 -0.4898 -1.2026 -0.6322
 3271TIP3    H231305   2.219   5.709   2.106  3.6349  1.9694 -0.0460
 3272TIP3   OH231306   6.833   4.774  10.269 -0.4529 -0.1339 -0.4672
 3272TIP3    H131307   6.793   4.838  10.210  1.7363  1.6473 -0.1617
 3272TIP3    H231308   6.779   4.776  10.348 -0.1920  1.7010 -0.3029
 3273TIP3   OH231309   6.508   4.069   1.067  0.4929  0.1391  0.3904
 3273TIP3    H131310   6.431   4.043   1.017  0.4923  0.2745  0.3199
 3273TIP3    H231311   6.471   4.113   1.144  0.4913 -0.1785  0.5716
 3274TIP3   OH231312   6.242   2.842   1.657 -0.6023 -0.4320  0.3622
 3274TIP3    H131313   6.182   2.778   1.619 -1.4237  0.2955  0.3950
 3274TIP3    H231314   6.326   2.797   1.660 -0.9406 -1.1617 -0.5412
 3275TIP3   OH231315   1.318   3.227   3.005  0.4196 -0.2482 -0.4803
 3275TIP3    H131316   1.258   3.219   3.080  0.5336 -2.5972 -0.5551
 3275TIP3    H231317   1.405   3.228   3.044  0.4379  2.8946 -0.3897
 3276TIP3   OH231318   5.159   6.043  14.212 -0.5527  0.3866  0.4884
 3276TIP3    H131319   5.250   6.072  14.218 -0.3136 -0.4001  0.7628
 3276TIP3    H231320   5.114   6.115  14.167  0.2136  0.7508  0.2872
 3277TIP3   OH231321   6.406   1.727   3.380 -0.3948 -0.1970  0.2634
 3277TIP3    H131322   6.476   1.776   3.338  0.4728 -1.7053 -0.1215
 3277TIP3    H231323   6.414   1.639   3.345 -2.0530 -0.5731  0.7565
 3278TIP3   OH231324   3.798   4.590   3.094 -0.1969 -0.6284  0.6810
 3278TIP3    H131325   3.715   4.562   3.131 -0.7842 -0.0863 -0.2018
 3278TIP3    H231326   3.850   4.617   3.170 -0.9973 -0.4973  1.1921
 3279TIP3   OH231327   0.721   3.201   0.569  0.5178 -0.1192 -0.0541
 3279TIP3    H131328   0.680   3.267   0.625  0.3171 -0.6931  0.4773
 3279TIP3    H231329   0.795   3.247   0.528 -1.0410  1.1593 -1.5994
 3280TIP3   OH231330   4.934   3.065  13.206 -0.3030 -0.6099  0.1267
 3280TIP3    H131331   4.886   3.134  13.253  2.3837  1.9669 -0.5735
 3280TIP3    H231332   4.880   3.046  13.129 -2.1177 -0.8767  1.4169
 3281TIP3   OH231333   1.504   2.511   3.394  0.5564  0.1989 -0.3509
 3281TIP3    H131334   1.523   2.536   3.304 -0.1635  1.5803 -0.1487
 3281TIP3    H231335   1.568   2.560   3.446 -0.6133  1.3999  0.0242
 3282TIP3   OH231336   5.755   0.094   0.430 -0.1701 -0.5071 -0.3889
 3282TIP3    H131337   5.749   0.073   0.337 -1.3176 -0.8990 -0.2395
 3282TIP3    H231338   5.840   0.060   0.457  0.2035 -0.3153 -1.3118
 3283TIP3   OH231339   6.553   5.420   0.547 -0.4312 -0.2481 -0.2010
 3283TIP3    H131340   6.544   5.486   0.615 -2.1253  1.0195 -1.5603
 3283TIP3    H231341   6.513   5.459   0.469  1.7290 -1.4799 -2.0747
 3284TIP3   OH231342   1.867   4.524   3.878  0.5265  0.3341  0.0914
 3284TIP3    H131343   1.851   4.550   3.787  0.3060 -1.6193 -0.4819
 3284TIP3    H231344   1.959   4.547   3.893  0.3163  1.5108 -0.3058
 3285TIP3   OH231345   3.969   0.964  16.358  0.6603 -0.2071  0.5006
 3285TIP3    H131346   4.033   0.923  16.417  1.3213 -0.3367 -0.2873
 3285TIP3    H231347   4.019   0.984  16.279  0.0995  1.2148  0.4876
 3286TIP3   OH231348   4.367   3.116  15.351  0.3280 -0.3055 -0.2297
 3286TIP3    H131349   4.366   3.129  15.446  0.6080 -0.9479 -0.1357
 3286TIP3    H231350   4.275   3.102  15.328  0.0967  1.0773 -0.2405
 3287TIP3   OH231351   0.123   1.173  16.716 -0.1399  0.0316  0.4860
 3287TIP3    H131352   0.151   1.102  16.775 -0.4806 -2.2705 -1.9336
 3287TIP3    H231353   0.030   1.157  16.702 -0.0106  0.3490 -0.8436
 3288TIP3   OH231354   3.467   4.262  12.958  0.4591 -0.0407 -0.1336
 3288TIP3    H131355   3.541   4.202  12.964  0.7149  0.3100  0.2062
 3288TIP3    H231356   3.403   4.215  12.904  1.6009  0.3582 -1.9239
 3289TIP3   OH231357   0.558   2.202   2.019  0.7898 -0.2616  0.1702
 3289TIP3    H131358   0.513   2.275   1.976  1.5834 -0.4775 -1.0848
 3289TIP3    H231359   0.606   2.243   2.091  0.2717  0.2743  0.2220
 3290TIP3   OH231360   3.916   4.841   4.925 -0.0441  0.3029 -0.0832
 3290TIP3    H131361   3.901   4.896   4.848 -1.1296  1.1918  0.7112
 3290TIP3    H231362   3.963   4.765   4.892  1.3252  1.5963 -1.2833
 3291TIP3   OH231363   4.973   6.310   4.810  0.4513  0.3530 -0.2408
 3291TIP3    H131364   5.047   6.260   4.844  0.4062  1.1538  1.0956
 3291TIP3    H231365   4.902   6.247   4.804  0.3254  0.2473  1.6478
 3292TIP3   OH231366   4.126   5.421   2.197 -0.4895 -0.5722 -0.2616
 3292TIP3    H131367   4.179   5.376   2.132  0.9961  0.8963 -0.1470
 3292TIP3    H231368   4.161   5.510   2.199 -2.9456  0.4836 -0.1082
 3293TIP3   OH231369   0.111   2.201  16.760 -0.2135  0.5682  0.1291
 3293TIP3    H131370   0.021   2.176  16.741 -0.6977  0.7838  1.9322
 3293TIP3    H231371   0.104   2.279  16.814  1.1064  1.2456 -0.6161
 3294TIP3   OH231372   6.033   5.184   5.076 -0.1172  0.0326  0.0820
 3294TIP3    H131373   5.955   5.239   5.069 -0.6592 -0.4809  1.7390
 3294TIP3    H231374   6.087   5.227   5.141  1.7746  1.2357 -2.1423
 3295TIP3   OH231375   0.434   2.234   3.707  0.0442  0.5079  0.3831
 3295TIP3    H131376   0.488   2.249   3.630  0.4623  1.3710  0.8330
 3295TIP3    H231377   0.477   2.284   3.777  0.4703 -1.3947  1.5328
 3296TIP3   OH231378   3.960   3.075   3.946  0.0702 -0.0831 -0.3855
 3296TIP3    H131379   3.982   3.054   4.037  0.6340 -0.6148 -0.6346
 3296TIP3    H231380   3.906   3.002   3.917 -0.0549  0.0537 -0.4962
 3297TIP3   OH231381   3.204   2.493   4.434 -0.2282 -0.2813 -0.3417
 3297TIP3    H131382   3.299   2.497   4.425 -0.3302  0.8190 -1.1846
 3297TIP3    H231383   3.180   2.579   4.469 -0.9409 -0.4493 -0.4070
 3298TIP3   OH231384   0.335   5.031  16.125 -0.2522  0.4948 -0.2632
 3298TIP3    H131385   0.427   5.053  16.106  0.0195 -0.0504  0.3607
 3298TIP3    H231386   0.288   5.053  16.044  0.0623  2.7293  0.0967
 3299TIP3   OH231387   4.145   6.228  13.949  0.2009  0.4256  0.0196
 3299TIP3    H131388   4.146   6.284  13.871  0.5587  1.4030  0.7070
 3299TIP3    H231389   4.184   6.146  13.920 -1.3609  0.0973 -1.2985
 3300TIP3   OH231390   1.187   2.743   1.839 -0.4478  0.2089 -0.2126
 3300TIP3    H131391   1.195   2.786   1.923  2.0761 -1.2708  0.4111
 3300TIP3    H231392   1.094   2.752   1.816 -1.1769  0.8469  2.5943
 3301TIP3   OH231393   5.462   4.216   0.187  0.2345 -0.1189 -0.8831
 3301TIP3    H131394   5.480   4.284   0.122  1.1380  0.9756  0.4658
 3301TIP3    H231395   5.410   4.260   0.254 -0.1762 -1.0806 -0.5471
 3302TIP3   OH231396   1.462   1.485  16.141  0.0903  0.5626  0.1189
 3302TIP3    H131397   1.440   1.545  16.213 -0.8564 -0.4349  0.6993
 3302TIP3    H231398   1.514   1.538  16.081 -1.4778  2.2363  0.1452
 3303TIP3   OH231399   3.191   4.467   4.276  0.0095  0.1057 -0.2985
 3303TIP3    H131400   3.219   4.532   4.211  1.3077 -1.7575 -1.6850
 3303TIP3    H231401   3.100   4.449   4.254  0.0614  0.4283 -0.7874
 3304TIP3   OH231402   1.354   6.676  14.450  0.1599 -0.0515 -0.5699
 3304TIP3    H131403   1.333   6.731  14.374  2.0785  1.1530 -0.2822
 3304TIP3    H231404   1.311   6.592  14.431 -3.3636  1.6278 -0.7403
 3305TIP3   OH231405   6.205   1.959  12.337 -0.5095 -1.0860 -0.1449
 3305TIP3    H131406   6.174   1.920  12.419 -0.8117  0.7355  0.6691
 3305TIP3    H231407   6.272   1.898  12.305  0.9122 -1.0110  2.3975
 3306TIP3   OH231408   6.760   2.888  13.480 -0.5225  0.1636 -0.2606
 3306TIP3    H131409   6.783   2.866  13.389  0.3059 -0.5538  0.1049
 3306TIP3    H231410   6.816   2.963  13.501 -1.3596  0.9108 -0.6135
 3307TIP3   OH231411   4.628   2.348   0.776 -0.1172  0.2634  0.3713
 3307TIP3    H131412   4.626   2.293   0.854 -1.3665 -1.0482 -0.5342
 3307TIP3    H231413   4.669   2.294   0.709 -2.1657  0.0380 -0.7757
 3308TIP3   OH231414   5.128   3.440  17.178 -0.7152  0.4083 -0.2499
 3308TIP3    H131415   5.040   3.469  17.153 -0.3753  2.2734  0.5903
 3308TIP3    H231416   5.127   3.438  17.273  0.5266  1.7825 -0.1733
 3309TIP3   OH231417   3.123   5.906  12.845  0.1609  0.2146 -0.2188
 3309TIP3    H131418   3.218   5.915  12.849  0.3229 -1.1161 -0.6012
 3309TIP3    H231419   3.091   5.996  12.840  1.4723  0.6514 -1.6144
 3310TIP3   OH231420   4.217   2.066  15.696 -0.4379 -0.1760 -0.1258
 3310TIP3    H131421   4.243   2.096  15.608 -0.1089  0.0926  0.0613
 3310TIP3    H231422   4.127   2.035  15.685 -0.4872  0.0889 -0.5046
 3311TIP3   OH231423   4.318   4.073   0.564 -1.1954  0.5361 -0.3081
 3311TIP3    H131424   4.355   4.156   0.536 -0.4304  0.3201  0.0438
 3311TIP3    H231425   4.294   4.086   0.656 -0.9286  0.3244 -0.2068
 3312TIP3   OH231426   6.518   3.658   3.741  0.7630 -0.6054  0.5402
 3312TIP3    H131427   6.491   3.573   3.708  1.4631 -0.6301  0.0180
 3312TIP3    H231428   6.591   3.639   3.800  1.8125 -0.2780 -0.6050
 3313TIP3   OH231429   4.881   4.291   6.011 -0.2148 -0.6563  0.3435
 3313TIP3    H131430   4.937   4.242   5.950  0.1463 -0.2962  0.3776
 3313TIP3    H231431   4.884   4.240   6.092  1.7075  0.3764  0.9879
 3314TIP3   OH231432   0.293   1.667  16.379  0.5898 -0.5376  0.2261
 3314TIP3    H131433   0.239   1.728  16.428 -0.2515 -1.2913  0.2622
 3314TIP3    H231434   0.249   1.582  16.389  2.0387 -1.2727  0.6693
 3315TIP3   OH231435   4.053   2.078   4.262  0.0631 -0.5556 -0.0311
 3315TIP3    H131436   4.132   2.044   4.305  0.9088  3.4486  2.0403
 3315TIP3    H231437   3.981   2.039   4.311  0.9586  0.1549  1.9702
 3316TIP3   OH231438   5.971   2.026  15.131 -0.3312 -0.1677 -0.4546
 3316TIP3    H131439   5.920   2.069  15.062 -1.0534 -1.2668 -0.6410
 3316TIP3    H231440   5.921   1.947  15.151  1.3942 -1.4019 -0.7875
 3317TIP3   OH231441   5.206   1.733  14.189 -0.4454 -0.2659  0.1633
 3317TIP3    H131442   5.227   1.775  14.272 -0.6754  0.5644 -0.1876
 3317TIP3    H231443   5.110   1.741  14.182 -0.4693 -0.6829  0.0075
 3318TIP3   OH231444   4.584   2.226  13.936 -0.9415 -0.2927  0.0122
 3318TIP3    H131445   4.572   2.135  13.961 -0.1588  0.2109  2.4504
 3318TIP3    H231446   4.650   2.223  13.867 -0.1030 -1.5121  0.8256
 3319TIP3   OH231447   3.211   6.277   3.286  0.3289  0.1304 -0.2396
 3319TIP3    H131448   3.182   6.349   3.229  2.5636  0.8777 -0.5195
 3319TIP3    H231449   3.221   6.317   3.372  1.9346  0.3082 -0.4721
 3320TIP3   OH231450   3.858   6.255   5.711  0.4870  0.3275  0.4353
 3320TIP3    H131451   3.888   6.173   5.671 -0.3339  0.1063  0.2525
 3320TIP3    H231452   3.859   6.319   5.640 -0.0015  0.1824  0.2939
 3321TIP3   OH231453   0.315   6.744  14.608 -0.0213  0.4277 -0.1885
 3321TIP3    H131454   0.246   6.686  14.641  0.7815 -0.2390  0.3439
 3321TIP3    H231455   0.270   6.828  14.594 -0.6796  0.3722  1.3674
 3322TIP3   OH231456   1.742   5.417   0.633  0.0445 -0.1787 -0.3577
 3322TIP3    H131457   1.817   5.431   0.691 -0.3489 -0.1356  0.1529
 3322TIP3    H231458   1.730   5.322   0.633  0.7859 -0.2824 -1.3341
 3323TIP3   OH231459   2.895   1.791   4.103  0.4406  0.2843 -0.2106
 3323TIP3    H131460   2.971   1.809   4.158  0.8676 -0.3472 -0.5784
 3323TIP3    H231461   2.820   1.822   4.154  0.8728  0.1724  0.5007
 3324TIP3   OH231462   2.076   0.091   2.092  0.6169  0.3830 -0.0331
 3324TIP3    H131463   2.075   0.017   2.031 -0.0982 -0.9999  1.5788
 3324TIP3    H231464   2.166   0.122   2.091  1.2099 -1.2294  0.0426
 3325TIP3   OH231465   6.643   4.223   5.175 -0.6105  0.0478 -0.0855
 3325TIP3    H131466   6.583   4.150   5.188 -1.7516  0.7549 -1.1322
 3325TIP3    H231467   6.712   4.209   5.240 -0.9512 -1.7697 -0.0495
 3326TIP3   OH231468   2.939   4.305  11.509  0.2572 -0.1175  0.3359
 3326TIP3    H131469   2.985   4.224  11.488  0.2137 -0.4224  1.3584
 3326TIP3    H231470   2.874   4.279  11.574  0.1197  0.7078  0.5337
 3327TIP3   OH231471   6.825   0.511   1.643 -0.7588  0.4171 -0.4092
 3327TIP3    H131472   6.885   0.529   1.571  1.0985  0.2622  1.0327
 3327TIP3    H231473   6.794   0.597   1.671  1.5276  0.8691  1.0182
 3328TIP3   OH231474   1.336   3.564   0.652  0.4093 -0.3297 -0.1061
 3328TIP3    H131475   1.250   3.522   0.656  0.2651 -0.1076 -0.7987
 3328TIP3    H231476   1.319   3.648   0.609  0.9150 -0.1243  0.0884
 3329TIP3   OH231477   6.058   0.975  15.660 -0.4463  0.1980 -0.1853
 3329TIP3    H131478   5.991   1.014  15.716  0.0170  0.2320  0.3471
 3329TIP3    H231479   6.026   0.886  15.642 -0.1166 -0.1613  0.9563
 3330TIP3   OH231480   5.625   0.271  14.192 -0.0570  0.0098  0.0452
 3330TIP3    H131481   5.663   0.261  14.105 -2.0011  0.9591 -0.9842
 3330TIP3    H231482   5.534   0.243  14.182  0.1181 -1.6291  2.2587
 3331TIP3   OH231483   5.207   4.332  12.442  0.1045 -0.6243  0.1394
 3331TIP3    H131484   5.197   4.339  12.347 -0.7724 -0.1216  0.2539
 3331TIP3    H231485   5.154   4.405  12.477  1.1462 -0.2471  0.9762
 3332TIP3   OH231486   1.255   1.002   4.890 -0.5253  0.2359 -0.2469
 3332TIP3    H131487   1.162   1.013   4.872 -0.3551  0.1185 -1.2633
 3332TIP3    H231488   1.258   0.936   4.961 -1.2073  0.3114 -0.1396
 3333TIP3   OH231489   3.841   5.228  17.085  0.8317 -0.9908  0.7265
 3333TIP3    H131490   3.879   5.237  16.997 -0.7197 -1.7150 -0.0562
 3333TIP3    H231491   3.896   5.283  17.140  1.3365  0.1642 -0.8544
 3334TIP3   OH231492   2.715   3.096   5.232 -0.1749  0.2087 -0.1197
 3334TIP3    H131493   2.621   3.110   5.239 -0.0928  0.2439  1.0987
 3334TIP3    H231494   2.751   3.131   5.314  0.7068 -1.4590  0.2458
 3335TIP3   OH231495   3.644   1.251  15.468 -0.0429  0.1062 -0.3889
 3335TIP3    H131496   3.576   1.306  15.429  0.4674  0.1976 -1.1748
 3335TIP3    H231497   3.642   1.170  15.416  0.6337  0.2198 -0.6001
 3336TIP3   OH231498   0.028   1.525   1.780  0.2442  0.1638  0.7558
 3336TIP3    H131499  -0.063   1.540   1.754  0.0427 -2.0126 -0.0056
 3336TIP3    H231500   0.021   1.481   1.865  0.5608 -0.2069  0.5929
 3337TIP3   OH231501   2.853   3.979   3.007 -0.0453 -0.7577 -0.4629
 3337TIP3    H131502   2.801   4.008   2.932 -0.8614  1.9455  0.9639
 3337TIP3    H231503   2.942   4.009   2.988 -0.4830  1.0543  0.0725
 3338TIP3   OH231504   6.416   3.399  12.781  0.4461 -0.0649 -0.2834
 3338TIP3    H131505   6.353   3.439  12.841 -0.3798  3.0217 -2.8561
 3338TIP3    H231506   6.368   3.326  12.741  0.0246 -0.3734  0.7599
 3339TIP3   OH231507   4.744   3.732   1.416 -0.2946  0.1112 -0.1566
 3339TIP3    H131508   4.674   3.786   1.379  0.5271  1.6882  0.4675
 3339TIP3    H231509   4.798   3.794   1.466  1.2427 -1.1399 -0.1808
 3340TIP3   OH231510   0.239   1.433   2.169 -0.5874  0.0274 -0.0277
 3340TIP3    H131511   0.280   1.480   2.241  1.2464  0.5970 -1.3771
 3340TIP3    H231512   0.177   1.495   2.131  0.2196  0.5909 -0.4383
 3341TIP3   OH231513   4.293   1.220  14.261  0.1891 -0.6297  0.8817
 3341TIP3    H131514   4.375   1.195  14.218  0.2391 -2.3499  1.8912
 3341TIP3    H231515   4.320   1.264  14.342  0.0908  0.5240  0.3079
 3342TIP3   OH231516   3.191   1.508  11.516  0.2260 -0.0187 -1.0141
 3342TIP3    H131517   3.103   1.522  11.549  0.7793  1.5969 -0.1129
 3342TIP3    H231518   3.239   1.473  11.591  0.4602 -0.4539 -1.3658
 3343TIP3   OH231519   2.709   3.069   3.517  0.5369  0.0602  0.3936
 3343TIP3    H131520   2.731   3.055   3.609  1.2475 -0.3691  0.1614
 3343TIP3    H231521   2.614   3.077   3.517  0.5901  1.1429  1.3092
 3344TIP3   OH231522   4.011   5.220  15.887  0.1579 -0.3229 -0.1293
 3344TIP3    H131523   3.919   5.241  15.905 -0.6414 -2.0044 -1.9428
 3344TIP3    H231524   4.025   5.134  15.928  0.7315 -0.3730 -0.4192
 3345TIP3   OH231525   4.280   0.329  11.369 -0.0826 -0.1116  0.3270
 3345TIP3    H131526   4.342   0.399  11.350  2.0272 -1.3408  2.2311
 3345TIP3    H231527   4.328   0.248  11.351 -1.0530 -1.1119  1.9508
 3346TIP3   OH231528   6.370   2.566   1.293 -0.5692  0.1023 -0.0054
 3346TIP3    H131529   6.363   2.646   1.241  0.2833  0.1358 -0.0907
 3346TIP3    H231530   6.431   2.510   1.244  1.3226  0.6683  1.5510
 3347TIP3   OH231531   1.327   4.658   3.022  0.0966  0.5603 -0.3457
 3347TIP3    H131532   1.371   4.667   2.937  0.8199  0.4881  0.0131
 3347TIP3    H231533   1.332   4.565   3.042  0.0114  0.5919 -0.1754
 3348TIP3   OH231534   6.771   6.366   4.247 -0.3091  0.1206  0.5783
 3348TIP3    H131535   6.810   6.340   4.330 -0.3062  0.0447  0.5533
 3348TIP3    H231536   6.845   6.396   4.194 -0.2130 -0.5149  0.3457
 3349TIP3   OH231537   6.767   4.277   2.676 -0.0857  0.0014  0.2412
 3349TIP3    H131538   6.726   4.363   2.684 -0.2114 -0.0119 -0.1996
 3349TIP3    H231539   6.758   4.238   2.762 -0.9207  0.0388  0.1791
 3350TIP3   OH231540   0.735   3.712   0.364 -0.0960  0.2762  0.1488
 3350TIP3    H131541   0.777   3.734   0.447  0.7081 -1.0802  0.1411
 3350TIP3    H231542   0.666   3.650   0.388  0.0408 -0.0037 -0.1733
 3351TIP3   OH231543   4.703   3.239   4.355 -0.3863 -0.1595  0.1127
 3351TIP3    H131544   4.635   3.305   4.346 -0.0421  0.0357 -1.1586
 3351TIP3    H231545   4.662   3.158   4.325 -0.6348 -0.4337  1.1477
 3352TIP3   OH231546   3.789   0.468  13.115  0.2317  0.1940  0.3968
 3352TIP3    H131547   3.807   0.416  13.036 -1.6539 -2.6421  1.6567
 3352TIP3    H231548   3.724   0.532  13.087 -0.3686 -0.7323 -0.3795
 3353TIP3   OH231549   0.724   3.615   2.160 -0.4708 -0.2784  0.5171
 3353TIP3    H131550   0.718   3.601   2.066 -1.4618  2.4541  0.0576
 3353TIP3    H231551   0.799   3.674   2.171 -1.2734  0.6650  1.1934
 3354TIP3   OH231552   0.181   0.550   6.160 -0.8830 -0.1906  0.2637
 3354TIP3    H131553   0.202   0.627   6.212  0.5835  0.0697 -0.6497
 3354TIP3    H231554   0.176   0.583   6.070 -1.7222 -0.9143  0.0353
 3355TIP3   OH231555   4.233   5.224   2.694  0.3520  0.0151  0.3807
 3355TIP3    H131556   4.144   5.235   2.727  0.5481 -1.2529  1.3942
 3355TIP3    H231557   4.223   5.217   2.599 -0.6335 -0.2370  0.4914
 3356TIP3   OH231558   4.723   3.115   0.489 -0.1119  0.0420 -0.0048
 3356TIP3    H131559   4.767   3.030   0.492  0.3039  0.2534  0.0171
 3356TIP3    H231560   4.751   3.154   0.406 -0.3628  0.1243 -0.0516
 3357TIP3   OH231561   4.590   2.206  16.299  0.4388 -0.5228 -0.4390
 3357TIP3    H131562   4.572   2.225  16.207 -2.3589 -1.8823 -0.2757
 3357TIP3    H231563   4.655   2.136  16.297 -0.1599 -1.0669 -1.4161
 3358TIP3   OH231564   1.530   6.401   2.282  0.0264 -0.1947 -0.0849
 3358TIP3    H131565   1.497   6.455   2.354 -0.8838  1.2836 -1.5371
 3358TIP3    H231566   1.453   6.357   2.248  0.4941 -1.0876 -0.0132
 3359TIP3   OH231567   5.009   4.808   5.547 -0.6924 -0.1039  0.9446
 3359TIP3    H131568   5.027   4.800   5.640 -1.7881  0.2401  1.2051
 3359TIP3    H231569   4.918   4.778   5.538  0.1175 -2.4421 -0.3691
 3360TIP3   OH231570   0.920   2.891  14.281  0.3268 -0.0262 -0.0094
 3360TIP3    H131571   0.973   2.827  14.234 -0.3899 -0.3383 -0.4163
 3360TIP3    H231572   0.968   2.909  14.361  0.7762 -0.7085 -0.1196
 3361TIP3   OH231573   3.632   6.749   0.399  0.1173 -0.1685  0.2312
 3361TIP3    H131574   3.632   6.835   0.442 -1.0188  0.2745 -0.5983
 3361TIP3    H231575   3.717   6.711   0.421  0.6624  1.1873  0.5757
 3362TIP3   OH231576   5.499   6.623   6.559  0.0686 -0.2526  0.7831
 3362TIP3    H131577   5.518   6.717   6.561  0.8582 -0.2752 -1.8500
 3362TIP3    H231578   5.584   6.581   6.569 -0.2317 -0.6930  1.5478
 3363TIP3   OH231579   6.363   3.778   6.338  0.4911 -1.0635 -0.4221
 3363TIP3    H131580   6.326   3.823   6.414 -1.5087  1.0737 -2.4832
 3363TIP3    H231581   6.344   3.685   6.354 -1.8539 -0.4761  0.7344
 3364TIP3   OH231582   1.205   3.374  15.492 -0.8876 -0.7167 -0.2708
 3364TIP3    H131583   1.227   3.281  15.487  0.4463 -0.3755 -1.1366
 3364TIP3    H231584   1.286   3.419  15.470 -0.6000  0.7311  3.0560
 3365TIP3   OH231585   6.455   4.905  13.680 -0.1192 -0.0619 -0.5972
 3365TIP3    H131586   6.480   4.816  13.656  0.5541  0.2097 -0.9359
 3365TIP3    H231587   6.488   4.959  13.608  1.1488  0.6772  0.4826
 3366TIP3   OH231588   1.988   4.274  13.963 -0.8065 -0.1538 -0.5339
 3366TIP3    H131589   1.984   4.241  14.053 -0.1456 -0.1364 -0.4935
 3366TIP3    H231590   2.080   4.296  13.950 -0.8093 -0.5964 -1.3763
 3367TIP3   OH231591   1.459   6.581   3.819 -0.4175 -0.2133  0.6968
 3367TIP3    H131592   1.405   6.578   3.898 -0.6396  0.2468  0.5678
 3367TIP3    H231593   1.409   6.637   3.759 -1.3351 -2.3053 -0.5926
 3368TIP3   OH231594   1.376   6.508   2.816  0.0555 -0.0675 -0.2914
 3368TIP3    H131595   1.354   6.435   2.873 -0.5398 -2.4873 -3.3322
 3368TIP3    H231596   1.468   6.493   2.792 -0.1993 -0.1284 -1.2785
 3369TIP3   OH231597   6.243   2.000  15.114 -0.9523 -0.4189 -0.0467
 3369TIP3    H131598   6.152   2.021  15.135 -1.3470 -1.0074 -1.0921
 3369TIP3    H231599   6.286   1.992  15.200 -2.2357 -1.6256  0.5249
 3370TIP3   OH231600   4.184   1.800   0.372  0.3851  0.5483 -1.0912
 3370TIP3    H131601   4.113   1.800   0.308 -0.4045  0.5180 -0.2400
 3370TIP3    H231602   4.262   1.779   0.321 -0.5601 -1.8202 -1.7048
 3371TIP3   OH231603   3.406   0.121   3.155 -0.2305 -0.2439 -0.0407
 3371TIP3    H131604   3.467   0.193   3.139 -1.7711  0.8213 -1.3947
 3371TIP3    H231605   3.354   0.149   3.230 -1.3148  0.4338 -1.0124
 3372TIP3   OH231606   0.927   2.348  13.915 -0.0217 -0.6651  0.0098
 3372TIP3    H131607   0.845   2.396  13.911 -0.1637 -0.9660 -0.9688
 3372TIP3    H231608   0.915   2.286  13.987 -0.5034 -0.4503  0.1192
 3373TIP3   OH231609   5.990   2.196  13.956 -0.5524 -0.0350  0.2338
 3373TIP3    H131610   5.944   2.175  13.875  0.5222  1.0450 -0.6818
 3373TIP3    H231611   6.010   2.111  13.994 -0.9311 -0.5609 -0.6997
 3374TIP3   OH231612   3.441   3.855  14.051 -0.5309  0.0850  0.6394
 3374TIP3    H131613   3.374   3.911  14.091  0.3237 -0.7535  3.5605
 3374TIP3    H231614   3.396   3.771  14.036 -0.8336  0.3764 -0.1420
 3375TIP3   OH231615   0.915   2.205  13.680 -0.2386 -0.2531 -0.2667
 3375TIP3    H131616   0.858   2.261  13.628 -0.4857 -0.9243 -0.7364
 3375TIP3    H231617   0.912   2.242  13.768  0.5183  1.1573 -0.8014
 3376TIP3   OH231618   6.447   1.423  13.276  0.7469  0.1710 -0.6114
 3376TIP3    H131619   6.499   1.501  13.257 -0.1020  1.2488  1.2367
 3376TIP3    H231620   6.402   1.443  13.358 -1.3601 -1.3267 -1.3057
 3377TIP3   OH231621   6.339   3.469   2.081 -0.4847 -0.0612  0.2699
 3377TIP3    H131622   6.264   3.506   2.036 -0.5700 -0.4917  0.0495
 3377TIP3    H231623   6.330   3.498   2.171 -0.7780  0.0957  0.1911
 3378TIP3   OH231624   5.719   5.660  11.540  0.3047  0.7694  0.1171
 3378TIP3    H131625   5.646   5.664  11.479 -0.1787  2.1361  0.7325
 3378TIP3    H231626   5.791   5.703  11.493  0.4303  0.2897 -0.1290
 3379TIP3   OH231627   3.578   6.555  13.887 -0.1520 -0.0859  0.1678
 3379TIP3    H131628   3.536   6.484  13.936  1.7557 -3.0126 -2.0804
 3379TIP3    H231629   3.546   6.544  13.797  0.2178  1.9933 -0.2757
 3380TIP3   OH231630   2.434   6.145  15.524  0.3671  0.4758  0.1777
 3380TIP3    H131631   2.491   6.114  15.454 -0.8638 -1.2416 -0.1463
 3380TIP3    H231632   2.465   6.233  15.544  1.9035  0.3067 -1.2542
 3381TIP3   OH231633   5.657   2.415   2.565  0.1522 -0.4202 -0.0624
 3381TIP3    H131634   5.691   2.325   2.564  0.9500 -0.1343  0.6384
 3381TIP3    H231635   5.562   2.404   2.562  0.1376 -1.3830  2.1586
 3382TIP3   OH231636   1.456   5.364   1.684  0.4740  0.2462 -0.0665
 3382TIP3    H131637   1.496   5.439   1.729 -0.5294  0.5730  0.3081
 3382TIP3    H231638   1.362   5.375   1.699  0.3813 -2.1491  1.6791
 3383TIP3   OH231639   5.879   4.321  13.161  0.0352 -0.1571  0.1533
 3383TIP3    H131640   5.960   4.347  13.204  0.0546 -0.3890  0.2547
 3383TIP3    H231641   5.813   4.322  13.230 -0.3726  1.4775 -0.1966
 3384TIP3   OH231642   3.678   4.744   0.706 -0.2174 -0.6692 -0.1390
 3384TIP3    H131643   3.664   4.782   0.792 -2.6406 -1.1911 -0.2208
 3384TIP3    H231644   3.718   4.659   0.723 -3.1959 -2.0297  0.7999
 3385TIP3   OH231645   3.621   3.621   1.325 -0.3254  0.6529 -0.3426
 3385TIP3    H131646   3.662   3.707   1.328 -0.8985  0.9160  0.3547
 3385TIP3    H231647   3.528   3.638   1.340 -0.1553 -0.2705  2.2561
 3386TIP3   OH231648   3.413   4.692   0.580 -0.1949  0.2605  0.4763
 3386TIP3    H131649   3.423   4.607   0.536 -0.4165 -0.6566  2.1095
 3386TIP3    H231650   3.498   4.708   0.622 -0.9486 -0.5696  2.4803
 3387TIP3   OH231651   1.434   5.845   5.871 -0.4054 -0.5092  0.3112
 3387TIP3    H131652   1.366   5.895   5.917 -2.1312 -1.5639 -0.9722
 3387TIP3    H231653   1.406   5.845   5.780  2.3232  0.5659 -0.6462
 3388TIP3   OH231654   4.575   2.089   2.013 -0.0899 -0.7868  0.7768
 3388TIP3    H131655   4.665   2.091   1.980 -0.3515  2.3200 -0.0253
 3388TIP3    H231656   4.583   2.099   2.107  0.4031 -0.7565  0.7345
 3389TIP3   OH231657   6.764   1.109   0.969  0.4982 -0.4615 -0.2898
 3389TIP3    H131658   6.776   1.190   0.920  4.1978  0.2375  1.4395
 3389TIP3    H231659   6.792   1.040   0.908 -2.5823 -0.6434 -1.7348
 3390TIP3   OH231660   4.325   3.247  15.916  0.4409  0.4752 -0.4311
 3390TIP3    H131661   4.271   3.304  15.970  0.6610  0.6376 -0.3803
 3390TIP3    H231662   4.399   3.302  15.890  1.0994 -0.0272  0.3223
 3391TIP3   OH231663   3.688   5.165  12.523 -0.2536  0.2721  0.1616
 3391TIP3    H131664   3.737   5.227  12.469 -0.1736  2.0290  2.1433
 3391TIP3    H231665   3.753   5.099  12.547  0.4170  0.9904  0.3618
 3392TIP3   OH231666   4.961   3.619   1.221 -0.0830  0.2169  0.7978
 3392TIP3    H131667   4.934   3.561   1.292  0.2507 -0.6582  0.2243
 3392TIP3    H231668   4.880   3.640   1.174 -0.5401  1.9722  2.2525
 3393TIP3   OH231669   1.504   2.069  14.537 -0.1546  0.0463 -0.1509
 3393TIP3    H131670   1.424   2.057  14.589  0.1811  0.5124  0.4882
 3393TIP3    H231671   1.562   2.119  14.594 -0.4661  2.2977 -1.6587
 3394TIP3   OH231672   0.362   0.563   2.347 -0.5810 -0.5105  0.3635
 3394TIP3    H131673   0.448   0.594   2.319 -0.2106 -0.6173  1.3344
 3394TIP3    H231674   0.301   0.632   2.320 -0.1834 -0.4000 -0.2664
 3395TIP3   OH231675   3.781   2.456   2.627 -0.0775  0.7257  0.1838
 3395TIP3    H131676   3.857   2.419   2.582 -2.5240 -0.5314 -3.4132
 3395TIP3    H231677   3.752   2.386   2.686 -0.8898 -0.6830 -1.7611
 3396TIP3   OH231678   5.349   4.818  14.930 -0.1559 -1.2985 -0.2117
 3396TIP3    H131679   5.337   4.771  14.848  0.5794 -0.4502 -0.8212
 3396TIP3    H231680   5.442   4.841  14.932 -0.0774 -1.6120  1.0342
 3397TIP3   OH231681   3.843   5.797  16.212 -0.2894 -0.4418 -0.2749
 3397TIP3    H131682   3.798   5.881  16.206 -1.7194 -1.0525  1.1805
 3397TIP3    H231683   3.932   5.820  16.239 -1.3202  0.5595  2.7534
 3398TIP3   OH231684   4.908   0.958  13.371  0.2839  0.3151  0.0401
 3398TIP3    H131685   4.965   0.914  13.308  0.1964  0.9571 -0.4994
 3398TIP3    H231686   4.886   0.891  13.435  1.0611 -0.1268 -0.1477
 3399TIP3   OH231687   2.482   6.574   3.877 -0.2049  0.0728 -1.1426
 3399TIP3    H131688   2.461   6.482   3.861  0.7695 -0.2984 -0.3474
 3399TIP3    H231689   2.413   6.623   3.831 -0.7038 -1.0455 -1.6037
 3400TIP3   OH231690   5.361   0.652   1.657  0.2239  0.1188 -0.7775
 3400TIP3    H131691   5.289   0.685   1.602  0.0459  1.3111  0.1279
 3400TIP3    H231692   5.364   0.558   1.638 -0.8862  0.2231 -1.6205
 3401TIP3   OH231693   3.239   4.335   0.078  0.8050 -1.1357 -0.3653
 3401TIP3    H131694   3.269   4.305   0.164  0.7043 -0.8108 -0.2154
 3401TIP3    H231695   3.182   4.409   0.097  3.6353  1.3504 -0.8656
 3402TIP3   OH231696   5.686   6.538  16.694  0.4006 -0.2973 -0.1064
 3402TIP3    H131697   5.696   6.532  16.599  0.7398 -0.6303 -0.0515
 3402TIP3    H231698   5.757   6.484  16.729  0.2691 -0.1875  0.3371
 3403TIP3   OH231699   5.160   2.853  12.213 -0.4620 -0.3499  0.6796
 3403TIP3    H131700   5.127   2.902  12.138  1.7612  0.4685  0.1613
 3403TIP3    H231701   5.143   2.908  12.288  0.7040  0.6100  0.2736
 3404TIP3   OH231702   3.517   1.421  16.470 -0.2116  0.0284 -0.2441
 3404TIP3    H131703   3.478   1.433  16.556 -1.4935  0.3842 -0.8359
 3404TIP3    H231704   3.473   1.344  16.434  0.2009 -0.0294 -0.6394
 3405TIP3   OH231705   6.718   2.080  10.860  0.0962  0.2811 -0.0761
 3405TIP3    H131706   6.679   2.046  10.940 -1.4380  0.6817 -0.6056
 3405TIP3    H231707   6.811   2.089  10.880 -0.3534  1.0754  1.9187
 3406TIP3   OH231708   6.354   2.638  16.217  0.2873  0.3179 -0.2363
 3406TIP3    H131709   6.336   2.725  16.183  0.8831  0.3174 -0.5713
 3406TIP3    H231710   6.335   2.645  16.311 -0.7320  0.4942 -0.4412
 3407TIP3   OH231711   4.383   6.410  13.915  0.5131  0.0736  0.2248
 3407TIP3    H131712   4.470   6.373  13.906  0.7586 -0.1257  2.7548
 3407TIP3    H231713   4.341   6.395  13.830  2.5837 -0.7016 -0.7114
 3408TIP3   OH231714   5.263   1.039  11.501  0.1900  0.1126 -0.3903
 3408TIP3    H131715   5.345   1.031  11.549  0.4766 -0.3947 -0.9506
 3408TIP3    H231716   5.209   1.097  11.555  1.0120  0.6757 -0.1487
 3409TIP3   OH231717   4.561   0.773   4.892 -0.4352 -0.4963 -0.2632
 3409TIP3    H131718   4.600   0.847   4.846  0.9298 -0.4794  0.8673
 3409TIP3    H231719   4.559   0.703   4.827  0.3368 -0.1221 -0.7063
 3410TIP3   OH231720   3.900   2.184  12.049 -0.2553  0.5004 -0.1653
 3410TIP3    H131721   3.888   2.123  11.976 -2.6911  2.4108 -1.5197
 3410TIP3    H231722   3.835   2.253  12.033  0.3043  1.8895  2.9182
 3411TIP3   OH231723   0.261   1.671   4.614 -0.3216 -0.7923  0.0636
 3411TIP3    H131724   0.239   1.625   4.533 -1.0695 -0.4118  0.0480
 3411TIP3    H231725   0.326   1.736   4.587 -0.7725 -0.4824 -0.2896
 3412TIP3   OH231726   1.297   4.035   0.752  0.4383 -0.0340  0.2579
 3412TIP3    H131727   1.290   4.131   0.751  0.7147 -0.0160 -0.3659
 3412TIP3    H231728   1.367   4.015   0.691 -1.1506 -0.7520 -1.4138
 3413TIP3   OH231729   5.439   3.884  16.906 -0.4106  0.0541 -0.0989
 3413TIP3    H131730   5.524   3.917  16.876  0.2341  0.6433  2.1338
 3413TIP3    H231731   5.445   3.889  17.002 -2.5678 -0.9437  0.1333
 3414TIP3   OH231732   4.076   4.737   1.994 -0.1446  0.7231 -0.2301
 3414TIP3    H131733   4.134   4.750   1.920  1.3927 -1.9005  0.3998
 3414TIP3    H231734   3.999   4.693   1.957  0.5567 -0.4556 -0.3301
 3415TIP3   OH231735   4.434   6.358  13.065  0.4406  0.0535  0.5096
 3415TIP3    H131736   4.469   6.367  12.977 -1.3232 -2.4396 -0.5532
 3415TIP3    H231737   4.345   6.391  13.060  0.4480  0.2803  1.5004
 3416TIP3   OH231738   1.280   4.562  13.106  0.1839  0.8625  0.0163
 3416TIP3    H131739   1.274   4.645  13.154  3.9469  1.2682  0.1556
 3416TIP3    H231740   1.297   4.496  13.173 -0.1362  0.4527 -0.3050
 3417TIP3   OH231741   3.095   5.395  13.824  0.5502  0.4841  0.0111
 3417TIP3    H131742   3.180   5.405  13.781  1.0831  1.4014  1.1870
 3417TIP3    H231743   3.100   5.454  13.900 -0.3091 -1.0939  1.3611
 3418TIP3   OH231744   4.474   3.325  11.081 -0.3038  0.2212 -0.1490
 3418TIP3    H131745   4.452   3.368  11.164  0.7894 -2.6085  1.7860
 3418TIP3    H231746   4.414   3.251  11.076 -0.9645  0.8373 -2.4370
 3419TIP3   OH231747   4.074   6.784  16.173 -0.3268  0.0807  0.0875
 3419TIP3    H131748   4.161   6.824  16.171 -1.4349  2.6990 -2.0048
 3419TIP3    H231749   4.040   6.803  16.261  0.9488 -0.4886  0.7288
 3420TIP3   OH231750   6.815   5.308  14.459 -0.6501  0.1150 -0.4753
 3420TIP3    H131751   6.749   5.336  14.523 -0.8576  0.4119 -0.8154
 3420TIP3    H231752   6.850   5.390  14.424  1.0394  0.0241  0.8322
 3421TIP3   OH231753   3.085   1.027   1.362 -0.2978 -0.5892  0.1776
 3421TIP3    H131754   3.143   1.084   1.412 -2.1951  2.1352 -0.5557
 3421TIP3    H231755   3.043   1.084   1.298 -1.4676 -3.0501 -1.4151
 3422TIP3   OH231756   4.069   5.502  12.859 -0.2990  0.1659 -0.0460
 3422TIP3    H131757   3.982   5.496  12.819 -0.9226  0.1258  1.2548
 3422TIP3    H231758   4.118   5.428  12.823 -0.8361  0.1374 -0.7186
 3423TIP3   OH231759   0.862   3.248  11.275  0.2256  0.0336  0.1731
 3423TIP3    H131760   0.907   3.333  11.276 -0.9610  0.7063  1.6308
 3423TIP3    H231761   0.915   3.192  11.331 -0.3216  0.6091  1.3018
 3424TIP3   OH231762   1.829   6.198   1.597  0.2312  0.2148 -0.5612
 3424TIP3    H131763   1.776   6.152   1.663  0.0647  0.0363 -0.8179
 3424TIP3    H231764   1.902   6.236   1.647  0.0692  0.1380 -0.2642
 3425TIP3   OH231765   0.273   3.120   0.401  0.3362  0.4305 -0.6110
 3425TIP3    H131766   0.326   3.088   0.474 -0.2207 -0.2992 -0.5110
 3425TIP3    H231767   0.316   3.201   0.374  0.8362  0.4503  0.2004
 3426TIP3   OH231768   3.499   1.470   1.186 -0.1540  0.4699 -0.1082
 3426TIP3    H131769   3.520   1.384   1.222 -0.6002  0.7664  0.8926
 3426TIP3    H231770   3.560   1.482   1.113  0.3819 -0.3876  0.1969
 3427TIP3   OH231771   4.737   1.328  16.554  0.0892 -0.0342  0.2618
 3427TIP3    H131772   4.657   1.286  16.586  0.0333  1.0725  1.6345
 3427TIP3    H231773   4.795   1.330  16.630  1.1541 -0.1631 -0.5325
 3428TIP3   OH231774   0.782   5.459  12.835 -0.0620 -0.0695 -0.0621
 3428TIP3    H131775   0.873   5.439  12.816 -0.2495  0.0759 -1.2166
 3428TIP3    H231776   0.735   5.379  12.811 -0.1472 -0.5166  1.5095
 3429TIP3   OH231777   2.332   1.840  14.543  0.0737 -0.0649  0.4281
 3429TIP3    H131778   2.302   1.909  14.602 -0.1426 -1.3571  1.9040
 3429TIP3    H231779   2.367   1.773  14.601  2.6249 -0.1619 -1.0546
 3430TIP3   OH231780   5.112   2.501  11.183  0.7139 -0.3467 -0.1951
 3430TIP3    H131781   5.059   2.470  11.109  0.6825  0.7618 -0.6507
 3430TIP3    H231782   5.049   2.536  11.245  0.8250 -0.1196 -0.2091
 3431TIP3   OH231783   6.391   2.655   5.072 -0.5594  0.3623  0.6375
 3431TIP3    H131784   6.322   2.673   5.136 -2.2188 -0.3152 -0.8575
 3431TIP3    H231785   6.396   2.559   5.070 -0.1841  0.3921  0.1117
 3432TIP3   OH231786   5.219   4.530   0.727 -0.8269  0.0781 -0.1780
 3432TIP3    H131787   5.132   4.547   0.763 -0.2273  3.0097  0.1689
 3432TIP3    H231788   5.224   4.583   0.648  0.4457 -0.5026 -0.5224
 3433TIP3   OH231789   3.287   0.859  12.312  0.9695 -0.3979  0.5332
 3433TIP3    H131790   3.292   0.774  12.356  1.8698 -0.3803  0.4786
 3433TIP3    H231791   3.356   0.912  12.353  0.2268  0.4107  0.7715
 3434TIP3   OH231792   5.646   1.597  14.964 -0.2428  0.1864  0.2376
 3434TIP3    H131793   5.643   1.595  14.869 -1.6478 -3.0436  0.2060
 3434TIP3    H231794   5.637   1.689  14.987  0.0921  1.0391 -2.7244
 3435TIP3   OH231795   5.308   4.091  14.834  0.2437 -0.2437  0.0516
 3435TIP3    H131796   5.401   4.087  14.856  0.2900  0.6111  0.0267
 3435TIP3    H231797   5.286   4.001  14.807  1.1865 -0.3338 -0.4651
 3436TIP3   OH231798   5.312   6.716  14.045  0.3194 -0.2999  0.6872
 3436TIP3    H131799   5.276   6.636  14.083  0.4959 -0.6170  0.1953
 3436TIP3    H231800   5.271   6.722  13.958  0.0173  0.3479  0.8609
 3437TIP3   OH231801   3.874   1.257   2.631 -0.1809  0.3535 -0.3398
 3437TIP3    H131802   3.872   1.274   2.725  0.1235 -1.0928 -0.0371
 3437TIP3    H231803   3.866   1.343   2.590 -3.0130  0.8049  0.9584
 3438TIP3   OH231804   4.593   6.115  11.361  0.3395  0.1563  0.1929
 3438TIP3    H131805   4.675   6.163  11.364  0.0701  0.6210  0.1233
 3438TIP3    H231806   4.620   6.023  11.352  0.8900  0.1369  1.7687
 3439TIP3   OH231807   3.202   2.006  15.806 -0.0384  0.6346  0.1071
 3439TIP3    H131808   3.115   2.031  15.776 -0.0763  0.2951 -0.0771
 3439TIP3    H231809   3.244   1.969  15.728  0.3165  0.9136  0.1645
 3440TIP3   OH231810   4.689   0.181   4.314 -0.2141  0.3923 -0.9620
 3440TIP3    H131811   4.750   0.238   4.361 -0.0173 -0.1938 -0.4866
 3440TIP3    H231812   4.743   0.129   4.256 -0.2412 -0.1498 -0.5181
 3441TIP3   OH231813   3.366   6.630  12.869 -0.7213  0.3484  0.6992
 3441TIP3    H131814   3.446   6.653  12.917  0.7658 -2.1689 -0.3548
 3441TIP3    H231815   3.396   6.612  12.780 -2.3528 -1.1214  0.3982
 3442TIP3   OH231816   5.303   6.723  13.566 -0.1995  0.1368  0.1042
 3442TIP3    H131817   5.282   6.684  13.650 -0.5278  3.0523  1.5131
 3442TIP3    H231818   5.218   6.729  13.521  0.1830 -2.8327 -1.2108
 3443TIP3   OH231819   2.970   3.605   1.233 -0.1938 -0.1601 -0.1135
 3443TIP3    H131820   2.948   3.676   1.292  2.6363  1.6057 -1.0023
 3443TIP3    H231821   2.901   3.606   1.167  0.5889  2.8746 -0.9958
 3444TIP3   OH231822   5.031   6.619  14.392 -0.1544  0.4189 -0.0200
 3444TIP3    H131823   5.067   6.608  14.305 -0.2338 -0.3343  0.0393
 3444TIP3    H231824   5.028   6.531  14.429 -0.4078  0.6894  0.6292
 3445TIP3   OH231825   5.331   3.391  14.815 -0.3940  0.0838  0.2954
 3445TIP3    H131826   5.367   3.444  14.886 -0.8828  0.5993  0.1616
 3445TIP3    H231827   5.236   3.408  14.818 -0.4111  0.1623 -0.5240
 3446TIP3   OH231828   1.178   6.114   0.360 -0.1736  0.5709  0.4289
 3446TIP3    H131829   1.229   6.122   0.280 -1.1505  1.1178 -0.1604
 3446TIP3    H231830   1.203   6.189   0.413  1.0780 -0.2277  1.0116
 3447TIP3   OH231831   3.149   2.285  16.273 -0.2558  0.1440  0.2202
 3447TIP3    H131832   3.222   2.275  16.212 -0.3360  2.8138 -0.4165
 3447TIP3    H231833   3.071   2.280  16.217 -0.5374 -1.0728  0.6765
 3448TIP3   OH231834   2.507   4.383   2.774  0.4775  0.4436 -0.5039
 3448TIP3    H131835   2.442   4.332   2.726  1.4815 -1.1666 -0.2331
 3448TIP3    H231836   2.590   4.340   2.755  1.5923  2.7490 -1.2586
 3449TIP3   OH231837   0.324   2.604  14.996 -0.1777 -0.0178  0.1599
 3449TIP3    H131838   0.276   2.524  14.978 -0.0780  0.3153 -1.7818
 3449TIP3    H231839   0.393   2.606  14.930  0.4631  1.1587  0.8257
 3450TIP3   OH231840   6.323   0.417   2.635  0.0734 -0.1456  0.3469
 3450TIP3    H131841   6.244   0.424   2.688  0.0222 -1.3842  0.4664
 3450TIP3    H231842   6.316   0.487   2.571 -0.6535  0.3466  0.9592
 3451TIP3   OH231843   4.285   6.049   1.277  0.4305 -0.9616  0.2681
 3451TIP3    H131844   4.312   5.977   1.335 -1.1215 -2.1532 -0.4310
 3451TIP3    H231845   4.247   6.114   1.337  0.0126 -1.6146  0.7283
 3452TIP3   OH231846   2.133   0.659  14.334 -0.0582 -0.7032 -0.1638
 3452TIP3    H131847   2.205   0.605  14.304 -0.1535 -0.2512 -1.2206
 3452TIP3    H231848   2.140   0.657  14.430  1.5428 -0.3904 -0.2581
 3453TIP3   OH231849   2.293   2.220   0.351  0.0181 -0.1541 -0.1727
 3453TIP3    H131850   2.272   2.149   0.290  1.8898  0.2495 -1.3646
 3453TIP3    H231851   2.232   2.290   0.329 -1.3596 -1.0931  0.5258
 3454TIP3   OH231852   3.849   5.542  16.083 -0.2539  0.2962  0.1084
 3454TIP3    H131853   3.850   5.585  15.997  1.1009  0.2983  0.0972
 3454TIP3    H231854   3.861   5.614  16.146  2.8057 -0.0174  0.0515
 3455TIP3   OH231855   0.830   1.497   0.770  0.5066 -0.1588 -0.3224
 3455TIP3    H131856   0.758   1.556   0.750 -0.2515 -0.0519  2.3705
 3455TIP3    H231857   0.908   1.540   0.735 -0.3827  1.1242 -0.7659
 3456TIP3   OH231858   6.332   5.815   1.825  0.4171 -0.4403  0.0088
 3456TIP3    H131859   6.381   5.738   1.797 -0.4548 -0.1271 -2.6709
 3456TIP3    H231860   6.278   5.784   1.899 -0.1616 -2.5125 -1.2056
 3457TIP3   OH231861   0.083   3.148  14.002 -0.8117  0.2241  0.3741
 3457TIP3    H131862   0.042   3.218  14.053 -1.5836 -0.8483  1.2754
 3457TIP3    H231863   0.056   3.166  13.911 -1.7832  0.5642  0.7132
 3458TIP3   OH231864   5.305   1.075   0.756  1.0480  0.1493 -0.2342
 3458TIP3    H131865   5.212   1.060   0.738  1.3131 -2.1845 -0.0082
 3458TIP3    H231866   5.309   1.166   0.784 -1.0118  0.6145 -1.2101
 3459TIP3   OH231867   2.703   4.002  11.157 -0.0814 -0.4701 -0.1042
 3459TIP3    H131868   2.642   4.073  11.177 -0.1307 -0.8299  1.0857
 3459TIP3    H231869   2.727   3.966  11.243  1.0040 -1.0018 -0.6136
 3460TIP3   OH231870   1.134   3.844   3.545  0.0471  0.4281 -0.3578
 3460TIP3    H131871   1.150   3.838   3.451  0.5993  1.5268 -0.3432
 3460TIP3    H231872   1.162   3.933   3.569  1.3442 -0.3210  1.1102
 3461TIP3   OH231873   2.958   1.858  12.819  0.6851 -0.2825 -0.5868
 3461TIP3    H131874   2.908   1.777  12.810  1.2272 -0.6336 -0.4935
 3461TIP3    H231875   2.902   1.925  12.781  0.5236 -0.8160 -1.3030
 3462TIP3   OH231876   5.596   5.277   4.513  0.1172  0.1392  0.2061
 3462TIP3    H131877   5.530   5.299   4.447  1.6010  0.6810 -1.1990
 3462TIP3    H231878   5.614   5.359   4.558  2.6641  1.0767 -2.2077
 3463TIP3   OH231879   0.126   2.957   3.679  0.0611  0.2581 -0.1263
 3463TIP3    H131880   0.122   2.879   3.735  0.1645  2.5259  3.3750
 3463TIP3    H231881   0.051   3.010   3.707  0.3962  1.7681 -1.8868
 3464TIP3   OH231882   6.151   3.549   0.225  0.3357 -0.3732  0.6958
 3464TIP3    H131883   6.190   3.597   0.151  1.1603  0.3068  1.5461
 3464TIP3    H231884   6.061   3.582   0.230 -0.0984 -1.2451 -0.6816
 3465TIP3   OH231885   6.167   0.005   3.845 -0.4712  0.3298 -0.1911
 3465TIP3    H131886   6.146   0.008   3.752 -0.5985  1.5092 -0.1356
 3465TIP3    H231887   6.262  -0.001   3.848 -0.4103  1.1233 -0.3969
 3466TIP3   OH231888   6.747   2.299   6.362  0.2823 -0.1599 -0.4167
 3466TIP3    H131889   6.837   2.320   6.335 -0.4554  2.6866 -1.0205
 3466TIP3    H231890   6.696   2.304   6.281 -1.0220  2.5739  0.4388
 3467TIP3   OH231891   1.884   1.121   2.141  0.4476 -0.0091  0.4734
 3467TIP3    H131892   1.928   1.172   2.073  1.8844 -0.4481  1.0391
 3467TIP3    H231893   1.793   1.117   2.112  1.0865 -0.6023 -1.6953
 3468TIP3   OH231894   4.932   1.262   6.186  0.5972  0.4251 -0.4214
 3468TIP3    H131895   4.982   1.280   6.266 -0.8659 -0.8232  0.8157
 3468TIP3    H231896   4.843   1.290   6.207  0.1419 -0.1532 -1.5310
 3469TIP3   OH231897   5.760   4.807   0.123  0.0932 -0.3611 -0.6919
 3469TIP3    H131898   5.730   4.716   0.122 -1.1450 -0.1118  2.1912
 3469TIP3    H231899   5.679   4.858   0.118  0.6273  0.5265 -0.4174
 3470TIP3   OH231900   1.553   1.330   4.302 -0.0918  0.5035  0.2642
 3470TIP3    H131901   1.571   1.314   4.395 -2.0149  1.0485  0.7740
 3470TIP3    H231902   1.574   1.422   4.289  2.0117 -0.0215 -0.3543
 3471TIP3   OH231903   6.781   6.640   2.816  0.1466 -0.0959  0.6256
 3471TIP3    H131904   6.782   6.587   2.737 -0.9027  0.4927  0.1907
 3471TIP3    H231905   6.693   6.628   2.852 -0.9546  2.9740 -0.6775
 3472TIP3   OH231906   2.737   0.226   4.934 -0.3577  0.2689  0.4230
 3472TIP3    H131907   2.734   0.192   4.844 -0.2705  0.9331  0.1634
 3472TIP3    H231908   2.685   0.164   4.985 -2.0254  0.8803 -0.4276
 3473TIP3   OH231909   3.225   4.737   2.776 -0.0813  0.1307  0.0228
 3473TIP3    H131910   3.270   4.653   2.774 -2.8625 -1.4778 -1.5260
 3473TIP3    H231911   3.267   4.789   2.708  0.3720 -0.7673 -0.3932
 3474TIP3   OH231912   3.693   1.428  15.014  0.3076  0.2293  0.2418
 3474TIP3    H131913   3.712   1.510  15.059 -1.6471  0.1685  1.3119
 3474TIP3    H231914   3.690   1.363  15.085  0.5909 -0.5287 -0.4308
 3475TIP3   OH231915   1.280   1.304   4.228  0.3640 -0.6975  0.3288
 3475TIP3    H131916   1.368   1.329   4.255  0.0400  1.7135 -0.6164
 3475TIP3    H231917   1.238   1.272   4.308  0.9771  1.5822  1.6485
 3476TIP3   OH231918   3.796   4.531  14.074 -0.0803 -0.3421  0.3588
 3476TIP3    H131919   3.727   4.597  14.069  1.3321  1.2383  0.9661
 3476TIP3    H231920   3.755   4.457  14.118 -1.2614  0.7369  1.1488
 3477TIP3   OH231921   5.954   5.937   4.290  0.0642  0.3991  0.8935
 3477TIP3    H131922   6.028   5.958   4.234 -0.5689 -0.7460 -0.4371
 3477TIP3    H231923   5.970   5.847   4.319 -2.3932 -1.2540 -2.2774
 3478TIP3   OH231924   2.890   6.738   0.576 -0.1515  0.0069 -0.0997
 3478TIP3    H131925   2.880   6.717   0.668 -0.2325 -1.0566 -0.3343
 3478TIP3    H231926   2.984   6.740   0.561 -0.1400  0.0189 -0.0218
 3479TIP3   OH231927   3.611   1.420   4.590 -0.0863 -0.1177  0.3463
 3479TIP3    H131928   3.704   1.440   4.576  0.1702 -0.4808  1.3805
 3479TIP3    H231929   3.570   1.435   4.505  0.9532 -0.1282 -0.1797
 3480TIP3   OH231930   5.942   6.095   3.493 -0.6458 -0.4632 -0.4485
 3480TIP3    H131931   6.014   6.113   3.553 -1.9047  1.1267  0.6926
 3480TIP3    H231932   5.886   6.033   3.540 -0.5188 -0.9321 -0.9112
 3481TIP3   OH231933   2.307   6.794   0.944 -0.0653 -0.2717  0.0707
 3481TIP3    H131934   2.296   6.724   0.880  0.7753 -0.9599  0.6485
 3481TIP3    H231935   2.310   6.750   1.028 -2.4105  0.7177  0.7649
 3482TIP3   OH231936   1.215   5.195  16.427  0.6373 -0.2126  0.0421
 3482TIP3    H131937   1.218   5.278  16.380  1.8924  0.5417  1.4078
 3482TIP3    H231938   1.127   5.162  16.411  0.6923  0.4993 -1.9787
 3483TIP3   OH231939   3.194   1.991   0.353  0.0708  0.7779  0.0123
 3483TIP3    H131940   3.141   2.064   0.384 -0.8940  0.8596 -1.6996
 3483TIP3    H231941   3.264   1.983   0.417 -0.8199  2.0410  1.1983
 3484TIP3   OH231942   5.894   3.106  13.483  0.0502 -0.1306  0.0632
 3484TIP3    H131943   5.926   3.089  13.572  0.9993 -1.1430 -0.4457
 3484TIP3    H231944   5.944   3.182  13.454  1.3187 -1.0804 -0.3482
 3485TIP3   OH231945   3.644   5.556  13.900 -0.5435  0.2538 -0.1390
 3485TIP3    H131946   3.717   5.614  13.877 -1.0941  0.7923 -0.5578
 3485TIP3    H231947   3.630   5.571  13.993  2.0547 -2.3381  0.8318
 3486TIP3   OH231948   4.202   1.129   4.526 -0.0573  0.3245  0.0788
 3486TIP3    H131949   4.194   1.221   4.551  1.4373 -0.1484  2.5925
 3486TIP3    H231950   4.293   1.118   4.500 -0.4048 -0.3098 -0.9494
 3487TIP3   OH231951   4.736   1.703   4.905  0.3616  0.0041  0.1847
 3487TIP3    H131952   4.753   1.772   4.969  1.4241 -0.8907  0.8988
 3487TIP3    H231953   4.649   1.724   4.870  0.5351  1.5172  0.6069
 3488TIP3   OH231954   4.154   6.274  12.635 -0.1961  0.9674  0.1592
 3488TIP3    H131955   4.133   6.356  12.592 -1.3135  0.3998 -0.4116
 3488TIP3    H231956   4.070   6.241  12.667 -0.3568 -1.4541 -2.3393
 3489TIP3   OH231957   2.877   4.878  15.194 -0.6633  0.1867  0.3845
 3489TIP3    H131958   2.870   4.904  15.102  4.2531 -0.9840 -0.5784
 3489TIP3    H231959   2.881   4.783  15.193  2.9382  0.1922  1.2165
 3490TIP3   OH231960   3.032   1.668   1.464  1.2320 -0.1424 -0.2526
 3490TIP3    H131961   3.038   1.754   1.424  0.1620 -0.3407 -0.8934
 3490TIP3    H231962   3.094   1.614   1.415  0.6102 -0.1520 -1.0483
 3491TIP3   OH231963   5.862   2.969  10.628  0.3026 -0.4490 -0.4316
 3491TIP3    H131964   5.918   3.047  10.637 -0.8430  0.3009  0.5235
 3491TIP3    H231965   5.792   2.996  10.569  0.1775 -0.9287 -0.5076
 3492TIP3   OH231966   3.169   6.031   0.616 -0.2196  0.4741  0.3008
 3492TIP3    H131967   3.159   6.075   0.700 -1.3328  1.5342 -0.3365
 3492TIP3    H231968   3.104   5.961   0.618  1.6932 -1.3801  1.3968
 3493TIP3   OH231969   3.688   1.855   4.619  0.1719  0.1555 -0.0237
 3493TIP3    H131970   3.643   1.817   4.695 -0.2819 -1.0808 -0.8821
 3493TIP3    H231971   3.649   1.942   4.610  0.7840  0.6473  1.5993
 3494TIP3   OH231972   3.354   1.197   1.258  0.0929 -1.0898 -0.3186
 3494TIP3    H131973   3.322   1.110   1.283 -0.1072 -0.2673  2.6099
 3494TIP3    H231974   3.447   1.196   1.281 -0.3249  0.0296  1.6503
 3495TIP3   OH231975   0.997   4.371   1.839  0.0878  0.0520  0.1083
 3495TIP3    H131976   0.992   4.436   1.909 -1.3550  0.3319 -0.2330
 3495TIP3    H231977   1.036   4.418   1.765 -2.7951  1.2236 -0.8147
 3496TIP3   OH231978   3.395   3.777   0.849 -0.2697 -0.1306 -0.8042
 3496TIP3    H131979   3.325   3.793   0.786 -0.9288  2.3620  0.4206
 3496TIP3    H231980   3.373   3.832   0.924  1.2504 -1.8582  1.0452
 3497TIP3   OH231981   0.561   2.744   3.053  0.5980  0.6554  0.6170
 3497TIP3    H131982   0.535   2.818   3.109 -1.6840 -0.3254  0.9556
 3497TIP3    H231983   0.528   2.768   2.966 -0.7492 -0.2211  0.8657
 3498TIP3   OH231984   5.267   3.550   1.379  0.2449  0.0452 -0.0508
 3498TIP3    H131985   5.258   3.570   1.285  1.9461 -0.8053 -0.4372
 3498TIP3    H231986   5.183   3.576   1.417 -0.7164 -0.1512 -1.9088
 3499TIP3   OH231987   2.854   5.449  14.948 -0.1602  0.4219 -0.7275
 3499TIP3    H131988   2.926   5.493  14.905  0.7563  0.5151  0.8317
 3499TIP3    H231989   2.813   5.517  15.002  1.5326 -0.5824  2.0397
 3500TIP3   OH231990   1.765   1.521   0.279 -0.4332  0.1897 -0.1198
 3500TIP3    H131991   1.670   1.523   0.291 -0.8743 -0.5339 -2.8615
 3500TIP3    H231992   1.798   1.588   0.339 -2.7181  0.8967  0.4565
 3501TIP3   OH231993   5.764   5.363   1.292  0.2033  0.4596  0.4536
 3501TIP3    H131994   5.754   5.453   1.262 -0.1017 -0.0166 -0.9552
 3501TIP3    H231995   5.859   5.348   1.291  0.1921  0.3530 -0.6708
 3502TIP3   OH231996   4.078   3.640   0.453  0.7157 -0.4543 -0.1002
 3502TIP3    H131997   4.011   3.643   0.522  0.5907  0.0727 -0.2396
 3502TIP3    H231998   4.159   3.620   0.499  0.9693  1.6523  0.4815
 3503TIP3   OH231999   0.461   5.523  13.362 -0.4299 -0.4390  0.0063
 3503TIP3    H132000   0.378   5.569  13.378  0.5879  3.2353 -3.3560
 3503TIP3    H232001   0.447   5.476  13.280 -0.0463 -2.4560  1.0531
 3504TIP3   OH232002   5.682   2.354  13.933  0.8697 -0.2048 -0.3240
 3504TIP3    H132003   5.739   2.378  13.859  0.7672  2.2378  0.2776
 3504TIP3    H232004   5.663   2.438  13.976  0.5445 -1.4818  2.2162
 3505TIP3   OH232005   5.806   2.230   3.845 -0.3835 -0.5543 -0.2045
 3505TIP3    H132006   5.718   2.204   3.820 -0.2434 -0.8947 -0.3483
 3505TIP3    H232007   5.805   2.326   3.840 -0.2626 -0.6096 -1.9412
 3506TIP3   OH232008   5.572   0.497   1.517  0.2384  0.0690  0.0283
 3506TIP3    H132009   5.491   0.454   1.489 -0.1106 -0.9845  2.3993
 3506TIP3    H232010   5.637   0.426   1.518  0.8547  0.6152 -0.5234
 3507TIP3   OH232011   1.194   0.711  16.078 -0.0345 -0.1178 -0.3586
 3507TIP3    H132012   1.232   0.751  16.156 -0.6384  1.5987 -0.9020
 3507TIP3    H232013   1.122   0.657  16.111 -0.0784  0.3314  0.2949
 3508TIP3   OH232014   2.930   3.080  10.988  0.0109  0.0528 -0.1242
 3508TIP3    H132015   2.905   2.990  11.008  1.3628  0.3269  3.7733
 3508TIP3    H232016   2.849   3.122  10.959 -1.0105 -2.0049 -0.4227
 3509TIP3   OH232017   3.198   4.557  11.145  0.0068  0.0914  0.4219
 3509TIP3    H132018   3.274   4.526  11.195 -0.0158 -1.5394 -0.4725
 3509TIP3    H232019   3.129   4.493  11.163  0.3585 -1.3099 -2.5392
 3510TIP3   OH232020   4.177   2.582   2.407  0.0537  1.2052 -1.2588
 3510TIP3    H132021   4.085   2.606   2.401 -0.8660 -1.2354  1.1167
 3510TIP3    H232022   4.201   2.601   2.498  0.8348 -1.3682 -0.8506
 3511TIP3   OH232023   1.393   6.201   5.706  0.0008 -0.9055 -0.3224
 3511TIP3    H132024   1.310   6.184   5.752  0.9885 -2.0426  1.1361
 3511TIP3    H232025   1.380   6.286   5.664 -2.7091 -2.0521 -2.0773
 3512TIP3   OH232026   5.891   5.056   1.075  0.2541  0.2534  0.1479
 3512TIP3    H132027   5.807   5.009   1.080  1.0525 -1.1391  1.4470
 3512TIP3    H232028   5.957   4.987   1.085  1.5074  1.5232  0.9779
 3513TIP3   OH232029   0.658   1.826  15.230 -0.2186 -0.2742  0.5096
 3513TIP3    H132030   0.576   1.814  15.278 -0.0290  1.2568  1.2534
 3513TIP3    H232031   0.723   1.779  15.283 -0.4781 -0.9294  0.2642
 3514TIP3   OH232032   1.956   4.386  16.246  0.0053  0.3559  0.6641
 3514TIP3    H132033   1.985   4.298  16.269 -0.7508 -0.1172 -0.1787
 3514TIP3    H232034   2.032   4.442  16.266  1.0464 -0.6814 -0.2823
 3515TIP3   OH232035   0.209   4.014   2.793 -0.2819  0.1303  0.0508
 3515TIP3    H132036   0.220   4.100   2.751  0.6217 -0.4551 -0.9552
 3515TIP3    H232037   0.178   3.957   2.723 -1.4806 -0.2457  0.8611
 3516TIP3   OH232038   0.378   3.835  15.554 -0.0699 -0.2537 -0.2751
 3516TIP3    H132039   0.433   3.859  15.629 -0.3887  1.3515 -0.5111
 3516TIP3    H232040   0.439   3.797  15.491  0.6173  0.5331 -0.1111
 3517TIP3   OH232041   2.919   4.998  10.808  0.0837 -1.0632 -0.1581
 3517TIP3    H132042   2.941   4.936  10.877  2.0017  0.3680  0.5780
 3517TIP3    H232043   2.825   5.013  10.819  0.1127 -1.7997  1.3419
 3518TIP3   OH232044   3.899   5.512   0.798  0.7562 -0.4750 -0.0428
 3518TIP3    H132045   3.917   5.528   0.706  0.8330 -0.0689  0.0391
 3518TIP3    H232046   3.885   5.417   0.804 -2.2598 -0.1866 -0.9986
 3519TIP3   OH232047   4.105   2.171  12.958  0.1103 -0.0528 -0.3668
 3519TIP3    H132048   4.198   2.150  12.964 -0.1972 -2.0398 -1.6082
 3519TIP3    H232049   4.098   2.225  12.879  0.7353  4.1757  2.1904
 3520TIP3   OH232050   5.822   4.717   2.960 -0.1037  0.0802  0.0599
 3520TIP3    H132051   5.782   4.762   2.885  2.0496  0.5960 -0.8654
 3520TIP3    H232052   5.748   4.685   3.012 -1.7066 -1.0397 -2.7076
 3521TIP3   OH232053   1.862   6.335  11.978 -0.2330 -0.1470 -0.5715
 3521TIP3    H132054   1.866   6.409  12.038  2.8449 -0.7184  0.1107
 3521TIP3    H232055   1.879   6.258  12.033  1.9737 -0.7538 -1.9639
 3522TIP3   OH232056   4.667   5.855  13.673 -0.0995 -0.4354  0.3328
 3522TIP3    H132057   4.620   5.835  13.754 -0.9585 -1.5965 -0.4009
 3522TIP3    H232058   4.597   5.862  13.607  0.6376 -0.4024 -0.4594
 3523TIP3   OH232059   2.058   6.312  10.626  0.3301 -0.4650  0.1044
 3523TIP3    H132060   1.967   6.283  10.637 -0.9585  2.4990 -1.5150
 3523TIP3    H232061   2.062   6.397  10.669  2.7809 -1.1004  1.3056
 3524TIP3   OH232062   2.921   2.979  12.452  0.0089 -0.0555 -0.1263
 3524TIP3    H132063   2.931   3.073  12.467 -0.0918  0.0076 -0.4612
 3524TIP3    H232064   2.906   2.943  12.540  1.1686  0.0973  0.1483
 3525TIP3   OH232065   5.971   5.217  14.199  0.4010 -0.3975  0.2166
 3525TIP3    H132066   5.972   5.311  14.221 -0.6984 -0.0172 -1.1815
 3525TIP3    H232067   6.056   5.201  14.160  0.4428  0.1385  0.0724
 3526TIP3   OH232068   1.621   0.874   3.255  0.0708  0.3828 -0.5641
 3526TIP3    H132069   1.624   0.855   3.349  0.4114 -0.3964 -0.7224
 3526TIP3    H232070   1.556   0.812   3.220  2.2738 -1.6691 -1.3278
 3527TIP3   OH232071   4.338   1.534   1.508  0.9225 -0.0453  0.3713
 3527TIP3    H132072   4.259   1.585   1.496  2.0392  1.6579 -0.1035
 3527TIP3    H232073   4.339   1.512   1.601  0.2373  0.5045  0.5122
 3528TIP3   OH232074   6.526   5.519  15.660  0.0323 -0.7003 -0.3028
 3528TIP3    H132075   6.593   5.565  15.710  0.2397 -0.4986 -0.7544
 3528TIP3    H232076   6.509   5.439  15.709  0.0443 -0.3852  0.2177
 3529TIP3   OH232077   1.337   4.581   5.801  0.5389 -0.0597 -0.2546
 3529TIP3    H132078   1.372   4.657   5.848  0.4872 -0.5245  0.5621
 3529TIP3    H232079   1.264   4.552   5.855  0.6426 -0.7669 -0.4868
 3530TIP3   OH232080   0.448   5.042   1.761  0.0602 -0.0340 -0.3042
 3530TIP3    H132081   0.421   4.951   1.747  1.7808 -0.4323 -1.2873
 3530TIP3    H232082   0.542   5.042   1.747  0.1726  1.8355  0.1354
 3531TIP3   OH232083   4.837   5.506  13.028  0.5118 -0.3339 -0.2338
 3531TIP3    H132084   4.875   5.421  13.049  1.8138 -0.1273 -1.5910
 3531TIP3    H232085   4.744   5.488  13.015  0.4198 -1.1907  1.2851
 3532TIP3   OH232086   1.744   3.615   1.158 -0.4079  0.4108 -0.3094
 3532TIP3    H132087   1.676   3.556   1.192  0.6279  0.4780  2.0344
 3532TIP3    H232088   1.731   3.612   1.063 -2.7608 -0.6744 -0.0465
 3533TIP3   OH232089   1.151   5.868   1.272 -0.1234  0.3389  0.2173
 3533TIP3    H132090   1.215   5.840   1.206 -1.2806  0.5142 -1.0397
 3533TIP3    H232091   1.156   5.963   1.272 -0.4742  0.3611 -0.0047
 3534TIP3   OH232092   3.463   3.508   4.913  0.1299 -0.1552  0.8139
 3534TIP3    H132093   3.421   3.466   4.838  0.4310  1.5614 -0.3677
 3534TIP3    H232094   3.396   3.565   4.950  0.9237  1.5339 -0.2327
 3535TIP3   OH232095   4.355   6.595  12.334  0.2378  0.1199 -0.4909
 3535TIP3    H132096   4.357   6.513  12.285 -0.3105  0.0782 -0.4498
 3535TIP3    H232097   4.444   6.605  12.368  0.0957 -0.8925  0.2203
 3536TIP3   OH232098   1.242   2.981   2.097  0.2241 -0.3901 -0.7164
 3536TIP3    H132099   1.151   3.008   2.084  0.3952  1.6846  1.6844
 3536TIP3    H232100   1.236   2.897   2.143 -0.5131  0.2612  0.4040
 3537TIP3   OH232101   6.470   5.117   3.282 -0.0951 -0.5954 -0.4421
 3537TIP3    H132102   6.391   5.160   3.315  0.4081 -0.4073  0.5531
 3537TIP3    H232103   6.453   5.104   3.188 -0.5274  1.2092 -0.6497
 3538TIP3   OH232104   3.099   2.447  13.584  0.1121 -0.6651  0.5210
 3538TIP3    H132105   3.186   2.446  13.624  0.0688 -0.4658  0.6235
 3538TIP3    H232106   3.080   2.356  13.565  1.4220 -0.5111 -1.8888
 3539TIP3   OH232107   2.849   5.007   1.769  0.3395  0.4101 -0.5585
 3539TIP3    H132108   2.934   4.968   1.792 -0.2677 -0.2661  0.6569
 3539TIP3    H232109   2.853   5.095   1.807  0.3511  0.2362 -0.1493
 3540TIP3   OH232110   2.950   2.740   4.543  0.4578  0.5427 -0.1376
 3540TIP3    H132111   3.045   2.744   4.553  0.4139 -0.1427  0.7098
 3540TIP3    H232112   2.935   2.674   4.475  0.5780  0.1051  0.2516
 3541TIP3   OH232113   6.765   4.484   1.753 -0.4616 -0.7011 -0.1360
 3541TIP3    H132114   6.796   4.543   1.822  0.0171 -0.9984 -0.0955
 3541TIP3    H232115   6.670   4.483   1.765 -0.4959  0.1584 -0.2199
 3542TIP3   OH232116   6.653   6.070   3.389 -0.0428  0.0888 -0.1501
 3542TIP3    H132117   6.580   6.087   3.330 -0.7364 -0.8196  0.4217
 3542TIP3    H232118   6.612   6.037   3.468  0.9255  0.6556  0.6051
 3543TIP3   OH232119   4.721   4.292  14.242 -0.3183  0.1695  0.0139
 3543TIP3    H132120   4.710   4.203  14.276  4.2328 -0.7429 -0.2794
 3543TIP3    H232121   4.703   4.285  14.149 -2.8517  0.3311  0.4371
 3544TIP3   OH232122   2.820   6.379   3.222 -0.0848  0.6265  0.1929
 3544TIP3    H132123   2.782   6.335   3.146 -2.0278  0.4479  1.2126
 3544TIP3    H232124   2.832   6.309   3.286  1.6774  0.7500  0.0423
 3545TIP3   OH232125   5.182   2.055  11.761 -0.7821  0.0424  0.3571
 3545TIP3    H132126   5.126   2.000  11.707  0.0089 -0.6521  0.2298
 3545TIP3    H232127   5.229   1.994  11.818 -1.6688  0.7513  1.9437
 3546TIP3   OH232128   0.532   0.117  16.324  0.3376 -0.3450  0.2908
 3546TIP3    H132129   0.610   0.171  16.339 -0.0651  0.2453  0.2594
 3546TIP3    H232130   0.533   0.055  16.397  1.0171 -0.5572  0.1120
 3547TIP3   OH232131   5.388   4.275  15.345 -0.3916 -0.1458 -0.3673
 3547TIP3    H132132   5.365   4.239  15.430  1.4296 -2.1377 -0.6429
 3547TIP3    H232133   5.416   4.364  15.363  0.6672 -0.7688  1.2352
 3548TIP3   OH232134   1.958   4.132   0.466  0.1343  0.8589 -1.1012
 3548TIP3    H132135   1.948   4.038   0.481 -0.5975  1.0618 -0.2256
 3548TIP3    H232136   1.967   4.140   0.371  3.5571 -0.3608 -1.0429
 3549TIP3   OH232137   2.014   2.669  12.817 -0.1368  0.7574  0.1410
 3549TIP3    H132138   2.070   2.746  12.812 -2.1434  2.2662 -0.7694
 3549TIP3    H232139   1.964   2.680  12.898  0.2149 -0.0819  0.4802
 3550TIP3   OH232140   5.600   1.282  14.933 -0.7221 -0.2134 -0.1980
 3550TIP3    H132141   5.669   1.347  14.919 -0.6029 -0.4155 -0.5610
 3550TIP3    H232142   5.557   1.310  15.014 -0.6321  0.2822 -0.3162
 3551TIP3   OH232143   2.276   4.188  16.060 -0.1085 -0.0704 -0.2510
 3551TIP3    H132144   2.335   4.184  15.985 -1.4459 -0.4646 -1.3333
 3551TIP3    H232145   2.215   4.116  16.046 -1.1022  0.5850  0.5899
 3552TIP3   OH232146   4.885   0.361   6.087  0.4357  0.5289 -0.6988
 3552TIP3    H132147   4.831   0.405   6.153  0.3862  0.2543 -0.5561
 3552TIP3    H232148   4.960   0.328   6.136  0.9320  1.2390 -0.9616
 3553TIP3   OH232149   4.987   6.431  15.193  0.4072 -0.0196 -0.0121
 3553TIP3    H132150   4.960   6.463  15.279  1.4220 -1.6312  0.9556
 3553TIP3    H232151   4.906   6.397  15.154  0.0236  0.2712  0.5164
 3554TIP3   OH232152   1.678   2.034   5.309  0.7609  0.2302 -0.2718
 3554TIP3    H132153   1.606   2.005   5.366 -0.9344  2.8553 -0.8888
 3554TIP3    H232154   1.736   2.083   5.367  0.4184  0.7015 -0.3258
 3555TIP3   OH232155   0.209   1.543   1.255 -0.1632 -0.3667 -0.1234
 3555TIP3    H132156   0.224   1.448   1.249 -0.7032 -0.4414 -0.3470
 3555TIP3    H232157   0.259   1.570   1.332  1.9038 -0.4287 -1.3716
 3556TIP3   OH232158   1.445   4.919  16.935  0.0878 -0.4144 -0.2019
 3556TIP3    H132159   1.440   4.856  16.864  3.0474 -1.0021 -0.0221
 3556TIP3    H232160   1.450   5.004  16.891 -1.2012 -0.5042 -0.5454
 3557TIP3   OH232161   4.755   6.288   0.625 -0.3183 -0.3623  0.0528
 3557TIP3    H132162   4.802   6.278   0.708  0.9151 -2.1754 -0.7896
 3557TIP3    H232163   4.725   6.200   0.604 -0.8269  0.1100 -1.3119
 3558TIP3   OH232164   3.056   1.071  11.621  0.3516  0.5304 -0.6322
 3558TIP3    H132165   3.078   0.990  11.575 -0.0592  0.6687 -1.0814
 3558TIP3    H232166   3.119   1.075  11.694  0.8215  0.1590 -1.0062
 3559TIP3   OH232167   4.544   4.236  14.029 -0.2367  0.1404  0.3258
 3559TIP3    H132168   4.600   4.159  14.025  1.4353  1.3507 -1.0299
 3559TIP3    H232169   4.497   4.236  13.945 -0.7163  0.2563  0.5898
 3560TIP3   OH232170   4.764   3.673   6.391  0.7332 -0.6440  0.9030
 3560TIP3    H132171   4.731   3.594   6.435  2.7926 -2.7495 -1.0456
 3560TIP3    H232172   4.797   3.728   6.463 -1.4421 -1.1338  2.3754
 3561TIP3   OH232173   0.712   5.717   5.581  0.3434 -0.4439  0.1880
 3561TIP3    H132174   0.698   5.631   5.542 -0.2382 -0.2689  0.0027
 3561TIP3    H232175   0.722   5.700   5.675  0.5562 -0.7442  0.1094
 3562TIP3   OH232176   4.077   3.407   0.764  0.2195 -0.2281  0.0758
 3562TIP3    H132177   4.029   3.489   0.751 -0.7631 -0.7516  0.2967
 3562TIP3    H232178   4.010   3.339   0.756  0.9438 -0.9860  0.3462
 3563TIP3   OH232179   3.080   3.858  16.657 -0.1934  0.0628 -0.4697
 3563TIP3    H132180   3.053   3.949  16.644 -0.3244  0.2597  1.0632
 3563TIP3    H232181   3.064   3.841  16.750 -0.7125 -1.7079 -0.8482
 3564TIP3   OH232182   0.692   6.816  16.834  0.8038 -0.4793  0.0724
 3564TIP3    H132183   0.598   6.797  16.831  0.6097  0.4785 -3.0205
 3564TIP3    H232184   0.705   6.856  16.920 -2.0957  1.5492 -0.2838
 3565TIP3   OH232185   0.188   3.054   5.051  0.5239 -0.3142 -0.0862
 3565TIP3    H132186   0.228   3.022   4.970  1.1201 -0.6404  0.3312
 3565TIP3    H232187   0.260   3.099   5.096  1.2447 -3.2710  1.9960
 3566TIP3   OH232188   6.219   1.318  14.498 -0.2048  0.2067  0.4417
 3566TIP3    H132189   6.179   1.242  14.456  0.6462 -0.2360  0.4082
 3566TIP3    H232190   6.251   1.284  14.582  1.1162  0.2571 -0.0250
 3567TIP3   OH232191   0.240   0.977   5.301  0.1547 -0.1390  0.1971
 3567TIP3    H132192   0.179   0.922   5.349  1.3969 -3.1150 -1.3238
 3567TIP3    H232193   0.198   0.991   5.216 -0.0434  1.1168  0.4878
 3568TIP3   OH232194   0.292   1.699   5.608  0.2916 -0.3366 -0.8181
 3568TIP3    H132195   0.253   1.782   5.579  1.0982 -0.7930 -3.5516
 3568TIP3    H232196   0.374   1.724   5.650 -0.4850  0.3442  0.3282
 3569TIP3   OH232197   1.843   4.577  15.611  0.1623  0.4534  0.3869
 3569TIP3    H132198   1.821   4.661  15.651 -0.8788  0.3006  0.1789
 3569TIP3    H232199   1.796   4.578  15.527  1.6850  0.4542 -0.4940
 3570TIP3   OH232200   5.238   4.066   5.649 -0.3100  0.8737 -0.5706
 3570TIP3    H132201   5.176   4.106   5.588 -0.0873  0.6118 -0.9717
 3570TIP3    H232202   5.261   3.982   5.609  0.7930  1.2465 -0.7422
 3571TIP3   OH232203   3.437   6.610  10.900  0.3856  0.0397 -0.7182
 3571TIP3    H132204   3.529   6.589  10.917  0.6543 -0.3014 -2.4514
 3571TIP3    H232205   3.417   6.566  10.817 -1.2846  0.2784 -0.4748
 3572TIP3   OH232206   4.225   2.648  12.075 -0.8710  0.3943 -0.2932
 3572TIP3    H132207   4.157   2.587  12.047 -0.3891 -0.0715 -0.4813
 3572TIP3    H232208   4.285   2.652  12.001  0.1077 -0.3986  0.4254
 3573TIP3   OH232209   4.561   0.416  15.032  0.0676 -0.5512  0.4847
 3573TIP3    H132210   4.471   0.422  15.065  0.0781  0.7617  0.3379
 3573TIP3    H232211   4.579   0.503  14.995  1.1100 -1.0559 -0.2498
 3574TIP3   OH232212   2.367   4.315   5.152 -0.0196 -0.3672  0.2340
 3574TIP3    H132213   2.291   4.285   5.103 -0.0737 -1.1200  0.7515
 3574TIP3    H232214   2.419   4.235   5.168  0.4679  0.0075  0.5779
 3575TIP3   OH232215   1.625   6.799  11.177  0.2106  0.3540  0.1633
 3575TIP3    H132216   1.677   6.810  11.256  0.2489 -1.6699  0.4732
 3575TIP3    H232217   1.570   6.877  11.173 -1.4199 -0.4610  3.4365
 3576TIP3   OH232218   1.109   6.325   5.734 -0.2881 -0.0378 -0.0376
 3576TIP3    H132219   1.158   6.383   5.676  2.3759 -1.2196  0.8530
 3576TIP3    H232220   1.098   6.245   5.683 -0.5887 -0.0579  0.0580
 3577TIP3   OH232221   5.009   5.896  15.078 -0.1058  0.2756 -0.5944
 3577TIP3    H132222   5.075   5.948  15.032  2.3429  0.8594  3.1713
 3577TIP3    H232223   5.051   5.811  15.092  0.5405  0.9800  2.7554
 3578TIP3   OH232224   5.774   2.313  10.548 -0.1259  0.2775  0.2681
 3578TIP3    H132225   5.850   2.289  10.601  0.1811  0.1486 -0.2285
 3578TIP3    H232226   5.701   2.267  10.589  0.0274  0.5453  0.8566
 3579TIP3   OH232227   1.181   1.913   4.145 -0.3431 -0.5902  0.5422
 3579TIP3    H132228   1.228   1.834   4.118  0.7219  0.3172 -0.3584
 3579TIP3    H232229   1.178   1.908   4.240  0.7530 -1.1578  0.5624
 3580TIP3   OH232230   0.578   0.724  16.479  0.4587  0.3094  0.1889
 3580TIP3    H132231   0.520   0.798  16.493  0.0973 -0.2341  1.8138
 3580TIP3    H232232   0.539   0.653  16.530  1.7825 -0.4687  0.1717
 3581TIP3   OH232233   0.923   4.531  11.571 -0.4001 -0.2738 -0.0705
 3581TIP3    H132234   0.836   4.533  11.611 -0.3226 -0.6012  0.1205
 3581TIP3    H232235   0.943   4.623  11.553 -0.2660 -0.0679  1.0346
 3582TIP3   OH232236   1.869   1.692  14.266  0.0262 -0.7553 -0.3067
 3582TIP3    H132237   1.901   1.772  14.224  1.4861 -2.3727 -2.4951
 3582TIP3    H232238   1.939   1.628  14.252 -1.1327 -2.4888  1.2770
 3583TIP3   OH232239   0.411   3.231   2.358 -0.8726  0.1628  0.6218
 3583TIP3    H132240   0.483   3.293   2.363 -0.4219 -0.4492  2.5698
 3583TIP3    H232241   0.408   3.204   2.266  1.1283  0.4900  0.4289
 3584TIP3   OH232242   6.810   3.872  13.770  0.3576 -0.9684  0.3353
 3584TIP3    H132243   6.759   3.850  13.693  1.7086  0.8668 -1.1782
 3584TIP3    H232244   6.886   3.814  13.766 -0.6434 -2.4614  1.6160
 3585TIP3   OH232245   2.668   4.812  16.734  0.1750 -0.2258  0.3483
 3585TIP3    H132246   2.700   4.900  16.713  0.0395 -0.4625 -0.9723
 3585TIP3    H232247   2.656   4.813  16.829  1.2054  0.8290  0.4976
 3586TIP3   OH232248   4.045   6.603   5.719  0.6627  0.4318 -0.5345
 3586TIP3    H132249   4.017   6.538   5.783 -0.1462 -1.8850 -3.0591
 3586TIP3    H232250   4.137   6.582   5.702  0.6837  0.5995 -0.6322
 3587TIP3   OH232251   1.910   4.673   3.664  0.0545  0.0136 -0.0572
 3587TIP3    H132252   1.973   4.719   3.609  0.3463  1.4875  1.4229
 3587TIP3    H232253   1.903   4.727   3.742 -2.8895 -0.2098 -0.0520
 3588TIP3   OH232254   2.248   2.455   4.319  0.3615  0.2630 -0.4880
 3588TIP3    H132255   2.328   2.415   4.286  0.3225 -0.4336  0.2152
 3588TIP3    H232256   2.264   2.467   4.413 -0.3113  0.2121 -0.3579
 3589TIP3   OH232257   0.612   2.943   4.997 -0.2652  0.1849 -0.9847
 3589TIP3    H132258   0.554   2.995   5.053 -0.2390 -0.7272 -0.0706
 3589TIP3    H232259   0.603   2.981   4.910 -1.6876  0.5085 -0.7112
 3590TIP3   OH232260   2.845   0.577  15.125 -0.3447  0.5138 -0.3751
 3590TIP3    H132261   2.825   0.587  15.218 -0.2638 -0.3437 -0.2612
 3590TIP3    H232262   2.778   0.630  15.080 -2.1571 -1.2825  0.0576
 3591TIP3   OH232263   5.859   1.616   2.664  0.0049  0.0523 -0.2413
 3591TIP3    H132264   5.892   1.697   2.702  0.4678 -0.2777  0.0776
 3591TIP3    H232265   5.768   1.635   2.641  0.1106  0.6578 -0.1677
 3592TIP3   OH232266   3.555   3.185   1.400  0.2801 -0.2739 -0.1806
 3592TIP3    H132267   3.591   3.274   1.405 -0.6554  0.1409 -0.6983
 3592TIP3    H232268   3.462   3.197   1.385  0.1710 -1.3507 -0.4589
 3593TIP3   OH232269   0.710   4.136  12.548  0.3245 -0.5429 -0.0019
 3593TIP3    H132270   0.629   4.105  12.507  0.8673 -2.1087  0.0118
 3593TIP3    H232271   0.696   4.229  12.563 -1.8435 -0.9438  0.8610
 3594TIP3   OH232272   3.542   2.067   3.956  0.0160  0.2251  0.5092
 3594TIP3    H132273   3.636   2.052   3.964  0.1962  0.6844 -0.5676
 3594TIP3    H232274   3.529   2.156   3.987  0.1229  0.5697 -0.3913
 3595TIP3   OH232275   3.410   1.705  17.008  0.8935  0.2266  0.1915
 3595TIP3    H132276   3.425   1.633  16.947 -0.2994  0.5981 -0.5833
 3595TIP3    H232277   3.316   1.703  17.025  1.0686  0.7213  1.2883
 3596TIP3   OH232278   4.888   0.005   5.744  0.1711 -0.2798 -0.0321
 3596TIP3    H132279   4.903  -0.017   5.652  1.6812  0.1052  0.0935
 3596TIP3    H232280   4.928  -0.068   5.792 -0.3320 -0.3224  0.3210
 3597TIP3   OH232281   2.791   1.275  12.144  0.0472  0.0001  0.1840
 3597TIP3    H132282   2.798   1.216  12.220  0.4464 -0.0048  0.1467
 3597TIP3    H232283   2.761   1.358  12.181  1.2392  0.3100  0.5143
 3598TIP3   OH232284   0.700   1.389   3.483 -0.2881  0.0703 -0.6928
 3598TIP3    H132285   0.621   1.418   3.527  0.3534 -0.3526  0.8166
 3598TIP3    H232286   0.713   1.452   3.412 -1.6910  0.4267 -0.6566
 3599TIP3   OH232287   4.246   2.474  12.375 -0.2815  0.3942  0.0710
 3599TIP3    H132288   4.194   2.545  12.338  0.2054  0.8177  0.1777
 3599TIP3    H232289   4.313   2.519  12.427 -1.2400 -0.1849  1.8935
 3600TIP3   OH232290   3.288   0.604   2.486 -0.4181  0.3921 -0.3337
 3600TIP3    H132291   3.383   0.597   2.499 -0.4700 -1.2962 -0.6392
 3600TIP3    H232292   3.255   0.516   2.505 -1.7043  0.4923 -1.9522
 3601TIP3   OH232293   1.566   4.031   3.539 -0.1239 -0.5625 -0.1760
 3601TIP3    H132294   1.628   4.078   3.595 -0.0708 -1.9663  1.0312
 3601TIP3    H232295   1.482   4.074   3.555  0.2659  0.4025 -0.6663
 3602TIP3   OH232296   3.436   2.372   2.017  0.4561 -0.5167 -0.1249
 3602TIP3    H132297   3.452   2.400   2.107 -0.2699 -0.2076 -0.0843
 3602TIP3    H232298   3.493   2.296   2.005  1.3397  0.0565  0.2535
 3603TIP3   OH232299   3.691   1.199   0.989  0.3342  0.0807 -0.5210
 3603TIP3    H132300   3.597   1.220   0.988 -0.2860 -2.3934 -0.5807
 3603TIP3    H232301   3.700   1.135   1.059  2.4565  1.9138  1.0277
 3604TIP3   OH232302   2.172   5.972  12.013  0.8083 -0.1043 -0.2309
 3604TIP3    H132303   2.241   5.931  12.064  1.0082  2.3297  1.6529
 3604TIP3    H232304   2.217   6.009  11.936  1.2138 -0.4193 -0.1453
 3605TIP3   OH232305   0.982   5.525  16.451 -0.0600 -0.1483  0.3261
 3605TIP3    H132306   1.034   5.466  16.505  0.5920 -0.5137 -0.6662
 3605TIP3    H232307   0.922   5.567  16.512 -0.7356 -2.0263  1.0143
 3606TIP3   OH232308   5.222   4.261   0.791 -0.1522 -0.1374  0.3388
 3606TIP3    H132309   5.206   4.354   0.775 -1.1261 -0.2666  0.4910
 3606TIP3    H232310   5.312   4.257   0.823 -0.3107  0.8284  0.9410
 3607TIP3   OH232311   0.829   5.543  13.234  0.3428 -0.0829  0.1060
 3607TIP3    H132312   0.858   5.587  13.155 -0.2063 -1.9387 -1.1893
 3607TIP3    H232313   0.744   5.505  13.211 -0.2911  0.1161  1.9007
 3608TIP3   OH232314   0.306   6.746   0.837 -0.6222  0.1892  0.0704
 3608TIP3    H132315   0.253   6.670   0.812  0.2042 -0.4520  0.2040
 3608TIP3    H232316   0.378   6.746   0.774  0.8808 -0.7817  1.6762
 3609TIP3   OH232317   0.043   2.340   0.769  0.3243  0.4577 -0.9660
 3609TIP3    H132318   0.028   2.249   0.747  0.9001  0.6355 -2.1602
 3609TIP3    H232319  -0.039   2.369   0.809  0.5703 -0.9099  0.6817
 3610TIP3   OH232320   1.685   0.324   0.736  0.4901 -0.4403 -0.5756
 3610TIP3    H132321   1.651   0.379   0.666  0.4464 -0.4102 -0.5307
 3610TIP3    H232322   1.639   0.241   0.725 -0.2340 -0.1193  0.0135
 3611TIP3   OH232323   1.585   2.409  14.626 -0.4697 -0.2216 -0.1550
 3611TIP3    H132324   1.626   2.390  14.542 -0.5459  1.1730 -0.5343
 3611TIP3    H232325   1.638   2.480  14.663  0.5640 -1.8868  1.7522
 3612TIP3   OH232326   1.186   4.606  11.424  0.1374 -0.3984 -0.4290
 3612TIP3    H132327   1.122   4.551  11.379 -1.2158 -0.8102  1.8058
 3612TIP3    H232328   1.227   4.547  11.487  0.5150  0.5603  0.2397
 3613TIP3   OH232329   1.770   3.320  12.945  1.3710 -0.6381 -0.0550
 3613TIP3    H132330   1.731   3.234  12.960  0.7486 -0.4189 -0.3519
 3613TIP3    H232331   1.846   3.323  13.003  0.3489 -0.6870  1.3537
 3614TIP3   OH232332   0.143   0.444  16.096  0.0406  0.1396  0.5781
 3614TIP3    H132333   0.223   0.394  16.115 -1.4479 -2.9742 -0.6748
 3614TIP3    H232334   0.088   0.430  16.173  0.7091  2.5908  1.6075
 3615TIP3   OH232335   3.213   5.097  11.212  0.5530  0.4576 -0.8821
 3615TIP3    H132336   3.238   5.009  11.241  0.4614  1.0157  1.0969
 3615TIP3    H232337   3.120   5.089  11.189  1.2595 -0.6024 -3.8250
 3616TIP3   OH232338   0.924   4.542  11.974  0.2602  0.4340  0.0639
 3616TIP3    H132339   0.905   4.635  11.961 -1.8935  0.1045  0.5313
 3616TIP3    H232340   0.909   4.528  12.068 -1.1663 -0.7205 -0.3086
 3617TIP3   OH232341   3.695   1.564  14.493  0.1153  0.0672 -0.2227
 3617TIP3    H132342   3.634   1.628  14.531 -0.8293 -0.7340 -0.3412
 3617TIP3    H232343   3.714   1.598  14.405 -0.7644 -0.0431 -0.4670
 3618TIP3   OH232344   3.818   0.580   3.754  0.7532 -0.0538 -0.0276
 3618TIP3    H132345   3.788   0.551   3.668 -0.7009 -0.4758  0.6040
 3618TIP3    H232346   3.907   0.614   3.738  2.0944 -3.6178 -1.0631
 3619TIP3   OH232347   2.499   2.042  12.772  0.0822 -0.3069  0.0872
 3619TIP3    H132348   2.445   2.024  12.696  0.4569 -0.3865 -0.1626
 3619TIP3    H232349   2.444   2.097  12.828  0.0529  0.3393 -0.5589
 3620TIP3   OH232350   6.764   3.457   4.548  0.1551 -0.1259  0.0040
 3620TIP3    H132351   6.783   3.492   4.635  0.3813 -0.3168  0.0325
 3620TIP3    H232352   6.782   3.363   4.556  1.4885  0.0481 -0.6019
 3621TIP3   OH232353   4.128   1.954   1.797  0.0967  0.1939 -0.2173
 3621TIP3    H132354   4.060   1.893   1.768 -0.6795  0.5889  0.7409
 3621TIP3    H232355   4.207   1.900   1.803 -0.3688 -0.5115 -0.2917
 3622TIP3   OH232356   0.410   0.718   2.619  0.1668  0.8947  0.0095
 3622TIP3    H132357   0.458   0.752   2.544 -1.8480  0.0165 -1.8006
 3622TIP3    H232358   0.423   0.623   2.615  1.4380  0.9481  1.8473
 3623TIP3   OH232359   4.178   4.185   3.068 -0.0145 -0.4729  0.0414
 3623TIP3    H132360   4.135   4.101   3.087 -0.9198  0.0557  0.3855
 3623TIP3    H232361   4.175   4.191   2.972 -0.5361 -0.5342  0.0511
 3624TIP3   OH232362   6.161   5.341   3.068  0.0775  0.5706  0.5260
 3624TIP3    H132363   6.102   5.413   3.090 -2.0684 -0.7624 -0.4868
 3624TIP3    H232364   6.128   5.267   3.119 -0.1218 -0.5929 -1.1950
 3625TIP3   OH232365   1.602   4.327  16.567  0.1004 -0.0292  0.7439
 3625TIP3    H132366   1.525   4.385  16.570  1.3164  1.6375  0.8218
 3625TIP3    H232367   1.643   4.337  16.653  1.2445  0.2945  0.1701
 3626TIP3   OH232368   4.080   0.795  12.118  0.1045 -0.0077 -0.5693
 3626TIP3    H132369   3.993   0.786  12.156  0.2775 -0.5327 -0.2910
 3626TIP3    H232370   4.068   0.778  12.024 -0.1488  0.2750 -0.5892
 3627TIP3   OH232371   0.881   1.993   5.894 -0.5783 -0.0211  0.5861
 3627TIP3    H132372   0.844   2.000   5.806 -2.1001 -2.5310  0.9626
 3627TIP3    H232373   0.811   1.957   5.947  0.7151  0.2694  2.5799
 3628TIP3   OH232374   5.831   3.287  15.618  0.6865 -0.0615  0.4178
 3628TIP3    H132375   5.903   3.351  15.614  0.5620  0.0617  0.0993
 3628TIP3    H232376   5.857   3.219  15.556  1.6710 -1.2210  2.0375
 3629TIP3   OH232377   1.669   5.430  10.862 -0.3623  0.4928 -0.3363
 3629TIP3    H132378   1.710   5.481  10.792 -0.3903  1.4709  0.3372
 3629TIP3    H232379   1.742   5.387  10.906 -0.3132  0.1591 -0.7328
 3630TIP3   OH232380   1.220   2.566  12.925 -0.2888  0.1224 -0.4948
 3630TIP3    H132381   1.289   2.501  12.943 -0.2097  0.0152 -1.1570
 3630TIP3    H232382   1.251   2.613  12.848 -1.7652 -1.1053 -1.8992
 3631TIP3   OH232383   4.282   0.175   6.623 -0.0139 -0.0484  0.0147
 3631TIP3    H132384   4.280   0.234   6.698 -1.6085  0.1304 -0.1326
 3631TIP3    H232385   4.273   0.234   6.547  1.4949 -0.2310 -0.3337
 3632TIP3   OH232386   3.724   3.014  14.554 -0.1161 -0.2631 -0.6454
 3632TIP3    H132387   3.769   3.093  14.523  2.5295 -1.5772 -0.4215
 3632TIP3    H232388   3.646   3.008  14.499 -0.4925  2.5160 -0.6029
 3633TIP3   OH232389   6.741   5.122   1.510 -0.2180 -0.5125 -0.7083
 3633TIP3    H132390   6.674   5.060   1.483 -1.2907 -0.0014  0.6523
 3633TIP3    H232391   6.733   5.127   1.606  1.4174 -0.0437 -0.5613
 3634TIP3   OH232392   4.731   4.259  11.078 -0.4259  0.6512 -0.1430
 3634TIP3    H132393   4.659   4.247  11.016 -0.9090 -3.7228  0.9319
 3634TIP3    H232394   4.801   4.205  11.044 -1.2631 -3.3353  3.5806
 3635TIP3   OH232395   0.303   3.707   1.464 -0.8585 -0.2062 -0.1513
 3635TIP3    H132396   0.367   3.719   1.534 -0.3748 -0.2268 -0.5794
 3635TIP3    H232397   0.341   3.639   1.408 -1.2380 -0.1976 -0.4213
 3636TIP3   OH232398   1.979   4.374   1.255 -0.1584  0.2576 -1.1925
 3636TIP3    H132399   1.977   4.297   1.198  0.0593  0.7466 -1.8788
 3636TIP3    H232400   2.072   4.394   1.264 -0.1618 -0.1667 -0.1724
 3637TIP3   OH232401   3.075   4.227   4.584  0.1187  0.3860 -0.2757
 3637TIP3    H132402   3.169   4.240   4.581 -0.0585  1.6508 -2.1715
 3637TIP3    H232403   3.053   4.187   4.500 -0.8694 -1.3527  0.7620
 3638TIP3   OH232404   2.151   1.774   0.825 -0.7425  0.2183  0.6972
 3638TIP3    H132405   2.062   1.743   0.841 -1.3024  1.1835 -0.3790
 3638TIP3    H232406   2.171   1.829   0.901 -0.9121 -0.2930  1.1189
 3639TIP3   OH232407   5.902   4.770  15.954 -0.7350 -0.2010  0.6711
 3639TIP3    H132408   5.963   4.700  15.929 -0.4941  0.4099 -0.5370
 3639TIP3    H232409   5.816   4.730  15.944 -0.6644  0.0778 -1.5189
 3640TIP3   OH232410   5.845   6.606   3.530  0.0910 -0.4588  0.4146
 3640TIP3    H132411   5.780   6.670   3.499  0.5312  0.2717  0.9844
 3640TIP3    H232412   5.796   6.549   3.590 -0.7112 -1.7272 -1.3414
 3641TIP3   OH232413   0.691   5.794  11.124 -0.2864  0.1694  0.1512
 3641TIP3    H132414   0.662   5.829  11.040 -0.0662  0.1407  0.0648
 3641TIP3    H232415   0.631   5.721  11.141 -1.0775  0.8975  0.5794
 3642TIP3   OH232416   5.289   6.554   3.853 -0.4633  0.7705 -0.6073
 3642TIP3    H132417   5.280   6.605   3.933  1.4360 -1.7049  1.3565
 3642TIP3    H232418   5.377   6.575   3.821 -1.0558  1.4336 -1.8705
 3643TIP3   OH232419   5.866   0.075  16.102 -0.1692 -0.2308 -0.0650
 3643TIP3    H132420   5.795   0.014  16.081 -0.7944 -0.3271  2.0577
 3643TIP3    H232421   5.873   0.071  16.197  1.2330  1.4242 -0.0525
 3644TIP3   OH232422   6.123   4.001  15.940 -0.3476  1.1524  0.1703
 3644TIP3    H132423   6.059   3.934  15.915 -0.1952  1.5854 -1.5231
 3644TIP3    H232424   6.207   3.955  15.939 -0.4382  0.9578  0.8293
 3645TIP3   OH232425   4.614   4.845   4.296 -0.4276  0.4714 -0.8079
 3645TIP3    H132426   4.619   4.770   4.355 -1.8072 -0.0135 -1.2518
 3645TIP3    H232427   4.522   4.848   4.269  0.0439  1.0014 -2.5015
 3646TIP3   OH232428   4.288   5.441  12.394 -0.1383  0.4060 -0.1166
 3646TIP3    H132429   4.347   5.507  12.358  0.0898  0.5453  0.5037
 3646TIP3    H232430   4.340   5.396  12.461 -0.3487 -0.2784 -0.3983
 3647TIP3   OH232431   0.517   5.080  12.402 -0.4335 -0.0217 -0.1686
 3647TIP3    H132432   0.585   5.123  12.455 -0.7228 -1.5715  1.5960
 3647TIP3    H232433   0.557   5.071  12.316  0.4130  1.8295 -0.0174
 3648TIP3   OH232434   6.462   3.401   3.656  0.4688  0.4616 -0.2551
 3648TIP3    H132435   6.382   3.433   3.614  0.3792  1.7912  0.8323
 3648TIP3    H232436   6.434   3.326   3.707  0.0584  0.4672 -0.4661
 3649TIP3   OH232437   2.093   4.324  17.004 -0.0032  0.0076  0.2999
 3649TIP3    H132438   2.170   4.355  16.958 -0.5224  0.1374 -0.5051
 3649TIP3    H232439   2.019   4.363  16.957 -0.5634 -0.1866  0.9927
 3650TIP3   OH232440   0.945   2.173  11.638 -0.0357 -0.7535  0.0056
 3650TIP3    H132441   1.019   2.176  11.577 -1.4775 -2.2380 -1.9457
 3650TIP3    H232442   0.950   2.086  11.678 -0.6033 -0.7883  0.0169
 3651TIP3   OH232443   4.407   3.208   2.705  0.3928 -0.5387 -0.1978
 3651TIP3    H132444   4.325   3.257   2.699  1.7807  1.7934 -1.9157
 3651TIP3    H232445   4.444   3.233   2.789  1.2763  1.9121 -1.2115
 3652TIP3   OH232446   1.745   3.082  11.869 -0.3406 -0.1290  0.1053
 3652TIP3    H132447   1.663   3.066  11.822 -1.1055 -1.4363  1.7483
 3652TIP3    H232448   1.731   3.165  11.914 -1.1389 -0.7388  1.0343
 3653TIP3   OH232449   1.120   5.183  16.967  0.0916  0.2984 -0.5748
 3653TIP3    H132450   1.137   5.273  16.995 -1.2933  0.1227  1.0502
 3653TIP3    H232451   1.139   5.183  16.873 -1.9904  2.8970 -1.1450
 3654TIP3   OH232452   2.125   0.125   0.112  0.2209  0.1015  0.1880
 3654TIP3    H132453   2.134   0.061   0.183 -0.6843  0.1537  0.3686
 3654TIP3    H232454   2.036   0.158   0.121  0.1600  0.2654 -0.8497
 3655TIP3   OH232455   2.063   4.977   2.589 -0.2894 -0.0953 -0.0262
 3655TIP3    H132456   1.977   4.954   2.552 -0.3925 -0.0018  0.1546
 3655TIP3    H232457   2.123   4.912   2.552 -0.2105  0.5862 -1.1562
 3656TIP3   OH232458   6.361   1.930   1.306 -0.1140  0.1346 -0.6939
 3656TIP3    H132459   6.432   1.866   1.307  0.2009  0.4842 -0.1810
 3656TIP3    H232460   6.285   1.881   1.339  0.0294 -0.0833 -0.6808
 3657TIP3   OH232461   6.276   0.469   4.010 -0.2530  0.4477 -0.5147
 3657TIP3    H132462   6.213   0.471   4.082  0.2978 -1.1729  0.0545
 3657TIP3    H232463   6.341   0.535   4.033 -0.2551  0.1725  0.3075
 3658TIP3   OH232464   3.418   2.664  16.854  0.3320  0.7574 -0.1953
 3658TIP3    H132465   3.415   2.600  16.925 -1.5922  0.0013 -0.9140
 3658TIP3    H232466   3.401   2.748  16.897 -1.1806  0.2651  0.2271
 3659TIP3   OH232467   0.897   2.078   5.606  0.0316  0.2382  0.1406
 3659TIP3    H132468   0.920   1.999   5.558  1.2178  1.1007 -0.7436
 3659TIP3    H232469   0.819   2.111   5.562  0.3587  0.3272 -0.3676
 3660TIP3   OH232470   2.306   5.209   3.097  0.0404 -0.4305 -0.4498
 3660TIP3    H132471   2.299   5.229   3.190  0.7043 -3.6791  0.4194
 3660TIP3    H232472   2.217   5.221   3.063 -0.0961  1.3380  0.4076
 3661TIP3   OH232473   6.735   3.885   0.384 -0.4199  0.0327 -0.5533
 3661TIP3    H132474   6.673   3.822   0.348  1.4270 -2.2272 -0.0353
 3661TIP3    H232475   6.811   3.879   0.327  0.4018  0.6249  0.4490
 3662TIP3   OH232476   1.457   3.957  14.894  0.0690 -0.2089 -0.3364
 3662TIP3    H132477   1.542   3.936  14.855 -0.0604 -1.8395  0.2193
 3662TIP3    H232478   1.394   3.905  14.844 -0.5568  0.5842 -0.3950
 3663TIP3   OH232479   3.329   0.916  15.724  0.2108 -0.2985  0.1947
 3663TIP3    H132480   3.406   0.933  15.670 -0.2850  1.1118 -0.1137
 3663TIP3    H232481   3.361   0.926  15.814  0.0820  1.9725  0.0462
 3664TIP3   OH232482   4.949   5.336   4.173 -0.1343 -0.2738  0.3030
 3664TIP3    H132483   5.011   5.312   4.104  1.9789 -0.3247  2.1104
 3664TIP3    H232484   4.902   5.255   4.193  0.0449 -0.5261 -0.2858
 3665TIP3   OH232485   1.071   4.494  12.226  0.5257  0.0542 -0.1242
 3665TIP3    H132486   1.101   4.417  12.177 -0.8823 -1.2041  0.8807
 3665TIP3    H232487   1.094   4.475  12.317 -0.9210  0.2227  0.3067
 3666TIP3   OH232488   1.988   2.718  12.475  0.4427  0.1449  0.0040
 3666TIP3    H132489   1.966   2.637  12.520  0.8086 -0.6004 -1.1138
 3666TIP3    H232490   1.933   2.785  12.516 -1.0985 -0.9678 -0.1809
 3667TIP3   OH232491   6.533   1.727  12.383 -0.0540  0.0795  0.2636
 3667TIP3    H132492   6.602   1.668  12.353 -1.0538 -1.1276  0.2875
 3667TIP3    H232493   6.483   1.676  12.447 -0.9691  0.9285  0.2534
 3668TIP3   OH232494   2.805   4.358   0.494 -0.1103  0.3562 -0.7869
 3668TIP3    H132495   2.751   4.296   0.446  0.3070 -0.8597  0.2348
 3668TIP3    H232496   2.743   4.419   0.534 -0.5559  0.3595 -1.4732
 3669TIP3   OH232497   5.886   0.225   4.403 -0.5942  0.2647  0.2916
 3669TIP3    H132498   5.969   0.194   4.437 -0.0634 -0.8113 -1.8138
 3669TIP3    H232499   5.909   0.281   4.329 -1.7162  0.8065  0.3200
 3670TIP3   OH232500   2.602   3.423   4.737  0.1360  0.2187 -0.7154
 3670TIP3    H132501   2.569   3.370   4.810  0.6830 -0.2169 -0.7803
 3670TIP3    H232502   2.536   3.413   4.669  0.6999 -1.1951 -1.0948
 3671TIP3   OH232503   6.081   3.802  16.222  0.4120 -0.0475 -0.3683
 3671TIP3    H132504   6.000   3.829  16.180  1.0595  0.9771 -1.0227
 3671TIP3    H232505   6.122   3.742  16.161  0.5286  0.0814 -0.4193
 3672TIP3   OH232506   4.115   1.972   1.133  0.3592  0.1895  0.0506
 3672TIP3    H132507   4.058   2.047   1.113 -0.3012  0.1251  1.5235
 3672TIP3    H232508   4.074   1.898   1.089 -0.4980  0.2220  0.7566
 3673TIP3   OH232509   5.721   2.639  16.834  0.8258 -0.5532  0.2958
 3673TIP3    H132510   5.699   2.682  16.917 -0.0053 -0.8905  0.2612
 3673TIP3    H232511   5.759   2.709  16.780 -1.8690  0.5774 -0.3211
 3674TIP3   OH232512   2.955   2.391  12.012 -0.3138 -0.4015  0.5967
 3674TIP3    H132513   3.036   2.440  12.022  0.4927 -1.9745  2.2991
 3674TIP3    H232514   2.983   2.300  12.001 -1.8317 -1.0759  1.9095
 3675TIP3   OH232515   0.009   3.769  11.840 -0.3669  0.6519  0.1150
 3675TIP3    H132516  -0.015   3.771  11.933  1.1570  0.7871  0.5314
 3675TIP3    H232517   0.023   3.677  11.821 -0.2607  0.6630  0.1387
 3676TIP3   OH232518   0.221   5.699   3.848  0.1795  0.2951  0.1853
 3676TIP3    H132519   0.285   5.629   3.859  0.1759  0.4435  1.2590
 3676TIP3    H232520   0.144   5.669   3.896 -0.9888 -0.3718 -1.9837
 3677TIP3   OH232521   0.471   3.730  12.254 -0.4521 -0.1266  0.1885
 3677TIP3    H132522   0.461   3.824  12.268  2.3277  0.3869 -0.6623
 3677TIP3    H232523   0.382   3.698  12.239 -1.3463  2.5970 -0.8966
 3678TIP3   OH232524   3.955   6.640  12.772 -0.3296  0.4099  0.2502
 3678TIP3    H132525   3.901   6.617  12.697 -0.7851  2.1279  0.0129
 3678TIP3    H232526   3.900   6.700  12.823 -0.0595 -0.7655  2.0073
 3679TIP3   OH232527   3.235   1.148  11.822 -0.2027  0.4158 -0.2282
 3679TIP3    H132528   3.242   1.073  11.881  0.0300  0.6362  0.0262
 3679TIP3    H232529   3.189   1.214  11.874  0.6099  0.8494 -0.0609
 3680TIP3   OH232530   5.040   3.418  12.796  0.7696 -0.5547  0.0728
 3680TIP3    H132531   4.970   3.459  12.746  1.0372  0.9647  0.8844
 3680TIP3    H232532   5.120   3.457  12.761  0.9878  0.1739  1.3157
 3681TIP3   OH232533   2.274   4.765  12.192  0.0567 -0.3471  0.0024
 3681TIP3    H132534   2.362   4.793  12.215 -0.8712  0.7990  2.5553
 3681TIP3    H232535   2.272   4.672  12.213  0.7108 -0.4254 -0.2635
 3682TIP3   OH232536   3.494   2.735   1.096 -0.2564 -0.0896  0.1211
 3682TIP3    H132537   3.547   2.656   1.086  1.4104  0.8682  0.9037
 3682TIP3    H232538   3.488   2.771   1.008  2.6076  1.0893  0.3132
 3683TIP3   OH232539   3.611   1.052  16.520 -0.3013 -0.1759  0.2026
 3683TIP3    H132540   3.642   0.970  16.480  1.4866 -0.3033  1.7272
 3683TIP3    H232541   3.517   1.038  16.534 -0.4078 -1.1989 -1.2986
 3684TIP3   OH232542   5.639   2.653  12.699 -0.2850 -0.1268  0.2261
 3684TIP3    H132543   5.561   2.623  12.653  0.2848  0.2942 -1.0448
 3684TIP3    H232544   5.668   2.576  12.748 -0.7775 -0.6618 -0.3002
 3685TIP3   OH232545   0.282   6.049  14.125  0.1099  0.2465  0.1438
 3685TIP3    H132546   0.227   6.119  14.090 -0.1303  0.3443  0.7112
 3685TIP3    H232547   0.289   6.068  14.218  0.9129  0.0983  0.1215
 3686TIP3   OH232548   5.463   3.025   3.075  0.0825 -0.4321 -0.0525
 3686TIP3    H132549   5.491   3.108   3.113 -1.4236 -0.9073  2.2599
 3686TIP3    H232550   5.519   2.960   3.115  0.1150 -0.7139 -0.5471
 3687TIP3   OH232551   4.316   2.529  14.453 -0.0541  0.1113  0.2759
 3687TIP3    H132552   4.247   2.591  14.427  0.7046 -0.5976 -4.2475
 3687TIP3    H232553   4.395   2.583  14.459  0.0523  0.0922 -0.7047
 3688TIP3   OH232554   6.381   5.145   5.526 -0.6554  0.0045  0.1776
 3688TIP3    H132555   6.291   5.177   5.538 -0.6944 -0.2249  0.4907
 3688TIP3    H232556   6.376   5.091   5.447 -0.3951  1.4976 -0.9066
 3689TIP3   OH232557   3.792   3.121   6.087 -0.3639  0.3616  0.0188
 3689TIP3    H132558   3.781   3.214   6.106 -1.6967 -0.1973  2.4730
 3689TIP3    H232559   3.824   3.084   6.170  1.2208 -1.2334 -1.2226
 3690TIP3   OH232560   0.902   4.485  14.406  0.9732  0.0542  0.9473
 3690TIP3    H132561   0.976   4.544  14.392  0.8452  0.4606  1.8731
 3690TIP3    H232562   0.943   4.402  14.432  1.1313 -0.0670  0.3328
 3691TIP3   OH232563   1.180   0.776  13.854 -0.3666 -0.7898 -0.3897
 3691TIP3    H132564   1.211   0.725  13.929 -0.2026 -0.6360 -0.3521
 3691TIP3    H232565   1.260   0.809  13.813 -0.4764  2.0876  1.4168
 3692TIP3   OH232566   6.026   5.687  11.701 -0.9420  0.2213 -0.0991
 3692TIP3    H132567   6.032   5.686  11.606 -1.3086  1.2310 -0.1543
 3692TIP3    H232568   6.071   5.768  11.727 -0.3092 -0.3548  0.6310
 3693TIP3   OH232569   5.349   2.867   5.592 -0.4056  0.1193 -0.5687
 3693TIP3    H132570   5.275   2.807   5.591 -0.8861  0.4965  2.3681
 3693TIP3    H232571   5.388   2.859   5.505 -2.0154 -2.4165 -1.1601
 3694TIP3   OH232572   2.643   3.765  15.616  0.1804 -0.1001  0.4614
 3694TIP3    H132573   2.665   3.756  15.708 -1.8849  1.0456  1.1362
 3694TIP3    H232574   2.548   3.781  15.615 -0.4700 -3.0017 -2.0267
 3695TIP3   OH232575   0.639   1.372   2.072 -0.3782 -0.1876  0.3752
 3695TIP3    H132576   0.710   1.423   2.033 -1.1328  0.6304  0.0255
 3695TIP3    H232577   0.563   1.391   2.017 -0.7352 -1.5525  0.3563
 3696TIP3   OH232578   6.046   4.813   1.077 -0.4358 -0.3822  0.1630
 3696TIP3    H132579   6.123   4.786   1.126  0.3229  1.2389 -0.0978
 3696TIP3    H232580   5.985   4.740   1.087 -0.1151 -0.3537  3.0371
 3697TIP3   OH232581   2.908   3.824  12.051 -0.2214 -0.3882 -0.4248
 3697TIP3    H132582   2.819   3.803  12.077  0.1481 -1.2098  0.2477
 3697TIP3    H232583   2.918   3.917  12.072 -0.3747 -0.7048  1.1731
 3698TIP3   OH232584   0.717   3.672   0.071  0.2840 -0.6311  0.6475
 3698TIP3    H132585   0.625   3.652   0.092  0.4900 -2.1720  0.2541
 3698TIP3    H232586   0.750   3.718   0.147 -1.5162  2.4519 -0.2512
 3699TIP3   OH232587   6.668   5.134   5.698 -0.0365 -0.6854 -0.2663
 3699TIP3    H132588   6.720   5.147   5.777 -0.9326 -1.8360  0.5350
 3699TIP3    H232589   6.613   5.058   5.716 -0.0149 -1.2039 -2.1323
 3700TIP3   OH232590   0.813   3.484  13.532 -0.5146  0.5378 -0.2717
 3700TIP3    H132591   0.897   3.441  13.544  0.6129  2.7349  0.1182
 3700TIP3    H232592   0.798   3.482  13.437 -1.0018 -1.4813 -0.2186
 3701TIP3   OH232593   1.380   5.408  15.460 -0.7652 -0.2788 -1.2684
 3701TIP3    H132594   1.360   5.486  15.409  0.5807  1.4303  0.6628
 3701TIP3    H232595   1.357   5.432  15.550  1.3329 -1.4470 -0.3595
 3702TIP3   OH232596   6.729   6.267   2.717  0.0823 -0.2282  0.3336
 3702TIP3    H132597   6.664   6.241   2.783 -0.4820  0.2526 -0.0183
 3702TIP3    H232598   6.719   6.362   2.712  0.6971 -0.1734  0.1425
 3703TIP3   OH232599   5.054   2.483  10.542  0.2664  0.4085 -0.3378
 3703TIP3    H132600   5.014   2.405  10.580  0.2333  1.0676  1.0268
 3703TIP3    H232601   5.121   2.510  10.606  2.1551 -0.0090 -2.0216
 3704TIP3   OH232602   2.232   0.988   3.200 -0.4799 -0.8230  0.4355
 3704TIP3    H132603   2.168   1.051   3.168 -1.4331 -1.3831  1.1518
 3704TIP3    H232604   2.261   0.941   3.122 -1.0494 -0.6467  0.1081
 3705TIP3   OH232605   3.515   5.951  16.741 -0.2641 -0.0340 -0.1034
 3705TIP3    H132606   3.423   5.970  16.726 -0.7319 -1.6877  0.5349
 3705TIP3    H232607   3.535   5.992  16.825 -0.8968 -1.1000  0.5928
 3706TIP3   OH232608   5.430   0.976   4.131 -0.4490  0.0603 -0.2955
 3706TIP3    H132609   5.490   0.984   4.056  0.2860  0.7533  0.3448
 3706TIP3    H232610   5.407   0.883   4.133  2.6186 -0.8150  0.9003
 3707TIP3   OH232611   5.200   4.996  13.983 -0.0555 -0.0489 -0.4008
 3707TIP3    H132612   5.211   5.079  13.937 -0.1023  1.1271  1.5880
 3707TIP3    H232613   5.289   4.966  14.001 -0.0309 -0.7245 -1.5700
 3708TIP3   OH232614   2.245   6.278  14.983  0.5070  0.0234 -0.2778
 3708TIP3    H132615   2.287   6.193  14.979  1.0278  0.3092 -1.2017
 3708TIP3    H232616   2.284   6.328  14.912  0.2024  1.0335  0.2346
 3709TIP3   OH232617   3.532   0.823  12.481  0.4275 -0.3253  0.1964
 3709TIP3    H132618   3.627   0.830  12.476  0.5959 -1.3915  1.3648
 3709TIP3    H232619   3.515   0.784  12.567 -1.1947  2.0373  1.0385
 3710TIP3   OH232620   4.850   4.118  12.878  0.4563  0.0720  0.4855
 3710TIP3    H132621   4.905   4.174  12.823  2.0631 -0.4996  1.4444
 3710TIP3    H232622   4.763   4.126  12.841  1.2166  0.8665 -1.2189
 3711TIP3   OH232623   1.625   0.764  15.908 -0.5922  0.1106  0.4486
 3711TIP3    H132624   1.562   0.722  15.850 -1.1455 -2.0939  2.4959
 3711TIP3    H232625   1.571   0.808  15.974 -0.0940 -1.6615  2.1254
 3712TIP3   OH232626   2.470   6.368   0.392  0.3823 -0.3558 -0.1280
 3712TIP3    H132627   2.513   6.285   0.373  2.1166  0.9747 -2.5590
 3712TIP3    H232628   2.541   6.430   0.404 -0.7778  1.4390 -1.8043
 3713TIP3   OH232629   6.401   2.084   1.944  0.2200 -0.0899 -0.8502
 3713TIP3    H132630   6.406   2.155   1.880  0.2454 -1.4326 -2.3986
 3713TIP3    H232631   6.465   2.020   1.914 -0.4584 -1.1922 -0.0259
 3714TIP3   OH232632   0.397   6.135  12.516  0.0069 -0.4550  0.0279
 3714TIP3    H132633   0.429   6.075  12.583 -0.3114 -0.3962  0.2359
 3714TIP3    H232634   0.472   6.149  12.458 -0.1267 -1.6082 -0.4357
 3715TIP3   OH232635   4.067   4.874   5.519 -0.2808 -0.6073  0.5877
 3715TIP3    H132636   4.075   4.969   5.510 -2.1841 -0.3151  1.4761
 3715TIP3    H232637   4.022   4.846   5.439 -0.2158 -0.6953  0.5815
 3716TIP3   OH232638   2.036   5.121  12.084 -0.4344  0.5023  0.4348
 3716TIP3    H132639   1.989   5.134  12.166 -1.6441 -0.8062 -0.0051
 3716TIP3    H232640   1.983   5.165  12.018 -0.9747 -0.7958 -0.0314
 3717TIP3   OH232641   3.801   0.792   2.899 -0.0999 -0.1422 -0.0649
 3717TIP3    H132642   3.815   0.732   2.826  0.6599  0.9921 -0.9009
 3717TIP3    H232643   3.788   0.877   2.857 -1.1475  0.2834  1.0789
 3718TIP3   OH232644   0.321   1.314  14.186  0.1189  0.2878 -0.0053
 3718TIP3    H132645   0.412   1.290  14.170  0.3069  0.5818  0.5772
 3718TIP3    H232646   0.326   1.398  14.232 -0.4809  0.7856 -0.8362
 3719TIP3   OH232647   1.095   1.374  15.654  0.1072 -0.1110 -0.3004
 3719TIP3    H132648   1.179   1.338  15.624  1.0642  0.1731  1.8910
 3719TIP3    H232649   1.032   1.340  15.591  1.4911 -2.4901 -0.5228
 3720TIP3   OH232650   6.546   6.123  13.296 -0.5282  0.7560  0.5146
 3720TIP3    H132651   6.456   6.095  13.278 -0.6834  2.1082 -1.1890
 3720TIP3    H232652   6.540   6.218  13.305  0.9278  1.1459 -1.6208
 3721TIP3   OH232653   3.077   0.145  13.843 -0.1563  0.1120  0.1702
 3721TIP3    H132654   2.994   0.189  13.825 -0.4531 -0.4627  0.1145
 3721TIP3    H232655   3.125   0.152  13.760 -0.0488  0.6508  0.2744
 3722TIP3   OH232656   5.735   4.272   1.330  0.3877 -0.1963 -0.2918
 3722TIP3    H132657   5.659   4.314   1.291 -1.8713 -4.0012 -0.4282
 3722TIP3    H232658   5.796   4.259   1.256  0.7401  1.7859 -0.4058
 3723TIP3   OH232659   5.033   3.015   5.816  0.1983 -0.4158  0.8030
 3723TIP3    H132660   5.101   3.068   5.775 -0.9596 -0.3560 -1.1654
 3723TIP3    H232661   4.990   3.073   5.878  0.3940  0.2624  0.3084
 3724TIP3   OH232662   1.405   5.093   5.316 -0.2807 -0.4762 -0.6629
 3724TIP3    H132663   1.424   5.179   5.354 -0.4905 -0.0013 -1.6031
 3724TIP3    H232664   1.469   5.034   5.356 -1.7244 -0.4310  1.9304
 3725TIP3   OH232665   2.461   1.381   0.105 -0.1647 -0.4033 -0.6319
 3725TIP3    H132666   2.515   1.331   0.166 -1.3126 -2.0410 -0.8870
 3725TIP3    H232667   2.455   1.468   0.144  0.0992 -1.0809  0.9944
 3726TIP3   OH232668   3.706   3.336  15.154  0.4120  0.2236  0.7644
 3726TIP3    H132669   3.690   3.373  15.068 -0.6759  0.8484  1.2122
 3726TIP3    H232670   3.631   3.279  15.170  0.4038  0.4127  1.4473
 3727TIP3   OH232671   6.129   4.864   2.991  0.6573  0.0177 -0.0494
 3727TIP3    H132672   6.148   4.890   3.081 -0.5857  0.3295  0.1300
 3727TIP3    H232673   6.111   4.770   2.995 -1.5396  0.4145  0.4053
 3728TIP3   OH232674   1.259   6.783  17.093  0.3221 -0.0875  0.2852
 3728TIP3    H132675   1.186   6.763  17.033  0.0124  1.8786 -0.0580
 3728TIP3    H232676   1.323   6.715  17.075 -1.1204 -1.4555  0.0714
 3729TIP3   OH232677   1.392   4.241   1.901  0.6551  0.0478  0.1120
 3729TIP3    H132678   1.370   4.233   1.994  0.7324 -0.1034  0.1173
 3729TIP3    H232679   1.452   4.169   1.884 -1.5486 -1.7168 -0.7232
 3730TIP3   OH232680   3.253   5.692  13.890 -0.8760  0.0000 -0.1654
 3730TIP3    H132681   3.175   5.672  13.838 -1.2096  1.5936 -0.3305
 3730TIP3    H232682   3.247   5.786  13.907  0.7603  0.0609  0.2431
 3731TIP3   OH232683   3.424   1.803  11.720 -0.0125  0.2483  0.6491
 3731TIP3    H132684   3.450   1.749  11.645  0.5916  0.4197  0.7335
 3731TIP3    H232685   3.500   1.858  11.738 -1.1205  2.2378 -0.3861
 3732TIP3   OH232686   5.422   5.035   0.440 -0.3222 -0.0278  0.0248
 3732TIP3    H132687   5.466   4.949   0.445 -0.0906  0.0996  0.1907
 3732TIP3    H232688   5.419   5.054   0.346 -2.9374 -1.5237 -0.2909
 3733TIP3   OH232689   1.166   5.242   3.224  0.4380  0.5158 -0.3296
 3733TIP3    H132690   1.185   5.244   3.318  0.6583 -0.9193 -0.3228
 3733TIP3    H232691   1.251   5.252   3.182  0.5552 -0.4546 -0.3466
 3734TIP3   OH232692   2.957   4.066  14.589  0.0152 -0.5034 -0.1056
 3734TIP3    H132693   2.869   4.101  14.604 -0.9972 -3.4517  1.6761
 3734TIP3    H232694   2.997   4.063  14.676  1.6716  0.2031 -0.8126
 3735TIP3   OH232695   6.124   4.498   5.834 -0.5531 -0.1131  0.1879
 3735TIP3    H132696   6.213   4.530   5.826  0.5155 -2.9124 -0.3389
 3735TIP3    H232697   6.103   4.504   5.927  1.1334 -1.5629  0.7173
 3736TIP3   OH232698   1.427   1.628   2.170 -0.2233 -0.4442 -0.0355
 3736TIP3    H132699   1.483   1.551   2.159  1.0225  0.5969 -1.2690
 3736TIP3    H232700   1.340   1.598   2.140  0.4737 -1.0904 -1.5224
 3737TIP3   OH232701   2.514   2.376  15.742  0.3883  0.2283 -0.6203
 3737TIP3    H132702   2.468   2.334  15.814  1.1771 -1.5258 -1.0759
 3737TIP3    H232703   2.599   2.402  15.779  0.9067 -0.9299 -0.9459
 3738TIP3   OH232704   0.676   1.137  15.480 -0.0646 -0.3129  0.4590
 3738TIP3    H132705   0.604   1.073  15.478 -0.0690 -0.3007 -0.7726
 3738TIP3    H232706   0.753   1.086  15.455 -0.1271  0.2059 -0.8793
 3739TIP3   OH232707   4.323   0.109   4.465  0.1648 -0.0405  0.7075
 3739TIP3    H132708   4.415   0.084   4.476 -0.0236 -1.2622 -0.2713
 3739TIP3    H232709   4.318   0.142   4.375 -0.5014 -0.7605  0.4691
 3740TIP3   OH232710   1.535   0.963   5.281  0.1841 -0.2447 -0.4401
 3740TIP3    H132711   1.609   0.937   5.225  2.1462  0.4928  1.6442
 3740TIP3    H232712   1.515   1.052   5.252  1.1583  0.1178 -0.0596
 3741TIP3   OH232713   0.740   3.695   1.481 -0.2257  0.4303  0.5972
 3741TIP3    H132714   0.778   3.758   1.543 -0.2216  1.1009 -0.0754
 3741TIP3    H232715   0.706   3.749   1.410  0.7572 -0.4088 -0.5328
 3742TIP3   OH232716   4.973   1.002   4.996 -0.6737  0.0523 -0.2767
 3742TIP3    H132717   5.066   1.018   4.980 -0.8215  1.5834  0.3219
 3742TIP3    H232718   4.929   1.081   4.966 -1.9569 -1.1663 -1.8012
 3743TIP3   OH232719   1.392   5.789   5.591  0.0440 -0.0348  0.1317
 3743TIP3    H132720   1.309   5.797   5.546  1.0321 -0.5249 -1.8840
 3743TIP3    H232721   1.421   5.699   5.573  1.2088  0.2642  0.4246
 3744TIP3   OH232722   0.564   0.114  13.861 -0.3245 -0.2144  0.4195
 3744TIP3    H132723   0.563   0.209  13.865 -0.6301 -0.1682 -0.4939
 3744TIP3    H232724   0.480   0.090  13.822 -0.7515 -0.9315  1.7074
 3745TIP3   OH232725   0.674   4.509  11.681 -0.2173 -0.2771 -0.1023
 3745TIP3    H132726   0.717   4.465  11.754 -0.2425 -0.7097 -0.3428
 3745TIP3    H232727   0.584   4.477  11.683 -0.3182  0.0046 -0.0910
 3746TIP3   OH232728   6.524   0.356   4.623 -0.1796 -0.0354 -0.2958
 3746TIP3    H132729   6.469   0.376   4.547 -0.5474 -0.9771 -0.2926
 3746TIP3    H232730   6.564   0.271   4.602  2.5126  1.2835 -0.9727
 3747TIP3   OH232731   5.216   5.006   5.588 -0.1912 -0.5121 -0.0503
 3747TIP3    H132732   5.217   5.036   5.498 -1.5865 -0.1224  0.0337
 3747TIP3    H232733   5.142   4.946   5.592 -0.5115 -0.0692  0.9642
 3748TIP3   OH232734   6.717   6.284  11.047 -0.9038 -0.5304 -0.0283
 3748TIP3    H132735   6.752   6.196  11.036  0.6660 -0.5111  3.3319
 3748TIP3    H232736   6.628   6.271  11.080 -1.3812 -0.7618 -1.3524
 3749TIP3   OH232737   1.956   6.085  11.424  0.5365 -0.2733  0.2114
 3749TIP3    H132738   1.899   6.049  11.492 -0.0424 -0.8972 -0.5857
 3749TIP3    H232739   1.899   6.140  11.371  0.9513  0.1003  0.1466
 3750TIP3   OH232740   2.343   3.663   3.210 -0.1689  0.4632 -0.1653
 3750TIP3    H132741   2.292   3.582   3.212 -0.7795  0.7859 -1.2910
 3750TIP3    H232742   2.277   3.732   3.195  0.4032  1.1017  0.1881
 3751TIP3   OH232743   3.540   0.233  13.778 -0.2740 -0.0865  0.3325
 3751TIP3    H132744   3.458   0.272  13.749 -1.5866 -0.6068  3.0936
 3751TIP3    H232745   3.518   0.142  13.797  1.2435 -0.5427  0.0341
 3752TIP3   OH232746   2.385   1.178  13.870  0.2157  0.3429 -0.6217
 3752TIP3    H132747   2.384   1.222  13.955  0.8181 -0.9135  0.0658
 3752TIP3    H232748   2.299   1.139  13.862 -1.0847  3.1721 -2.1429
 3753TIP3   OH232749   2.286   5.188  13.613 -0.7460 -0.1139 -0.1091
 3753TIP3    H132750   2.260   5.195  13.521 -1.5931  0.6095  0.1659
 3753TIP3    H232751   2.379   5.207  13.613 -1.0387  1.5161 -0.6469
 3754TIP3   OH232752   2.029   5.169  13.105 -0.1943 -0.5206  0.1789
 3754TIP3    H132753   1.959   5.106  13.086 -1.1647  0.7390 -0.5144
 3754TIP3    H232754   2.015   5.240  13.043  1.0795  0.2494  0.7425
 3755TIP3   OH232755   6.436   2.770  16.796 -0.4224 -0.2028 -0.2587
 3755TIP3    H132756   6.486   2.762  16.714  0.3672  0.3831  0.1543
 3755TIP3    H232757   6.364   2.829  16.774 -1.7744 -2.0916 -1.2178
 3756TIP3   OH232758   5.733   2.707   0.614 -0.4618 -0.0593 -0.4202
 3756TIP3    H132759   5.717   2.798   0.589 -1.9107 -0.3456 -0.6180
 3756TIP3    H232760   5.709   2.703   0.707 -0.7980 -0.3247 -0.5158
 3757TIP3   OH232761   2.341   0.584   4.126 -0.2824 -0.0927 -1.0435
 3757TIP3    H132762   2.312   0.674   4.141 -2.0850 -1.0864  2.5988
 3757TIP3    H232763   2.261   0.536   4.105  0.4481 -1.1075 -1.6182
 3758TIP3   OH232764   0.553   5.062  14.907 -0.2251 -0.0327 -0.6803
 3758TIP3    H132765   0.573   5.021  14.823 -0.6017 -0.7525 -0.4247
 3758TIP3    H232766   0.466   5.028  14.931 -0.6699  1.1102 -0.5854
 3759TIP3   OH232767   6.755   2.100  15.284  0.0070  0.1056  0.0833
 3759TIP3    H132768   6.765   2.044  15.361 -3.6906 -0.8205  0.0662
 3759TIP3    H232769   6.705   2.046  15.221  0.1016  1.9470 -1.6653
 3760TIP3   OH232770   5.634   0.050  14.413  0.3660  0.1501  0.0527
 3760TIP3    H132771   5.603   0.028  14.326 -0.4598  1.2360  0.0554
 3760TIP3    H232772   5.592   0.134  14.434 -0.6973 -0.8220  2.1171
 3761TIP3   OH232773   1.432   1.624  16.368  0.5701 -0.2108 -0.6781
 3761TIP3    H132774   1.493   1.674  16.422  0.1792 -0.0340 -0.3995
 3761TIP3    H232775   1.369   1.688  16.337 -0.9830 -0.7740  1.1262
 3762TIP3   OH232776   3.283   0.276  16.555 -0.3408 -0.0431  0.0775
 3762TIP3    H132777   3.365   0.315  16.524 -0.9724  0.6190 -0.8234
 3762TIP3    H232778   3.297   0.262  16.649  1.4896 -1.7141 -0.3806
 3763TIP3   OH232779   2.723   1.837  15.753 -0.3235  0.4419  0.4611
 3763TIP3    H132780   2.681   1.751  15.751  1.6658 -0.5882  0.4431
 3763TIP3    H232781   2.802   1.824  15.806  1.1540  1.6931 -1.3117
 3764TIP3   OH232782   0.295   0.496   4.174 -0.1155  0.0370 -0.2068
 3764TIP3    H132783   0.363   0.552   4.137 -0.9373  0.2089 -1.5225
 3764TIP3    H232784   0.221   0.554   4.188 -0.0034 -0.1346  1.2945
 3765TIP3   OH232785   0.919   2.104  16.376 -0.4002 -0.1873 -0.0201
 3765TIP3    H132786   0.831   2.132  16.403 -0.4476  0.5809 -0.8815
 3765TIP3    H232787   0.927   2.137  16.286  0.0850 -1.8145 -0.6112
 3766TIP3   OH232788   1.351   4.256   0.049 -0.2332 -0.4361 -0.1680
 3766TIP3    H132789   1.421   4.229  -0.010  0.1092  0.3573 -0.1417
 3766TIP3    H232790   1.297   4.178   0.059  0.6556 -1.0728 -0.1706
 3767TIP3   OH232791   3.216   6.365   0.401 -0.2597  0.0240  0.3552
 3767TIP3    H132792   3.156   6.375   0.475  1.4725 -0.2604  1.8842
 3767TIP3    H232793   3.281   6.434   0.414  1.4723 -1.5754  0.5724
 3768TIP3   OH232794   1.840   5.471  12.321  0.5668 -0.9807 -0.1394
 3768TIP3    H132795   1.906   5.531  12.357 -0.4536  0.1941 -0.1823
 3768TIP3    H232796   1.853   5.475  12.226  0.0046 -0.2066 -0.1962
 3769TIP3   OH232797   1.907   0.238  13.203 -0.0835  0.0717  0.2239
 3769TIP3    H132798   1.873   0.319  13.239  1.0848  1.0791 -0.8313
 3769TIP3    H232799   1.849   0.170  13.237 -0.6644  1.2582  1.6904
 3770TIP3   OH232800   6.799   1.296   0.112  0.0013  0.4097  0.3807
 3770TIP3    H132801   6.826   1.215   0.156 -2.4151  0.3526  1.9727
 3770TIP3    H232802   6.742   1.267   0.041 -0.2390  0.6817  0.4605
 3771TIP3   OH232803   3.143   6.107  11.573 -0.4075  0.2447 -0.1870
 3771TIP3    H132804   3.099   6.123  11.657 -1.0606  0.1262 -0.5079
 3771TIP3    H232805   3.077   6.127  11.507  0.4159  1.3498 -0.7053
 3772TIP3   OH232806   5.193   2.330   5.938  0.3752  0.2404 -0.5469
 3772TIP3    H132807   5.146   2.247   5.939  1.8020 -0.6423 -2.0617
 3772TIP3    H232808   5.245   2.329   6.019  0.1248 -0.1617 -0.3876
 3773TIP3   OH232809   5.334   4.143  10.788  0.1832 -0.2371 -0.2734
 3773TIP3    H132810   5.369   4.071  10.735  0.2565 -0.7890  0.4970
 3773TIP3    H232811   5.253   4.109  10.825  0.4760 -0.1239  0.5061
 3774TIP3   OH232812   1.839   1.349  17.124  0.1205  0.1368 -0.3907
 3774TIP3    H132813   1.912   1.292  17.102 -1.8731 -2.4750 -0.7104
 3774TIP3    H232814   1.849   1.366  17.218  0.8530 -0.6009 -0.3263
 3775TIP3   OH232815   4.063   2.717   6.235  0.0383 -0.1045 -0.3733
 3775TIP3    H132816   4.072   2.632   6.192 -0.3987  0.4338 -1.5711
 3775TIP3    H232817   4.007   2.700   6.311  4.7517 -2.1257  3.1689
 3776TIP3   OH232818   3.907   6.725   3.774  0.2403 -0.3288  0.0071
 3776TIP3    H132819   3.831   6.714   3.717 -0.1134 -0.6430  0.5364
 3776TIP3    H232820   3.874   6.709   3.862  0.8990 -0.3600  0.2543
 3777TIP3   OH232821   6.616   5.796   5.556 -0.2657 -0.3825 -0.3399
 3777TIP3    H132822   6.558   5.721   5.572 -0.1268 -0.0933  1.8373
 3777TIP3    H232823   6.571   5.870   5.596  0.7598  0.1940 -0.2250
 3778TIP3   OH232824   0.961   3.874  12.758 -0.3575  0.7972  0.5129
 3778TIP3    H132825   0.975   3.850  12.850 -2.0064  0.5994  0.7524
 3778TIP3    H232826   0.959   3.969  12.758  0.7978  0.8304  0.4750
 3779TIP3   OH232827   5.954   5.897  13.248  0.0630  0.3441 -0.1054
 3779TIP3    H132828   5.889   5.830  13.227  1.8040 -1.3044 -0.4328
 3779TIP3    H232829   5.936   5.967  13.185 -2.7410  0.9317  1.2097
 3780TIP3   OH232830   6.449   2.404  16.459 -0.7144  0.3902 -0.4418
 3780TIP3    H132831   6.462   2.419  16.365  0.0841 -0.3362 -0.4511
 3780TIP3    H232832   6.534   2.374  16.491 -1.7017 -2.2758 -0.0602
 3781TIP3   OH232833   2.227   6.126  10.505  0.4279  0.3236  0.0708
 3781TIP3    H132834   2.215   6.051  10.563  2.7729  0.6825  1.1008
 3781TIP3    H232835   2.148   6.179  10.519 -0.5019 -1.1099  0.5416
 3782TIP3   OH232836   3.110   2.707  11.743 -0.2906 -0.3140  0.2958
 3782TIP3    H132837   3.047   2.746  11.803 -1.4578  0.9338 -1.5946
 3782TIP3    H232838   3.119   2.773  11.673  2.2426 -0.9704 -0.0753
 3783TIP3   OH232839   3.447   0.081  16.190  0.2062  0.2458  0.3207
 3783TIP3    H132840   3.443   0.174  16.169  1.2251  0.1482 -0.3788
 3783TIP3    H232841   3.453   0.077  16.285  0.3053  0.8986  0.3439
 3784TIP3   OH232842   1.473   3.594  12.797  0.3999  0.3480  0.0446
 3784TIP3    H132843   1.561   3.597  12.835  0.1106 -0.0560  0.7595
 3784TIP3    H232844   1.472   3.514  12.745 -0.1701 -0.7162  1.6339
 3785TIP3   OH232845   4.602   1.756  12.332  0.2104 -0.1963  0.0841
 3785TIP3    H132846   4.625   1.663  12.328  0.1994 -0.2057  0.2332
 3785TIP3    H232847   4.677   1.798  12.374 -0.7507 -0.4822  2.2056
 3786TIP3   OH232848   4.767   2.192  14.458 -0.1508  0.1690  0.0973
 3786TIP3    H132849   4.836   2.257  14.468  0.5102 -0.2409 -1.4761
 3786TIP3    H232850   4.691   2.230  14.501  0.9440  0.7785  1.5742
 3787TIP3   OH232851   5.837   0.657  13.410 -0.1319  0.0394  0.0395
 3787TIP3    H132852   5.768   0.722  13.396  0.2252  1.0517  2.5080
 3787TIP3    H232853   5.791   0.581  13.446 -0.2277 -0.1404 -0.4554
 3788TIP3   OH232854   4.601   5.341   0.917  0.2655 -0.1298  0.1311
 3788TIP3    H132855   4.633   5.388   0.840 -0.5619  1.5506  0.7711
 3788TIP3    H232856   4.612   5.402   0.989 -0.5912 -1.0280  1.0609
 3789TIP3   OH232857   3.812   1.629   3.482  0.2258 -0.0082  0.0631
 3789TIP3    H132858   3.727   1.651   3.521  0.1362 -0.5009  0.1485
 3789TIP3    H232859   3.872   1.624   3.556  0.2603  0.0069  0.0365
 3790TIP3   OH232860   0.327   0.188   1.229  0.2168 -0.0420  0.3479
 3790TIP3    H132861   0.368   0.170   1.145 -0.2861 -0.6374  0.2276
 3790TIP3    H232862   0.376   0.263   1.264 -0.1129  0.7670 -0.8468
 3791TIP3   OH232863   2.432   6.547  13.366  0.1830 -0.4467  0.2029
 3791TIP3    H132864   2.518   6.565  13.327 -0.6593  2.0792 -0.6545
 3791TIP3    H232865   2.400   6.471  13.319  1.2763 -0.4394 -0.6020
 3792TIP3   OH232866   4.587   2.790   0.695  0.0521  0.8517 -0.3383
 3792TIP3    H132867   4.503   2.753   0.722  0.0915  1.1353  0.1996
 3792TIP3    H232868   4.651   2.722   0.716 -0.1711  0.0861 -1.9966
 3793TIP3   OH232869   1.891   3.115  15.770  0.8610  0.0190  0.5851
 3793TIP3    H132870   1.938   3.074  15.842  0.1846  0.7027  1.4356
 3793TIP3    H232871   1.803   3.076  15.774  0.8422  0.0011  0.0750
 3794TIP3   OH232872   4.739   1.971   6.118  0.5253 -0.1982 -0.1171
 3794TIP3    H132873   4.650   1.944   6.141  0.5008 -0.4576 -0.4969
 3794TIP3    H232874   4.760   2.041   6.180  0.3388 -0.6451  0.4629
 3795TIP3   OH232875   6.625   6.602  16.538 -0.0206  1.3004 -0.4786
 3795TIP3    H132876   6.665   6.527  16.494 -0.5659  2.1829 -2.6168
 3795TIP3    H232877   6.655   6.595  16.628  1.0414 -0.7216 -0.9200
 3796TIP3   OH232878   4.742   3.302  15.435  1.2883 -0.5650 -0.0518
 3796TIP3    H132879   4.718   3.372  15.373 -1.4470 -0.0032  1.4915
 3796TIP3    H232880   4.814   3.256  15.391  0.1847  0.4092 -3.1938
 3797TIP3   OH232881   6.492   0.225   0.884 -0.5168  0.6978  0.2276
 3797TIP3    H132882   6.522   0.303   0.932 -1.7456  1.6113 -0.4334
 3797TIP3    H232883   6.472   0.161   0.951 -0.9588  1.4952  0.8685
 3798TIP3   OH232884   1.448   6.240  11.132  0.1555  0.0977 -0.1782
 3798TIP3    H132885   1.496   6.221  11.051 -1.1109  0.9644 -1.1722
 3798TIP3    H232886   1.515   6.242  11.200  1.0381 -2.5304 -0.8549
 3799TIP3   OH232887   2.741   3.492   2.846 -0.2110 -0.0107 -0.4432
 3799TIP3    H132888   2.819   3.488   2.791 -1.2003 -0.5005 -1.8471
 3799TIP3    H232889   2.753   3.572   2.898  0.0236  1.3752 -2.5142
 3800TIP3   OH232890   2.779   4.566   2.647  0.3935 -0.1246  0.1827
 3800TIP3    H132891   2.826   4.649   2.650  0.8313 -0.3658  2.6275
 3800TIP3    H232892   2.847   4.499   2.643  0.0334 -0.4328 -2.6566
 3801TIP3   OH232893   6.293   5.792   6.520 -0.3143  0.2669 -0.1121
 3801TIP3    H132894   6.318   5.700   6.535  0.3251  0.3517 -0.6340
 3801TIP3    H232895   6.301   5.833   6.606  0.1685  0.0089 -0.0282
 3802TIP3   OH232896   1.093   4.289   6.240  0.4478 -0.9473 -0.1484
 3802TIP3    H132897   1.123   4.310   6.328  0.1332 -1.5318  0.0993
 3802TIP3    H232898   1.002   4.263   6.251 -0.6446  2.0813 -1.0347
 3803TIP3   OH232899   5.898   3.875   3.113 -0.0035  0.3616  0.1367
 3803TIP3    H132900   5.869   3.960   3.080  1.1215  1.1403  1.0841
 3803TIP3    H232901   5.850   3.811   3.059 -4.1313  1.4644  2.0691
 3804TIP3   OH232902   4.214   4.731  15.763  0.1066 -0.4623  0.3738
 3804TIP3    H132903   4.281   4.715  15.696  0.0483 -0.8736  0.4107
 3804TIP3    H232904   4.207   4.826  15.767 -1.2394 -0.4096 -1.5783
 3805TIP3   OH232905   1.714   6.415  11.048 -0.5584  0.0073  0.3207
 3805TIP3    H132906   1.751   6.362  10.977 -2.0747 -0.2884 -0.2928
 3805TIP3    H232907   1.759   6.499  11.041 -0.1930 -0.2429 -0.5575
 3806TIP3   OH232908   3.122   2.777   0.460  0.0902  0.1175  0.0264
 3806TIP3    H132909   3.034   2.796   0.427  0.3859  0.8463 -0.3455
 3806TIP3    H232910   3.146   2.694   0.418 -0.4647 -0.1520  0.2280
 3807TIP3   OH232911   1.188   2.461  14.543 -0.0724 -0.1217  0.4365
 3807TIP3    H132912   1.113   2.409  14.570 -0.0397  0.1965  1.1647
 3807TIP3    H232913   1.219   2.503  14.624 -0.4867  1.5268 -0.2178
 3808TIP3   OH232914   6.706   2.069   3.552  0.6586 -0.5582  0.7708
 3808TIP3    H132915   6.666   2.118   3.479 -1.1262  0.1658  2.1578
 3808TIP3    H232916   6.790   2.114   3.567 -0.9323  2.2459  2.0175
 3809TIP3   OH232917   4.701   1.846   0.079  0.4570  0.0780 -0.2350
 3809TIP3    H132918   4.786   1.846   0.123  0.2878  0.7327  0.1118
 3809TIP3    H232919   4.718   1.886  -0.007  0.5860 -0.2267 -0.3523
 3810TIP3   OH232920   4.629   4.493  15.868  0.3795  0.1589  0.0223
 3810TIP3    H132921   4.582   4.418  15.833 -0.5331  1.7039 -2.3342
 3810TIP3    H232922   4.697   4.456  15.924 -0.2102 -2.3743 -0.8395
 3811TIP3   OH232923   3.496   3.797  12.323 -0.2797  0.1833 -0.2895
 3811TIP3    H132924   3.590   3.811  12.330 -0.4868  1.2749  0.6345
 3811TIP3    H232925   3.475   3.826  12.234  0.3038 -0.4247 -0.6342
 3812TIP3   OH232926   0.885   6.552  11.992  0.2253  0.1833  0.5708
 3812TIP3    H132927   0.968   6.531  12.036 -0.3091 -0.1699  1.4285
 3812TIP3    H232928   0.818   6.513  12.047 -0.5412  0.7166  0.0371
 3813TIP3   OH232929   6.599   1.265   4.661 -0.2705 -1.1318 -0.1905
 3813TIP3    H132930   6.578   1.184   4.708 -0.3191 -0.8611  0.2529
 3813TIP3    H232931   6.522   1.279   4.605 -0.4371 -1.1757  0.0248
 3814TIP3   OH232932   5.416   2.005  16.424  0.9635 -0.3130 -0.0262
 3814TIP3    H132933   5.374   1.958  16.496 -0.6681 -0.6784 -1.1611
 3814TIP3    H232934   5.358   2.078  16.405  0.6600 -0.9651 -1.7966
 3815TIP3   OH232935   5.946   4.336   5.645  0.3014 -0.7752 -0.1893
 3815TIP3    H132936   5.892   4.403   5.604  0.9175  0.9256  1.6617
 3815TIP3    H232937   6.011   4.384   5.696  0.6341 -2.7561  1.3914
 3816TIP3   OH232938   4.023   6.647   0.029  0.8473  0.0821  0.9761
 3816TIP3    H132939   3.931   6.622   0.018  0.6309  1.6733 -1.8076
 3816TIP3    H232940   4.064   6.626  -0.054  2.5933  1.0174  1.5408
 3817TIP3   OH232941   2.308   5.482   2.734  0.0505 -0.4177  0.0099
 3817TIP3    H132942   2.257   5.403   2.715 -0.6158  0.3497 -1.5591
 3817TIP3    H232943   2.247   5.541   2.777 -0.3202  0.3450 -1.5000
 3818TIP3   OH232944   1.222   4.748  17.108 -0.1476 -0.2252 -0.2597
 3818TIP3    H132945   1.261   4.832  17.132  1.6138 -1.0839  0.0316
 3818TIP3    H232946   1.127   4.763  17.114  0.1454  1.2192  1.5538
 3819TIP3   OH232947   5.234   3.668  12.365 -0.5445 -0.1790  0.2965
 3819TIP3    H132948   5.240   3.596  12.428  0.4550 -0.1520  0.2414
 3819TIP3    H232949   5.246   3.627  12.280 -1.3769 -0.1390  0.1488
 3820TIP3   OH232950   5.980   5.266  12.351 -0.5896  1.0476 -0.3845
 3820TIP3    H132951   5.913   5.224  12.298 -2.0380  2.7112  0.0117
 3820TIP3    H232952   6.049   5.201  12.359 -1.2427 -0.0010 -2.5328
 3821TIP3   OH232953   2.780   6.488   2.249 -0.1578  0.1651 -0.1548
 3821TIP3    H132954   2.822   6.562   2.293  1.4296 -0.9488  0.2947
 3821TIP3    H232955   2.848   6.422   2.243 -1.2717 -0.9333 -1.3939
 3822TIP3   OH232956   3.521   4.952  11.581  0.1111 -0.3777 -0.2733
 3822TIP3    H132957   3.491   4.893  11.512 -0.4511  0.4654 -0.7707
 3822TIP3    H232958   3.587   4.902  11.629  0.2698 -1.0976 -1.2158
 3823TIP3   OH232959   4.055   5.143  13.262  0.1601  0.1310  0.9681
 3823TIP3    H132960   4.002   5.129  13.341 -1.4262 -1.4059 -0.2962
 3823TIP3    H232961   4.008   5.211  13.214  0.3762  0.0926  0.7021
 3824TIP3   OH232962   1.901   0.833  11.564  0.4540  0.8571  0.0873
 3824TIP3    H132963   1.871   0.866  11.648  2.0061  0.2811  0.9060
 3824TIP3    H232964   1.927   0.743  11.581 -1.0847  0.0720 -1.4869
 3825TIP3   OH232965   5.827   2.356   1.148  0.8255 -0.4745 -0.2466
 3825TIP3    H132966   5.839   2.446   1.119  0.2162 -0.3141 -0.0200
 3825TIP3    H232967   5.748   2.359   1.202 -0.8210 -1.6376 -2.4557
 3826TIP3   OH232968   5.971   0.056   2.650  0.5176 -0.1550 -0.0549
 3826TIP3    H132969   5.971  -0.013   2.716 -0.2226  0.0919  0.2166
 3826TIP3    H232970   6.035   0.026   2.585  0.6563 -0.7969  0.3588
 3827TIP3   OH232971   2.313   5.654  17.174 -0.5301  0.7847  0.0329
 3827TIP3    H132972   2.359   5.575  17.145 -2.3284 -0.0522 -0.6752
 3827TIP3    H232973   2.282   5.632  17.262  0.0637  1.2213  0.3661
 3828TIP3   OH232974   0.277   5.900   5.887 -0.4455  0.5588  0.8982
 3828TIP3    H132975   0.348   5.902   5.823  0.4290  1.8751  1.8598
 3828TIP3    H232976   0.197   5.889   5.835  0.2129  1.8531 -0.4453
 3829TIP3   OH232977   5.127   0.649   5.302 -0.6561 -0.2320 -0.3618
 3829TIP3    H132978   5.068   0.620   5.232 -0.5970  0.2520 -0.6175
 3829TIP3    H232979   5.083   0.625   5.383 -1.7650  1.1615 -0.5140
 3830TIP3   OH232980   5.249   0.912   1.579 -0.0164 -0.7475 -0.0787
 3830TIP3    H132981   5.335   0.900   1.538 -0.0231  2.5529 -1.3947
 3830TIP3    H232982   5.268   0.951   1.664 -0.1961 -1.7053  0.4120
 3831TIP3   OH232983   6.280   6.327  16.645 -0.5246  0.1344 -0.3187
 3831TIP3    H132984   6.227   6.379  16.705 -1.6902 -1.1435 -0.1951
 3831TIP3    H232985   6.312   6.390  16.580 -3.3221  0.8002 -1.1989
 3832TIP3   OH232986   2.379   3.235  16.438  0.3456 -0.1515  0.3311
 3832TIP3    H132987   2.414   3.272  16.519  0.0145 -0.6021  0.6897
 3832TIP3    H232988   2.452   3.188  16.399  0.7455  0.7771 -0.0810
 3833TIP3   OH232989   5.053   6.805   1.244  0.7624 -0.2878 -0.4872
 3833TIP3    H132990   4.970   6.779   1.204  0.8745 -1.0749 -0.2408
 3833TIP3    H232991   5.085   6.877   1.191 -0.7379  0.9495  0.2047
 3834TIP3   OH232992   0.628   4.956  11.526  0.4515  0.1123 -0.2025
 3834TIP3    H132993   0.610   4.898  11.452  0.2726 -2.1961  1.5477
 3834TIP3    H232994   0.549   5.009  11.535 -0.3726 -1.0569 -0.3994
 3835TIP3   OH232995   4.846   6.288   4.359 -0.0239  0.2647  0.3684
 3835TIP3    H132996   4.849   6.239   4.277  1.2804 -0.3603  0.7740
 3835TIP3    H232997   4.903   6.363   4.345 -0.2186  0.4445  0.5252
 3836TIP3   OH232998   2.823   1.724   0.327  0.4417 -0.1787  0.4539
 3836TIP3    H132999   2.858   1.710   0.239  1.4779  1.5161  0.5467
 3836TIP3    H233000   2.896   1.705   0.385  0.0102 -0.4838  0.9039
 3837TIP3   OH233001   0.284   5.179  12.315 -0.0273 -0.1615 -0.0327
 3837TIP3    H133002   0.357   5.117  12.327 -0.6015 -0.5999  1.2993
 3837TIP3    H233003   0.283   5.196  12.221  2.9110  1.2323  0.0778
 3838TIP3   OH233004   3.401   1.680  16.607 -0.0433  0.1189  0.1135
 3838TIP3    H133005   3.415   1.639  16.522  0.8555  0.5815  0.0212
 3838TIP3    H233006   3.405   1.608  16.670  0.5881 -0.0549 -0.1250
 3839TIP3   OH233007   0.342   6.634   5.723 -0.7208  0.4382  0.5299
 3839TIP3    H133008   0.420   6.649   5.670 -2.1817  0.6291 -1.6843
 3839TIP3    H233009   0.309   6.549   5.695 -0.6483 -0.2631  2.3916
 3840TIP3   OH233010   1.760   5.966   0.526  0.2465 -0.5407  0.3183
 3840TIP3    H133011   1.719   5.880   0.535  0.6998 -0.7126  0.8184
 3840TIP3    H233012   1.830   5.954   0.462 -0.3325 -0.2992 -0.3703
 3841TIP3   OH233013   5.462   4.645   0.853 -0.2336 -0.3386  0.9785
 3841TIP3    H133014   5.467   4.737   0.830 -0.5916 -0.6989 -0.6168
 3841TIP3    H233015   5.374   4.618   0.829  0.6313 -1.6647 -0.9256
 3842TIP3   OH233016   0.204   4.261   5.713 -0.3800 -0.0637  1.3128
 3842TIP3    H133017   0.248   4.181   5.741  0.8896 -0.2274 -0.9472
 3842TIP3    H233018   0.115   4.234   5.693  0.7095 -1.6739 -2.1169
 3843TIP3   OH233019   3.207   1.568   1.880 -0.1388  0.1696 -0.2139
 3843TIP3    H133020   3.209   1.663   1.863  2.0503  0.2283 -0.0014
 3843TIP3    H233021   3.202   1.529   1.793 -1.1826  0.4710 -0.2970
 3844TIP3   OH233022   5.960   2.976  17.051 -0.0715 -0.3283 -0.5299
 3844TIP3    H133023   5.986   3.064  17.080 -0.4978 -0.3804  0.0236
 3844TIP3    H233024   5.902   2.992  16.976  1.7159 -0.2172 -1.9788
 3845TIP3   OH233025   5.747   3.840   3.349 -0.8617 -0.5112 -0.1542
 3845TIP3    H133026   5.775   3.748   3.353  0.3943 -0.1261  0.5316
 3845TIP3    H233027   5.772   3.869   3.262  0.5958 -0.2841  0.3132
 3846TIP3   OH233028   0.984   2.199   4.158  0.0472 -0.3407  0.0701
 3846TIP3    H133029   0.949   2.158   4.237 -1.9715 -0.6050 -0.8696
 3846TIP3    H233030   1.022   2.126   4.108  0.1150 -0.3943  0.2009
 3847TIP3   OH233031   5.426   2.630   0.090  0.7309  0.1385 -0.6518
 3847TIP3    H133032   5.511   2.595   0.062  0.3541 -2.3853  1.0466
 3847TIP3    H233033   5.392   2.564   0.150 -1.9642  1.6134 -0.4305
 3848TIP3   OH233034   1.858   2.083  17.101 -0.1077 -0.1734  0.3570
 3848TIP3    H133035   1.866   2.064  17.194 -0.0365  1.8595  0.8170
 3848TIP3    H233036   1.781   2.140  17.095 -0.5207 -0.8288 -0.9360
 3849TIP3   OH233037   0.309   0.980   3.082 -0.0967 -0.1810  0.7218
 3849TIP3    H133038   0.247   0.907   3.077 -0.2909 -0.0627  1.3151
 3849TIP3    H233039   0.373   0.963   3.013 -0.4301 -0.6425  0.5260
 3850TIP3   OH233040   1.567   2.943  16.785 -0.5735  0.2027 -0.0632
 3850TIP3    H133041   1.635   2.883  16.755 -1.0144 -0.3800  0.0799
 3850TIP3    H233042   1.497   2.886  16.818 -0.8290  0.7971  0.4574
 3851TIP3   OH233043   4.418   0.627  16.162  0.2528  0.1510  0.8055
 3851TIP3    H133044   4.510   0.628  16.137  0.8076  1.1536  2.7740
 3851TIP3    H233045   4.399   0.716  16.189 -1.6268  0.2292 -0.5287
 3852TIP3   OH233046   3.181   4.580   1.393 -0.2014  1.3370  0.0202
 3852TIP3    H133047   3.132   4.539   1.322  0.2150  1.0327 -0.0996
 3852TIP3    H233048   3.199   4.508   1.454  0.1923  1.4147  0.0004
 3853TIP3   OH233049   4.643   0.384   5.974  0.3092  0.4220 -0.2295
 3853TIP3    H133050   4.644   0.308   5.917  1.5106 -0.1202  0.4854
 3853TIP3    H233051   4.725   0.379   6.022  0.5578  2.3317 -0.3741
 3854TIP3   OH233052   4.691   3.319   1.235 -0.3196  0.4908  0.3490
 3854TIP3    H133053   4.718   3.382   1.168 -1.1658  0.5835  0.0823
 3854TIP3    H233054   4.641   3.372   1.298 -0.2872  0.2424  0.5839
 3855TIP3   OH233055   5.123   1.567  12.745  0.5174  0.0739 -1.1891
 3855TIP3    H133056   5.075   1.488  12.721  0.4466 -0.2906  0.0658
 3855TIP3    H233057   5.123   1.620  12.666 -0.5903 -0.6031 -1.6671
 3856TIP3   OH233058   2.713   3.272  16.746  0.1855  0.2167 -0.2768
 3856TIP3    H133059   2.755   3.282  16.832 -0.3622  0.5867 -0.0434
 3856TIP3    H233060   2.784   3.251  16.686  0.3924 -1.6206  0.5400
 3857TIP3   OH233061   3.539   3.275   4.998  0.0535  0.4269  0.5910
 3857TIP3    H133062   3.538   3.235   4.911 -2.3963 -0.3350  0.9037
 3857TIP3    H233063   3.531   3.369   4.981 -0.4349  0.2817 -0.0012
 3858TIP3   OH233064   0.528   5.310  16.038 -0.8852 -0.3285  0.1918
 3858TIP3    H133065   0.493   5.399  16.043 -0.8771 -0.3177  0.0539
 3858TIP3    H233066   0.580   5.301  16.118 -0.7043 -0.1324  0.0984
 3859TIP3   OH233067   1.338   0.342   1.748  0.0102  0.5617 -0.5076
 3859TIP3    H133068   1.366   0.260   1.789 -0.6431  0.6117  0.0536
 3859TIP3    H233069   1.308   0.396   1.822 -0.0706  1.1035 -0.9319
 3860TIP3   OH233070   5.610   5.938  16.686  0.0002 -0.1460 -0.1701
 3860TIP3    H133071   5.651   5.875  16.626  0.3551  0.9247 -1.0752
 3860TIP3    H233072   5.583   5.885  16.762 -0.9513 -1.6473 -1.4862
 3861TIP3   OH233073   0.795   3.081   5.206  0.1352 -0.1589  0.2142
 3861TIP3    H133074   0.842   3.005   5.240 -0.3939  0.8949  3.7478
 3861TIP3    H233075   0.706   3.070   5.239 -0.5685  0.8292 -1.2708
 3862TIP3   OH233076   5.072   0.248   0.365 -0.3954  0.0906  0.3176
 3862TIP3    H133077   5.032   0.196   0.295 -1.9345  0.7156  0.6866
 3862TIP3    H233078   5.135   0.304   0.320 -0.3103 -0.5429 -0.3697
 3863TIP3   OH233079   3.540   6.679   6.119  0.3592 -0.6347 -0.0075
 3863TIP3    H133080   3.558   6.667   6.213  1.0988 -0.8703 -0.1727
 3863TIP3    H233081   3.626   6.693   6.080 -0.1975  4.7994  0.0538
 3864TIP3   OH233082   1.808   0.862   4.726  0.0275  0.0251 -0.5345
 3864TIP3    H133083   1.832   0.774   4.697 -1.3954 -0.6189  0.1552
 3864TIP3    H233084   1.723   0.851   4.769 -0.1667  1.7366 -0.4113
 3865TIP3   OH233085   2.158   1.420  17.061  0.6263  0.6534 -0.1671
 3865TIP3    H133086   2.174   1.477  16.986  1.5889 -0.4074 -0.8255
 3865TIP3    H233087   2.083   1.457  17.105 -1.2268  0.2671 -2.7574
 3866TIP3   OH233088   3.668   4.637   1.051 -0.0448  0.4075 -0.4136
 3866TIP3    H133089   3.616   4.560   1.077 -1.0369  1.2853  0.2984
 3866TIP3    H233090   3.603   4.699   1.017  0.6710  1.1414 -0.4606
 3867TIP3   OH233091   2.753   6.026  13.681  0.1646  0.0197  0.0450
 3867TIP3    H133092   2.748   5.946  13.630  0.0377 -0.6110  1.0313
 3867TIP3    H233093   2.847   6.045  13.687  0.1585  0.3249 -0.7586
 3868TIP3   OH233094   0.505   4.673   2.080  0.5754  0.7760 -0.5852
 3868TIP3    H133095   0.469   4.589   2.109  1.1924  0.8475  0.4370
 3868TIP3    H233096   0.535   4.657   1.990 -1.3529  0.5444 -1.2513
 3869TIP3   OH233097   4.301   5.765  12.532  0.0914 -0.2372  0.3679
 3869TIP3    H133098   4.358   5.807  12.468  0.0224 -0.0300  0.4432
 3869TIP3    H233099   4.233   5.722  12.479 -1.6495  2.3049  0.3524
 3870TIP3   OH233100   5.083   6.836   3.681 -0.7219 -0.3853 -0.0535
 3870TIP3    H133101   5.173   6.810   3.661 -1.2336 -1.4208 -1.1568
 3870TIP3    H233102   5.056   6.889   3.605 -0.8812  0.3374  0.5004
 3871TIP3   OH233103   3.547   6.654   0.081  0.0230 -0.2659  0.0534
 3871TIP3    H133104   3.621   6.611   0.039  0.2467 -1.7526  1.8303
 3871TIP3    H233105   3.577   6.744   0.095  0.3914 -0.0613 -1.7471
 3872TIP3   OH233106   1.720   2.775   6.251 -0.6746 -0.0609  0.6814
 3872TIP3    H133107   1.741   2.754   6.342  0.8848 -0.4242  0.2667
 3872TIP3    H233108   1.732   2.870   6.244  1.5597 -0.3056  0.3346
 3873TIP3   OH233109   3.169   2.061   2.850  0.0339  0.6195  0.2195
 3873TIP3    H133110   3.211   2.044   2.934 -1.1034  1.4735  0.9980
 3873TIP3    H233111   3.223   2.015   2.786 -0.5563 -2.3952  1.6755
 3874TIP3   OH233112   2.915   3.502   3.936  0.5055 -0.0897 -0.5851
 3874TIP3    H133113   2.830   3.499   3.894  0.6823 -1.6263 -0.8877
 3874TIP3    H233114   2.973   3.455   3.877  1.0890 -0.9605  0.6299
 3875TIP3   OH233115   3.315   2.484   0.676 -0.4726 -0.3307 -0.3289
 3875TIP3    H133116   3.313   2.556   0.738 -0.0283 -0.7846  0.2259
 3875TIP3    H233117   3.363   2.414   0.721  0.8258 -0.2912 -1.5739
 3876TIP3   OH233118   0.357   2.697  11.314 -0.5605  0.0648 -0.2779
 3876TIP3    H133119   0.434   2.703  11.258  0.3057 -0.2776  0.8252
 3876TIP3    H233120   0.390   2.657  11.395 -2.1230 -1.1361 -0.1894
 3877TIP3   OH233121   2.966   0.372   4.956 -0.0488 -0.0768 -0.1178
 3877TIP3    H133122   2.892   0.312   4.966  0.5151 -0.5665  1.4323
 3877TIP3    H233123   2.980   0.377   4.862 -1.4811 -0.6669 -0.3925
 3878TIP3   OH233124   6.560   3.752  10.334  0.0652  0.4889  0.5317
 3878TIP3    H133125   6.619   3.807  10.283 -0.5926 -0.6936 -1.6652
 3878TIP3    H233126   6.608   3.670  10.346  0.7967  1.2117  3.2363
 3879TIP3   OH233127   2.044   0.044   6.283  0.0928 -0.4049  0.0901
 3879TIP3    H133128   2.028   0.098   6.360 -1.2386 -1.7511  0.8194
 3879TIP3    H233129   2.040   0.106   6.210 -2.4152  0.4129  0.7877
 3880TIP3   OH233130   4.987   6.207  12.038 -0.4239 -0.3738  0.2904
 3880TIP3    H133131   4.895   6.229  12.028 -0.3430 -0.4527 -0.7536
 3880TIP3    H233132   4.988   6.117  12.071 -0.7292  0.4372  2.7274
 3881TIP3   OH233133   4.696   1.062   1.316  0.1479  0.5488 -0.0036
 3881TIP3    H133134   4.703   0.971   1.287 -0.5975  1.5972 -4.2220
 3881TIP3    H233135   4.785   1.089   1.336  0.6761 -0.5538 -0.7962
 3882TIP3   OH233136   1.242   5.455   3.786 -0.4806 -0.5376  0.3355
 3882TIP3    H133137   1.312   5.392   3.768  0.7477  0.6879  0.6095
 3882TIP3    H233138   1.163   5.415   3.750  0.8377 -0.7378 -2.6330
 3883TIP3   OH233139   2.680   5.113   0.942  0.2190  0.1167 -0.6155
 3883TIP3    H133140   2.717   5.183   0.996 -0.8846 -1.4834  2.4485
 3883TIP3    H233141   2.594   5.146   0.916  0.6822  0.8262 -1.2987
 3884TIP3   OH233142   6.158   1.178  11.534 -0.1765  0.5746 -0.1343
 3884TIP3    H133143   6.247   1.212  11.540 -0.3165  0.7632  1.2998
 3884TIP3    H233144   6.169   1.087  11.507  0.5096  0.3649  0.8003
 3885TIP3   OH233145   0.314   4.785  16.903  0.4678  0.0690  0.5218
 3885TIP3    H133146   0.248   4.817  16.965 -0.2303  1.0980 -0.7174
 3885TIP3    H233147   0.367   4.862  16.883  2.2836 -0.7905  1.7049
 3886TIP3   OH233148   5.834   3.358   4.034 -0.2382  0.4528 -0.1267
 3886TIP3    H133149   5.895   3.284   4.043  0.8571  1.3488  0.1836
 3886TIP3    H233150   5.849   3.410   4.113 -0.1094  1.6259 -0.9068
 3887TIP3   OH233151   6.433   1.706   2.970  0.0106 -0.1007  0.0278
 3887TIP3    H133152   6.416   1.750   2.887  0.0701 -1.3026 -0.6430
 3887TIP3    H233153   6.345   1.686   3.005 -0.0201  0.7169  0.4410
 3888TIP3   OH233154   2.417   1.858   5.697 -0.6394 -0.3165 -0.4011
 3888TIP3    H133155   2.415   1.855   5.793 -3.7781 -0.6456 -0.3703
 3888TIP3    H233156   2.400   1.949   5.675  0.0247 -0.2500 -0.6829
 3889TIP3   OH233157   5.956   3.211   1.896  0.0907 -0.0225 -0.3511
 3889TIP3    H133158   6.003   3.139   1.854 -1.2030 -1.0012 -0.1786
 3889TIP3    H233159   5.939   3.273   1.825  0.0204 -0.5303 -0.7826
 3890TIP3   OH233160   3.241   6.498   4.161  0.4898 -0.3710  0.7427
 3890TIP3    H133161   3.208   6.534   4.078  0.1881 -0.5525  0.7867
 3890TIP3    H233162   3.328   6.465   4.139 -0.0518 -1.4777  0.2242
 3891TIP3   OH233163   6.664   4.547   0.899  0.7028 -0.6409  0.4118
 3891TIP3    H133164   6.662   4.451   0.899 -1.4283 -0.6551  2.2739
 3891TIP3    H233165   6.613   4.572   0.822 -1.2317 -1.0805  1.4818
 3892TIP3   OH233166   1.733   5.161  15.475  0.7234  0.2904  0.2117
 3892TIP3    H133167   1.727   5.072  15.439 -1.2228 -0.5612  2.3702
 3892TIP3    H233168   1.734   5.218  15.398 -1.4782 -1.4714 -1.2838
 3893TIP3   OH233169   1.148   2.314   3.733 -0.2818 -0.0724  0.3585
 3893TIP3    H133170   1.088   2.361   3.791  0.3481 -0.5605  1.4404
 3893TIP3    H233171   1.152   2.226   3.770 -0.1436 -0.5076 -0.6539
 3894TIP3   OH233172   4.263   5.808  15.027  0.3828  0.1288  0.2080
 3894TIP3    H133173   4.291   5.756  15.103 -0.2278  2.2986  2.0217
 3894TIP3    H233174   4.339   5.861  15.005 -0.4678  2.0499  1.6338
 3895TIP3   OH233175   0.165   6.369  11.081 -0.3700  0.0207 -0.0781
 3895TIP3    H133176   0.244   6.340  11.127 -1.8129 -0.1959  2.4481
 3895TIP3    H233177   0.104   6.296  11.088 -1.3135  0.7099 -0.6845
 3896TIP3   OH233178   6.676   2.527  13.070  0.3303  0.6974  0.2996
 3896TIP3    H133179   6.642   2.439  13.086  0.8133  0.1944 -1.2160
 3896TIP3    H233180   6.603   2.586  13.090 -0.0743 -0.0640  1.1012
 3897TIP3   OH233181   2.152   2.880  16.098 -0.6060  1.0640  0.6811
 3897TIP3    H133182   2.164   2.887  16.003 -0.0816 -1.5134  0.4911
 3897TIP3    H233183   2.187   2.963  16.132  0.5812  1.4398 -1.2615
 3898TIP3   OH233184   5.171   4.966   0.473 -0.1337 -0.0872  0.1230
 3898TIP3    H133185   5.139   5.035   0.531 -1.4194 -0.2537 -0.3644
 3898TIP3    H233186   5.259   4.995   0.448  0.5157 -0.0671  2.2283
 3899TIP3   OH233187   6.675   2.045  15.726 -0.6111  0.7021 -0.0239
 3899TIP3    H133188   6.752   2.084  15.767 -0.6646  0.7938 -0.0104
 3899TIP3    H233189   6.627   2.005  15.799  0.1997 -0.7088 -0.2248
 3900TIP3   OH233190   4.550   0.617   3.427 -0.4614 -0.4133 -0.2281
 3900TIP3    H133191   4.482   0.553   3.446 -1.6608  0.7278 -0.4893
 3900TIP3    H233192   4.518   0.698   3.466  0.7006  0.1836 -0.4606
 3901TIP3   OH233193   0.847   0.561  13.103  0.2155 -0.2242 -0.1311
 3901TIP3    H133194   0.780   0.494  13.116  0.6812 -0.6170  0.2866
 3901TIP3    H233195   0.877   0.583  13.191  0.5171  0.0701 -0.3041
 3902TIP3   OH233196   5.277   0.066   5.744  0.8468  0.0738  0.3010
 3902TIP3    H133197   5.249   0.031   5.659  1.6105  0.6509 -0.2073
 3902TIP3    H233198   5.294   0.159   5.726  0.2810  0.3742  1.2740
 3903TIP3   OH233199   5.401   2.530   4.846 -0.3527  0.5234 -0.3249
 3903TIP3    H133200   5.426   2.559   4.758  1.3996 -0.4104 -0.1874
 3903TIP3    H233201   5.482   2.495   4.884 -1.7228 -2.0745  0.4903
 3904TIP3   OH233202   3.140   0.005  16.513 -0.0463 -0.2803  0.2866
 3904TIP3    H133203   3.170  -0.004  16.422  2.1440 -0.7085  1.0020
 3904TIP3    H233204   3.045  -0.005  16.507 -0.2011  1.6530 -2.1744
 3905TIP3   OH233205   3.181   4.752   3.657 -0.4372 -0.5206 -0.2381
 3905TIP3    H133206   3.173   4.839   3.616  1.0461  0.7986  2.0315
 3905TIP3    H233207   3.139   4.693   3.595 -0.6031  1.6600 -2.3881
 3906TIP3   OH233208   2.620   2.238   3.727  0.3368 -0.2124  0.4312
 3906TIP3    H133209   2.558   2.166   3.722  1.9393 -1.5801 -2.0525
 3906TIP3    H233210   2.630   2.255   3.821 -1.9228 -1.5162  0.9800
 3907TIP3   OH233211   2.172   6.127   5.405  0.3153  0.2937  0.2738
 3907TIP3    H133212   2.122   6.196   5.449  1.9802  0.9247  1.2467
 3907TIP3    H233213   2.144   6.046   5.447  0.9015  0.7607  1.5957
 3908TIP3   OH233214   3.988   3.964  14.319 -0.5284 -0.1123 -0.5453
 3908TIP3    H133215   4.036   3.954  14.237  1.0223 -0.0582  0.3110
 3908TIP3    H233216   3.912   3.907  14.310  0.8724 -2.0022 -1.1126
 3909TIP3   OH233217   0.430   0.065  13.421  0.6997 -0.0762  0.6730
 3909TIP3    H133218   0.519   0.098  13.425  0.7035 -0.1143  0.8878
 3909TIP3    H233219   0.412   0.031  13.508  0.1597  0.7378  0.8891
 3910TIP3   OH233220   4.308   6.561   5.642 -0.0801 -0.6377  0.2953
 3910TIP3    H133221   4.340   6.499   5.577  1.0946  0.6283 -0.3937
 3910TIP3    H233222   4.371   6.633   5.639 -2.3610  1.4645 -0.2961
 3911TIP3   OH233223   0.478   3.025  15.238 -0.1315  0.1343  0.2105
 3911TIP3    H133224   0.537   2.951  15.226 -0.4979 -0.4341  1.6470
 3911TIP3    H233225   0.473   3.067  15.152  1.8365 -0.1785 -0.0992
 3912TIP3   OH233226   3.820   2.051   4.006  0.3099  0.6370  0.1113
 3912TIP3    H133227   3.812   2.052   4.101 -0.8418  3.0066  0.0668
 3912TIP3    H233228   3.909   2.083   3.989  0.3786  0.5863  0.3744
 3913TIP3   OH233229   6.352   2.772  14.314  0.1731  0.2491 -0.1747
 3913TIP3    H133230   6.423   2.756  14.252 -0.0679 -1.4383 -0.0799
 3913TIP3    H233231   6.277   2.793  14.259  0.3427  0.3308 -0.3759
 3914TIP3   OH233232   2.674   0.462  17.018  0.0857  1.1198 -0.4937
 3914TIP3    H133233   2.619   0.403  17.071 -0.9672  1.5550 -1.0722
 3914TIP3    H233234   2.716   0.404  16.954  1.1652  0.6287  0.6177
 3915TIP3   OH233235   4.945   0.854   4.283 -0.3592  0.1891 -0.0114
 3915TIP3    H133236   4.991   0.783   4.239 -0.4323 -1.2861  2.1595
 3915TIP3    H233237   5.014   0.900   4.332 -0.5660  0.5590 -0.0689
 3916TIP3   OH233238   4.239   3.641  11.439  0.2384 -0.2879  0.0923
 3916TIP3    H133239   4.238   3.627  11.533  2.3288 -0.2648  0.1757
 3916TIP3    H233240   4.149   3.628  11.411 -0.5492  0.3254  2.1692
 3917TIP3   OH233241   5.906   5.405  11.646 -0.3116  0.2532 -0.2510
 3917TIP3    H133242   5.994   5.397  11.611 -0.1824 -1.5282  0.3535
 3917TIP3    H233243   5.852   5.427  11.570  0.4659  0.0379 -0.8834
 3918TIP3   OH233244   1.062   4.875   6.253 -0.3705 -0.2357  0.1426
 3918TIP3    H133245   1.006   4.942   6.214  0.7236  1.3222  1.1442
 3918TIP3    H233246   1.099   4.916   6.331  0.0521 -2.1491  1.0100
 3919TIP3   OH233247   1.633   4.657  14.041 -0.6146 -0.0272  0.5716
 3919TIP3    H133248   1.698   4.634  13.975 -2.0977 -0.7069 -0.7185
 3919TIP3    H233249   1.576   4.720  13.998 -2.2464 -1.2792  0.7654
 3920TIP3   OH233250   3.749   1.295  11.859 -0.3797 -0.1194  0.0770
 3920TIP3    H133251   3.840   1.271  11.843  0.0280  1.0138  0.5995
 3920TIP3    H233252   3.698   1.222  11.823  0.7558 -1.1426  0.4774
 3921TIP3   OH233253   4.789   2.608   0.758  0.0738 -0.5502  1.0079
 3921TIP3    H133254   4.770   2.516   0.740  2.1261 -0.2451 -4.4650
 3921TIP3    H233255   4.872   2.606   0.806  0.6929 -1.6044 -0.0493
 3922TIP3   OH233256   3.483   6.360  11.109  0.4548 -0.0691  0.0207
 3922TIP3    H133257   3.466   6.338  11.201  2.2034  1.4238  0.7741
 3922TIP3    H233258   3.397   6.382  11.074 -0.1318  0.4259  1.6359
 3923TIP3   OH233259   0.375   1.587  13.772 -0.1294 -0.8940  0.6410
 3923TIP3    H133260   0.350   1.592  13.864 -1.7117  0.0073  0.1998
 3923TIP3    H233261   0.387   1.493  13.755  0.8901 -1.0182  1.9125
 3924TIP3   OH233262   6.063   3.053   1.238 -0.0298 -0.1304 -0.2410
 3924TIP3    H133263   5.975   3.020   1.217 -0.3773  0.4856  0.2158
 3924TIP3    H233264   6.094   3.093   1.157 -0.1175 -0.4443 -0.4344
 3925TIP3   OH233265   5.034   4.226  15.479  0.2253  0.0604  0.3764
 3925TIP3    H133266   5.022   4.147  15.532  0.1580 -0.5682 -0.5457
 3925TIP3    H233267   4.997   4.203  15.394 -0.5392  1.3801  0.3261
 3926TIP3   OH233268   3.325   3.673  15.523 -0.3038 -0.1416  0.6754
 3926TIP3    H133269   3.320   3.768  15.527 -1.4714 -0.2148  1.4767
 3926TIP3    H233270   3.324   3.644  15.614  1.9308 -0.8814  0.5237
 3927TIP3   OH233271   2.846   6.288  13.487  0.2489 -0.1962 -0.2719
 3927TIP3    H133272   2.844   6.327  13.575 -0.4648  0.0055 -0.3684
 3927TIP3    H233273   2.935   6.257  13.476  0.1187 -1.0026  0.8687
 3928TIP3   OH233274   2.751   3.247   2.017  0.7237  0.1918  0.9870
 3928TIP3    H133275   2.665   3.211   2.000 -0.3563  3.5537 -1.9065
 3928TIP3    H233276   2.811   3.194   1.964 -0.0865 -0.2014  0.4520
 3929TIP3   OH233277   1.369   0.088   2.490  0.4898  0.7588  0.5675
 3929TIP3    H133278   1.292   0.126   2.449  0.2750  1.6813  1.7531
 3929TIP3    H233279   1.435   0.084   2.421 -0.0734  1.6024 -0.0308
 3930TIP3   OH233280   2.886   6.482  11.421  0.3991  0.2474 -0.3136
 3930TIP3    H133281   2.804   6.467  11.374  0.1796 -1.2606  0.4927
 3930TIP3    H233282   2.942   6.526  11.358 -0.5282 -0.0261 -1.3585
 3931TIP3   OH233283   6.620   2.751  14.967  0.8478  0.6549 -0.2288
 3931TIP3    H133284   6.633   2.845  14.957  0.1819  0.7071 -0.6962
 3931TIP3    H233285   6.525   2.739  14.956  1.1398 -0.2886 -2.0645
 3932TIP3   OH233286   1.451   2.921   4.263 -0.4038 -0.4238 -0.1530
 3932TIP3    H133287   1.518   2.856   4.240 -0.4742 -0.7114  0.4201
 3932TIP3    H233288   1.457   2.929   4.359  1.2942  2.2656 -0.3836
 3933TIP3   OH233289   6.754   4.357   0.198 -0.5241 -0.1416 -0.3094
 3933TIP3    H133290   6.694   4.286   0.223  0.3532 -0.2637  1.6245
 3933TIP3    H233291   6.709   4.401   0.126 -1.6227 -1.9502 -0.8165
 3934TIP3   OH233292   4.118   3.926  14.952  0.2144 -0.7678  0.8306
 3934TIP3    H133293   4.116   3.850  15.010  1.9202 -0.3286  1.5198
 3934TIP3    H233294   4.064   3.900  14.877 -1.4012 -1.6472  2.2098
 3935TIP3   OH233295   1.274   1.253  12.958 -0.2315  0.0480  0.2647
 3935TIP3    H133296   1.333   1.204  13.016 -0.2992 -2.0044 -1.2828
 3935TIP3    H233297   1.187   1.216  12.975 -0.4019  0.1266 -0.3931
 3936TIP3   OH233298   6.522   2.020   3.770 -0.2446  0.5403  0.1441
 3936TIP3    H133299   6.564   2.064   3.696  1.0519 -0.0044  0.5281
 3936TIP3    H233300   6.514   1.929   3.743 -1.4669  0.6707 -0.0237
 3937TIP3   OH233301   3.536   6.401  13.507 -0.1744 -0.2192 -0.2261
 3937TIP3    H133302   3.593   6.360  13.573 -1.7637 -2.3775 -0.0898
 3937TIP3    H233303   3.591   6.468  13.468  1.3939  0.0126  2.1179
 3938TIP3   OH233304   5.706   6.723  15.472  0.8438  0.3523  0.1352
 3938TIP3    H133305   5.801   6.732  15.475  0.9488  0.9460 -2.3230
 3938TIP3    H233306   5.675   6.761  15.554  2.6979  0.6863  0.7215
 3939TIP3   OH233307   0.102   6.197   5.863  0.3992 -0.4822  0.2523
 3939TIP3    H133308   0.126   6.203   5.955 -0.6134  0.9144  0.4593
 3939TIP3    H233309   0.124   6.108   5.838  0.9467 -0.7986  1.7673
 3940TIP3   OH233310   0.122   3.539  13.164  0.1147  0.3390 -0.4369
 3940TIP3    H133311   0.030   3.534  13.192  0.6361  0.0658  1.3452
 3940TIP3    H233312   0.161   3.606  13.220  0.7913  1.2321 -1.9117
 3941TIP3   OH233313   2.520   6.315  12.276 -0.0258  0.0087 -0.0655
 3941TIP3    H133314   2.524   6.336  12.182 -0.8770  0.5635  0.0157
 3941TIP3    H233315   2.561   6.391  12.318 -0.6671  0.2808  0.0732
 3942TIP3   OH233316   2.035   4.680  13.759  0.4788 -0.8326  0.0274
 3942TIP3    H133317   1.983   4.748  13.801 -0.8428 -1.6360 -0.2534
 3942TIP3    H233318   2.092   4.727  13.699 -1.1802 -0.0173 -0.9760
 3943TIP3   OH233319   1.940   4.093   0.837  0.5991  0.1132  0.2554
 3943TIP3    H133320   1.906   4.175   0.803  0.4248 -0.3654 -0.7632
 3943TIP3    H233321   1.987   4.053   0.764  0.3802 -0.8559  0.6185
 3944TIP3   OH233322   2.819   1.692  13.946  0.8179 -0.1112  1.0484
 3944TIP3    H133323   2.909   1.725  13.952 -0.0462  2.3154  1.8322
 3944TIP3    H233324   2.778   1.745  13.878 -0.1858 -0.7997  1.0994
 3945TIP3   OH233325   1.305   5.862  12.846 -0.1809  0.2792  0.6325
 3945TIP3    H133326   1.352   5.906  12.917  0.4923 -1.2357  1.1832
 3945TIP3    H233327   1.372   5.811  12.801 -0.6451  1.0118 -0.9750
 3946TIP3   OH233328   3.898   4.507  13.799  0.2976  0.1326 -0.7619
 3946TIP3    H133329   3.894   4.412  13.799  0.1614  0.1382 -0.8071
 3946TIP3    H233330   3.859   4.533  13.883  1.9837  0.0831  0.0659
 3947TIP3   OH233331   3.758   5.373   1.799  0.0332 -0.0031  0.1530
 3947TIP3    H133332   3.818   5.338   1.732  0.5045 -0.0646  0.5990
 3947TIP3    H233333   3.813   5.384   1.876 -0.0725  1.8724 -0.0039
 3948TIP3   OH233334   6.019   4.944   2.623  0.0901  0.0175  0.4227
 3948TIP3    H133335   5.953   4.882   2.594 -0.1575  0.0728  0.8645
 3948TIP3    H233336   6.099   4.891   2.634 -0.0756 -0.1888  0.6334
 3949TIP3   OH233337   3.238   6.548   4.426 -0.1462  0.2079 -0.3502
 3949TIP3    H133338   3.247   6.537   4.332  0.7978  1.0179 -0.3716
 3949TIP3    H233339   3.150   6.515   4.446  0.5681 -2.3978 -1.1140
 3950TIP3   OH233340   3.813   4.927   3.670  0.1122  0.1326 -0.0786
 3950TIP3    H133341   3.895   4.899   3.629  0.4746  0.0815  0.6511
 3950TIP3    H233342   3.840   4.956   3.758 -0.8492 -1.3604  0.7517
 3951TIP3   OH233343   4.638   2.847   2.439  0.5717 -0.3950  0.5098
 3951TIP3    H133344   4.685   2.918   2.483  0.0257  0.2931  0.0144
 3951TIP3    H233345   4.548   2.879   2.431  0.4387 -0.9137 -0.2234
 3952TIP3   OH233346   2.512   0.329   0.954  0.5047  0.4204 -0.0165
 3952TIP3    H133347   2.607   0.335   0.955  0.4475  2.7266 -1.6181
 3952TIP3    H233348   2.484   0.386   1.026  0.2999 -1.2272  1.2658
 3953TIP3   OH233349   2.629   6.398  15.921 -0.3550 -0.1135 -0.3003
 3953TIP3    H133350   2.705   6.456  15.923 -0.3412 -0.1571  0.5504
 3953TIP3    H233351   2.618   6.369  16.011 -0.9942 -0.6171 -0.5329
 3954TIP3   OH233352   5.444   6.718   4.377  0.5484 -0.2288  0.6681
 3954TIP3    H133353   5.460   6.665   4.299  0.0474 -0.8406  0.9615
 3954TIP3    H233354   5.416   6.654   4.443  1.0683  0.2596  1.3796
 3955TIP3   OH233355   3.690   3.043  16.437  0.0153 -0.1458 -0.0351
 3955TIP3    H133356   3.622   3.046  16.369 -0.6320  1.6137  0.6382
 3955TIP3    H233357   3.761   3.096  16.401  1.2432 -2.2432 -0.8761
 3956TIP3   OH233358   6.312   1.116  15.667 -0.4717  0.7006  0.4926
 3956TIP3    H133359   6.345   1.089  15.753  0.1604  1.6797  0.5820
 3956TIP3    H233360   6.237   1.060  15.651  0.8264 -1.1497  0.6101
 3957TIP3   OH233361   5.394   0.898  12.137  0.7566  0.3048 -0.1585
 3957TIP3    H133362   5.476   0.849  12.145  0.5267  0.2300  2.6666
 3957TIP3    H233363   5.421   0.987  12.115  1.3078 -0.4286 -2.8657
 3958TIP3   OH233364   2.128   4.894  11.970  0.1526  0.1751 -0.3656
 3958TIP3    H133365   2.188   4.855  12.033  0.0062 -1.5018 -1.1968
 3958TIP3    H233366   2.090   4.969  12.015  1.1489 -0.1042  0.9818
 3959TIP3   OH233367   0.614   0.971   0.712  0.4568  0.5960 -0.0177
 3959TIP3    H133368   0.596   0.900   0.775 -0.9145 -0.2932 -1.3289
 3959TIP3    H233369   0.658   0.928   0.639 -1.6329  0.7181 -1.4655
 3960TIP3   OH233370   6.344   5.007   5.279  0.0428 -0.6978  0.2082
 3960TIP3    H133371   6.299   4.934   5.237  1.7025 -2.4554  1.2913
 3960TIP3    H233372   6.436   4.996   5.256  0.6532 -0.2962  2.2239
 3961TIP3   OH233373   3.795   2.137  12.780 -0.2149  0.6302  0.2283
 3961TIP3    H133374   3.755   2.217  12.746 -2.0134 -0.9550 -1.6409
 3961TIP3    H233375   3.734   2.106  12.848 -0.4154  0.0110 -0.2198
 3962TIP3   OH233376   0.942   3.291   0.462  0.3357 -0.4147 -0.1912
 3962TIP3    H133377   0.968   3.323   0.376  0.3839  1.0553  0.3466
 3962TIP3    H233378   0.999   3.216   0.478  2.0132  0.7610 -0.4153
 3963TIP3   OH233379   0.578   5.107   4.607 -0.1687 -0.3417  0.3163
 3963TIP3    H133380   0.585   5.052   4.529 -1.0964  0.7096 -0.5363
 3963TIP3    H233381   0.622   5.188   4.583  1.4230 -0.7470  1.6507
 3964TIP3   OH233382   0.262   1.601  16.889 -0.5684  0.0538  0.2894
 3964TIP3    H133383   0.234   1.642  16.971 -0.4033  0.0658  0.3394
 3964TIP3    H233384   0.241   1.509  16.900  1.3265 -0.3118  1.1637
 3965TIP3   OH233385   5.941   4.111  16.951 -0.7092 -0.1927 -0.6698
 3965TIP3    H133386   5.903   4.050  17.014 -2.4769  0.5972 -0.9098
 3965TIP3    H233387   5.957   4.191  17.002 -1.1356  0.0945 -0.9801
 3966TIP3   OH233388   1.306   5.202  10.741  0.2505  0.2246  0.3157
 3966TIP3    H133389   1.347   5.248  10.814  1.4909 -0.4632  0.0861
 3966TIP3    H233390   1.214   5.228  10.745  0.1227 -0.3665  2.5668
 3967TIP3   OH233391   4.962   0.370  12.583 -0.7270  0.6076  0.4171
 3967TIP3    H133392   4.990   0.399  12.497 -0.2617  1.6727  0.9161
 3967TIP3    H233393   5.021   0.414  12.644 -1.4793  0.3964  1.3212
 3968TIP3   OH233394   5.505   4.878   5.687  0.0197 -0.6398 -0.4878
 3968TIP3    H133395   5.520   4.813   5.618 -2.4195 -1.3856 -0.4174
 3968TIP3    H233396   5.414   4.906   5.674  0.4760  1.5432  0.5359
 3969TIP3   OH233397   0.299   3.272  16.804 -1.0065  0.1267 -0.4460
 3969TIP3    H133398   0.348   3.308  16.731 -1.8687  2.8083  0.1869
 3969TIP3    H233399   0.252   3.346  16.841 -0.8334 -1.1443  2.6850
 3970TIP3   OH233400   5.277   6.463  16.660  0.3455 -0.3553 -0.2400
 3970TIP3    H133401   5.196   6.449  16.610  0.0289 -2.8709  0.8317
 3970TIP3    H233402   5.291   6.381  16.707  1.0378  1.5476  3.2271
 3971TIP3   OH233403   1.996   2.785   2.748 -0.1050 -0.1423 -0.0993
 3971TIP3    H133404   1.962   2.759   2.834  1.3039  0.6733  0.7503
 3971TIP3    H233405   1.972   2.878   2.741  3.5051  1.0849  1.4598
 3972TIP3   OH233406   5.284   4.060  12.688  0.3850 -0.7266  0.2833
 3972TIP3    H133407   5.281   4.111  12.607 -0.4191 -0.1371  0.6737
 3972TIP3    H233408   5.378   4.047  12.704  0.5730 -0.2016 -0.3406
 3973TIP3   OH233409   3.434   5.472  14.740 -0.6417 -0.2092 -0.1083
 3973TIP3    H133410   3.467   5.561  14.726  1.6163 -0.8470  0.7177
 3973TIP3    H233411   3.436   5.432  14.653  0.3563 -0.0743 -0.1563
 3974TIP3   OH233412   4.248   2.462   4.779 -0.2014  0.3432 -0.3852
 3974TIP3    H133413   4.337   2.497   4.771  0.0544 -0.3712 -0.7955
 3974TIP3    H233414   4.260   2.377   4.822 -0.4919 -0.5632 -2.0452
 3975TIP3   OH233415   1.711   2.036  16.818  0.3383 -1.0886  0.3018
 3975TIP3    H133416   1.793   2.041  16.868  0.3816 -0.1769  0.1545
 3975TIP3    H233417   1.739   2.027  16.727  0.3100  0.2463  0.1387
 3976TIP3   OH233418   6.055   0.733   2.717 -0.3749 -0.5653 -0.1014
 3976TIP3    H133419   6.005   0.679   2.656  0.4227 -1.4957  0.0550
 3976TIP3    H233420   6.103   0.671   2.771  0.8037  0.2935 -0.1184
 3977TIP3   OH233421   1.077   0.893   0.897  0.3126  0.2069  0.1458
 3977TIP3    H133422   1.131   0.905   0.975  0.3779 -3.3075  0.8250
 3977TIP3    H233423   0.994   0.934   0.919  0.1565 -1.1092  2.3906
 3978TIP3   OH233424   3.163   4.170  16.791 -0.2425 -0.5737 -0.0484
 3978TIP3    H133425   3.105   4.214  16.854  1.1800  0.1342  0.8178
 3978TIP3    H233426   3.239   4.227  16.785  1.2581 -2.4435  0.3645
 3979TIP3   OH233427   5.726   2.180  12.119 -0.6673 -0.1984  0.2133
 3979TIP3    H133428   5.802   2.201  12.065 -2.4704  0.7473 -2.1028
 3979TIP3    H233429   5.688   2.265  12.140 -0.1733 -0.5391  2.9250
 3980TIP3   OH233430   0.235   3.023  14.866 -0.4413  0.6952 -0.1114
 3980TIP3    H133431   0.162   3.085  14.868  0.0349  1.2439  0.3821
 3980TIP3    H233432   0.194   2.938  14.884 -1.6286  0.2735 -3.9088
 3981TIP3   OH233433   4.236   5.862   2.798  0.2561 -0.3013 -0.1877
 3981TIP3    H133434   4.208   5.867   2.707  1.1756 -1.2369 -0.5439
 3981TIP3    H233435   4.191   5.785   2.833  0.3284 -0.2605 -0.0030
 3982TIP3   OH233436   2.730   0.522   6.117 -0.0916  0.6279 -0.9058
 3982TIP3    H133437   2.770   0.609   6.122  1.2312 -0.0089  0.4766
 3982TIP3    H233438   2.738   0.497   6.025  1.3450  1.1614 -0.9436
 3983TIP3   OH233439   1.683   6.425  12.638  0.2529  0.5322 -0.4415
 3983TIP3    H133440   1.731   6.507  12.629  0.4244  0.5860  0.7752
 3983TIP3    H233441   1.619   6.442  12.708  0.0497 -0.2537 -0.4194
 3984TIP3   OH233442   0.302   5.671  15.834  0.1343  0.5626  0.7610
 3984TIP3    H133443   0.385   5.654  15.789 -0.1339  0.5743  0.2488
 3984TIP3    H233444   0.270   5.752  15.793 -1.2273 -0.6294 -0.6761
 3985TIP3   OH233445   2.121   4.099   3.740 -0.2705  0.0322  0.7229
 3985TIP3    H133446   2.086   4.173   3.690 -1.8237 -0.1579  1.4766
 3985TIP3    H233447   2.189   4.063   3.683 -0.2378  1.3564 -0.1378
 3986TIP3   OH233448   0.234   6.163  13.658  0.1388 -0.6241  0.0372
 3986TIP3    H133449   0.231   6.218  13.579  2.2637  0.4176  0.6128
 3986TIP3    H233450   0.164   6.199  13.713  1.7934  1.9852  0.6214
 3987TIP3   OH233451   3.336   4.264   4.603 -0.3564  0.3516  0.0736
 3987TIP3    H133452   3.318   4.356   4.583  0.1212  0.1568 -1.3456
 3987TIP3    H233453   3.402   4.268   4.672  1.4059  1.1473 -1.5484
 3988TIP3   OH233454   2.041   4.455   2.141  0.5670 -0.4684 -0.6614
 3988TIP3    H133455   2.011   4.406   2.218  1.7681 -0.5759 -0.2514
 3988TIP3    H233456   1.961   4.494   2.105  0.0237 -0.1628  0.8244
 3989TIP3   OH233457   5.074   5.570   2.924  0.2134  0.9463 -0.4257
 3989TIP3    H133458   5.004   5.627   2.894 -1.6218 -1.7350 -1.6254
 3989TIP3    H233459   5.153   5.603   2.880 -1.0843  1.5832 -2.3971
 3990TIP3   OH233460   4.272   1.882   2.878 -0.0281  0.3134 -0.4235
 3990TIP3    H133461   4.327   1.863   2.801  2.5317  0.7524  1.1680
 3990TIP3    H233462   4.243   1.796   2.908 -0.2233  0.0653 -1.2779
 3991TIP3   OH233463   6.136   5.393  11.503 -0.7018  0.1292 -0.3275
 3991TIP3    H133464   6.060   5.363  11.455 -1.2426  1.4242 -0.3300
 3991TIP3    H233465   6.198   5.420  11.435 -1.1043  1.0951 -0.3259
 3992TIP3   OH233466   6.018   3.575   5.307 -0.0197 -0.5026  0.1724
 3992TIP3    H133467   6.039   3.486   5.279 -1.4057 -0.8442  0.1523
 3992TIP3    H233468   6.013   3.570   5.402  1.2441 -0.1214  0.2779
 3993TIP3   OH233469   6.676   4.296  14.340  0.2204 -0.1485  0.2553
 3993TIP3    H133470   6.670   4.223  14.279 -1.5473  0.6979 -0.6795
 3993TIP3    H233471   6.765   4.330  14.329  0.5644 -1.2241 -0.3997
 3994TIP3   OH233472   3.713   4.647   5.057 -0.5489 -0.4867  0.3303
 3994TIP3    H133473   3.629   4.644   5.103 -0.6070 -0.8543  0.1993
 3994TIP3    H233474   3.705   4.720   4.996 -0.3133  0.3061  1.2093
 3995TIP3   OH233475   1.328   5.187   3.445 -0.0634 -0.0131 -0.1585
 3995TIP3    H133476   1.393   5.178   3.514 -0.0051 -1.1763 -0.3474
 3995TIP3    H233477   1.299   5.097   3.427 -1.6851  0.4696 -0.1218
 3996TIP3   OH233478   5.124   3.840   4.426 -0.7645 -0.2812  0.0540
 3996TIP3    H133479   5.159   3.899   4.359 -1.8658 -1.1059 -1.3123
 3996TIP3    H233480   5.113   3.756   4.381 -1.6586 -0.8271  1.2342
 3997TIP3   OH233481   5.579   6.796   1.873 -0.3752  0.0434  0.3887
 3997TIP3    H133482   5.584   6.808   1.968  1.0863  1.0307  0.2137
 3997TIP3    H233483   5.670   6.794   1.844 -0.7881 -0.7825 -0.9486
 3998TIP3   OH233484   5.017   3.158  11.672  0.4989 -0.6132  0.7759
 3998TIP3    H133485   5.082   3.110  11.621  0.3458 -1.9307  1.7729
 3998TIP3    H233486   4.943   3.169  11.611  1.5973  0.8659 -0.3512
 3999TIP3   OH233487   1.553   6.369  11.376  0.2071 -0.3177  0.4677
 3999TIP3    H133488   1.573   6.463  11.383 -4.0073  0.9499 -0.9930
 3999TIP3    H233489   1.509   6.348  11.458 -2.7769  0.3764 -0.7945
 4000TIP3   OH233490   5.203   6.468  10.945  0.5568  0.1175 -0.0115
 4000TIP3    H133491   5.196   6.476  11.040 -1.4833 -0.6974 -0.0405
 4000TIP3    H233492   5.206   6.374  10.928  0.2398  0.2315 -0.7758
 4001TIP3   OH233493   5.972   5.459  16.618  0.6264  0.1513  0.3468
 4001TIP3    H133494   5.921   5.447  16.697  1.5952  0.1536  0.9872
 4001TIP3    H233495   6.040   5.391  16.622 -0.9873 -1.7843 -1.9090
 4002TIP3   OH233496   5.945   1.641   2.326 -0.3905  0.4170  0.0714
 4002TIP3    H133497   5.913   1.619   2.414  0.2711  0.3353  0.3057
 4002TIP3    H233498   5.888   1.592   2.267 -1.2498  0.9804  0.4237
 4003TIP3   OH233499   3.497   3.093  15.076 -0.3285  0.5678 -0.1548
 4003TIP3    H133500   3.413   3.136  15.093  0.3770  1.5662  0.9287
 4003TIP3    H233501   3.474   3.017  15.023 -1.8409  1.1879 -0.4458
 4004TIP3   OH233502   0.650   5.324   1.301 -0.3226  0.2336 -0.4604
 4004TIP3    H133503   0.668   5.289   1.389 -3.1172  0.2127  0.2170
 4004TIP3    H233504   0.715   5.283   1.245 -0.1152 -1.8781  1.1855
 4005TIP3   OH233505   3.229   6.466  11.061 -0.7646  0.5994  0.5373
 4005TIP3    H133506   3.205   6.466  10.968  0.0247 -2.9660  0.2120
 4005TIP3    H233507   3.253   6.557  11.079 -0.5156  1.3409 -2.8546
 4006TIP3   OH233508   2.936   4.093  14.945  0.2459  0.2273  0.0393
 4006TIP3    H133509   2.949   4.005  14.910  0.3356  0.5243 -0.6830
 4006TIP3    H233510   2.863   4.128  14.894 -1.4619 -0.2978  1.9610
 4007TIP3   OH233511   0.671   4.903   2.135 -0.3144 -0.3518 -0.2725
 4007TIP3    H133512   0.585   4.874   2.105 -0.1741 -0.3069 -0.7242
 4007TIP3    H233513   0.659   4.996   2.155 -0.2797 -0.2504 -0.7048
 4008TIP3   OH233514   6.704   6.301  14.995 -0.2892 -0.6784  0.6157
 4008TIP3    H133515   6.709   6.213  15.032  0.1246 -0.6055  0.7351
 4008TIP3    H233516   6.617   6.305  14.956 -0.1486 -1.3043  0.2020
 4009TIP3   OH233517   5.833   2.872  15.750  0.0295 -0.4570  0.0810
 4009TIP3    H133518   5.884   2.791  15.754  0.5340 -0.1403  0.2571
 4009TIP3    H233519   5.820   2.888  15.656  0.3164 -0.5081  0.0309
 4010TIP3   OH233520   2.990   2.300   2.514 -0.0325  0.2723 -0.0494
 4010TIP3    H133521   2.900   2.277   2.534  0.1654 -0.6512 -0.1686
 4010TIP3    H233522   3.010   2.374   2.571 -0.6839  0.1227  0.3767
 4011TIP3   OH233523   2.297   0.156   4.614  0.4483 -0.4151 -0.0937
 4011TIP3    H133524   2.274   0.081   4.560 -0.8618 -0.0717 -0.0388
 4011TIP3    H233525   2.389   0.141   4.638  0.7351 -1.1095 -1.5081
 4012TIP3   OH233526   4.997   4.048   3.144 -0.3748 -0.3133 -0.0078
 4012TIP3    H133527   4.915   4.021   3.103 -0.1546 -2.7420  1.0059
 4012TIP3    H233528   4.971   4.082   3.230 -0.3638 -0.6007  0.1095
 4013TIP3   OH233529   0.950   6.065   3.150  0.1684  0.6901 -0.1069
 4013TIP3    H133530   0.860   6.042   3.174 -0.2912  0.6253 -1.7875
 4013TIP3    H233531   1.003   6.033   3.223 -0.8752 -1.9591 -0.4133
 4014TIP3   OH233532   1.352   1.312  15.558 -0.0323  0.7406 -0.5555
 4014TIP3    H133533   1.393   1.370  15.494 -0.0458  0.4217 -0.8589
 4014TIP3    H233534   1.392   1.336  15.642  3.3942 -1.7595 -1.2172
 4015TIP3   OH233535   5.449   4.478  16.921  0.0437  0.3214  0.1013
 4015TIP3    H133536   5.364   4.454  16.884  0.3231  0.4069 -0.6140
 4015TIP3    H233537   5.511   4.423  16.875  0.3924  0.3289  0.5561
 4016TIP3   OH233538   2.573   0.596  12.132  0.0030 -0.0447 -0.3627
 4016TIP3    H133539   2.637   0.665  12.151  0.1366  0.1031 -1.3007
 4016TIP3    H233540   2.613   0.544  12.062  0.5199 -1.9521  1.2675
 4017TIP3   OH233541   4.279   3.694   1.013  0.2090  0.1168 -0.3152
 4017TIP3    H133542   4.342   3.740   0.957 -0.5459  0.0045 -1.3009
 4017TIP3    H233543   4.199   3.690   0.959 -0.2966 -0.7102  0.4778
 4018TIP3   OH233544   4.823   6.362  14.682 -0.3448 -0.2477 -0.1020
 4018TIP3    H133545   4.796   6.312  14.605 -0.7749  1.9795 -1.5202
 4018TIP3    H233546   4.757   6.342  14.749 -1.6172 -0.1314 -1.2677
 4019TIP3   OH233547   1.736   5.320   1.470  0.7320  0.5953  0.5019
 4019TIP3    H133548   1.675   5.248   1.487 -0.0893  1.2947  0.6200
 4019TIP3    H233549   1.784   5.331   1.552  0.8773  0.1649  0.4735
 4020TIP3   OH233550   0.927   1.786  16.628  0.6144  0.0083 -0.4012
 4020TIP3    H133551   1.021   1.768  16.635  0.3238 -2.0878 -1.1961
 4020TIP3    H233552   0.906   1.770  16.536 -1.2728 -4.2726  0.5007
 4021TIP3   OH233553   1.590   1.892   5.065 -0.2754 -0.1765  0.0674
 4021TIP3    H133554   1.498   1.894   5.091 -0.0592 -0.2669  0.8612
 4021TIP3    H233555   1.632   1.955   5.124  0.0718  0.3420 -0.7132
 4022TIP3   OH233556   4.962   2.929   0.251 -1.0197 -0.5203 -0.1403
 4022TIP3    H133557   5.049   2.896   0.272 -0.9473 -0.1590  0.1367
 4022TIP3    H233558   4.955   3.012   0.298 -1.2974 -0.2654 -0.6204
 4023TIP3   OH233559   5.580   5.096   5.458 -0.1380  0.1992  0.5292
 4023TIP3    H133560   5.501   5.081   5.405  0.4083  0.1408 -0.2798
 4023TIP3    H233561   5.624   5.011   5.460  0.8148  0.6504 -0.5234
 4024TIP3   OH233562   6.416   0.288   5.556 -0.7406 -0.3797 -0.0920
 4024TIP3    H133563   6.460   0.327   5.480 -0.3708 -2.0000 -0.7562
 4024TIP3    H233564   6.463   0.322   5.632 -1.3847  1.6143 -0.5207
 4025TIP3   OH233565   1.735   4.874  12.204  0.4305 -0.5251  0.2619
 4025TIP3    H133566   1.825   4.876  12.236  0.6848 -1.4706 -0.3698
 4025TIP3    H233567   1.685   4.834  12.274  0.0788  1.8995  1.5263
 4026TIP3   OH233568   1.110   1.206  15.902 -0.2290 -0.2093  0.4060
 4026TIP3    H133569   1.020   1.228  15.878 -0.8807 -2.0167  1.0561
 4026TIP3    H233570   1.136   1.139  15.839  0.2603 -0.5283  0.9461
 4027TIP3   OH233571   2.765   6.836   5.810  0.8048  0.0537 -0.3050
 4027TIP3    H133572   2.700   6.805   5.873  1.3029 -0.8159 -0.1993
 4027TIP3    H233573   2.774   6.764   5.747  0.2980  0.9114 -1.4048
 4028TIP3   OH233574   0.714   1.618  16.205  0.4574 -0.6372 -0.1847
 4028TIP3    H133575   0.668   1.618  16.289  1.2331 -2.3285  0.2855
 4028TIP3    H233576   0.800   1.656  16.224  1.0913 -2.1427  0.1043
 4029TIP3   OH233577   5.154   2.641  12.441  0.0738  0.3253  0.0864
 4029TIP3    H133578   5.080   2.696  12.419 -0.5245 -0.6479 -0.4019
 4029TIP3    H233579   5.188   2.611  12.356 -2.3893 -3.6460  0.2604
 4030TIP3   OH233580   6.232   3.474  11.266  0.2283  0.4543 -0.3410
 4030TIP3    H133581   6.297   3.461  11.334  0.0114 -1.8860 -0.4975
 4030TIP3    H233582   6.266   3.547  11.214  1.3524  1.0234  1.1056
 4031TIP3   OH233583   1.698   6.031  16.933 -0.5771  0.4122  0.0010
 4031TIP3    H133584   1.725   6.076  16.853 -1.1157 -2.2493 -1.8216
 4031TIP3    H233585   1.759   6.062  17.000  2.1865  0.1834 -2.2369
 4032TIP3   OH233586   2.198   2.853  14.913 -0.3982  0.0603  0.3846
 4032TIP3    H133587   2.148   2.788  14.962  0.5882 -0.1459  1.1438
 4032TIP3    H233588   2.237   2.803  14.841 -0.3418 -0.0032  0.4601
 4033TIP3   OH233589   2.228   3.345  15.179 -0.4368 -0.2413 -0.2285
 4033TIP3    H133590   2.306   3.296  15.207 -0.7827  0.4463  2.1636
 4033TIP3    H233591   2.226   3.421  15.236 -2.4181  0.1952 -0.8260
 4034TIP3   OH233592   3.388   0.078  15.018 -0.0363  0.3827 -0.0471
 4034TIP3    H133593   3.394   0.048  15.109 -0.2869 -1.4468 -0.5988
 4034TIP3    H233594   3.377   0.173  15.025 -0.3495  0.2503  1.8365
 4035TIP3   OH233595   1.755   0.775  14.106 -0.0799 -0.0798 -0.2345
 4035TIP3    H133596   1.682   0.835  14.120  0.7939  0.9774 -0.0616
 4035TIP3    H233597   1.785   0.752  14.194 -1.1669 -1.7714 -0.2635
 4036TIP3   OH233598   3.694   6.628   3.600 -0.2118  0.0405 -0.1085
 4036TIP3    H133599   3.673   6.692   3.532  0.3806  0.9624  0.5528
 4036TIP3    H233600   3.713   6.547   3.552  0.1564  0.6642 -1.0398
 4037TIP3   OH233601   3.646   1.201  16.766 -0.3680  0.1656 -0.1992
 4037TIP3    H133602   3.583   1.272  16.761  1.6715  2.0883  0.0208
 4037TIP3    H233603   3.624   1.145  16.691 -3.1644 -0.0723  0.6743
 4038TIP3   OH233604   6.461   4.987  13.225 -0.0997 -0.2126 -0.7240
 4038TIP3    H133605   6.523   5.054  13.252 -1.5241  0.8347  0.0586
 4038TIP3    H233606   6.381   5.005  13.275 -0.1873 -3.1751  0.3972
 4039TIP3   OH233607   3.714   1.955   1.438 -0.0898  0.3784 -0.7040
 4039TIP3    H133608   3.717   2.047   1.410 -1.9103  0.3165 -1.2373
 4039TIP3    H233609   3.746   1.906   1.362 -0.2720  0.5124 -0.8703
 4040TIP3   OH233610   4.322   5.106  11.692 -0.5361  0.0645  0.0678
 4040TIP3    H133611   4.259   5.078  11.626  0.7958  1.8033 -2.0770
 4040TIP3    H233612   4.388   5.037  11.693 -0.2475  0.3070 -0.9257
 4041TIP3   OH233613   4.766   4.927  11.069  0.0044  0.3588 -0.0551
 4041TIP3    H133614   4.682   4.959  11.037 -1.8131 -0.4078  3.4776
 4041TIP3    H233615   4.797   4.867  11.002 -2.5948  0.1467 -1.1600
 4042TIP3   OH233616   4.041   0.566  14.299 -0.5048 -0.0203 -0.3465
 4042TIP3    H133617   3.950   0.546  14.276 -0.2195 -0.5956 -0.9881
 4042TIP3    H233618   4.093   0.530  14.227  0.2400  0.2696  0.0334
 4043TIP3   OH233619   0.787   1.693  10.484 -0.2754 -0.0202 -0.5072
 4043TIP3    H133620   0.867   1.650  10.517 -0.5645  1.1702  2.0115
 4043TIP3    H233621   0.817   1.745  10.410  1.0286 -0.6608 -0.4668
 4044TIP3   OH233622   4.982   3.977  17.045  0.5972  0.5796  0.5096
 4044TIP3    H133623   5.040   4.045  17.081  1.1106 -0.0663  0.9314
 4044TIP3    H233624   5.042   3.910  17.013  0.0966  0.4213 -0.1166
 4045TIP3   OH233625   3.304   1.678  10.915 -0.2603 -0.1167 -0.3745
 4045TIP3    H133626   3.245   1.750  10.893 -1.2071 -1.0707 -1.0926
 4045TIP3    H233627   3.375   1.685  10.851 -0.5552 -0.0651 -0.6977
 4046TIP3   OH233628   2.861   1.013  15.770  0.6179 -0.2011  0.2077
 4046TIP3    H133629   2.775   1.049  15.792  0.6498  1.1324 -1.6696
 4046TIP3    H233630   2.894   1.068  15.699  1.7076 -2.5442 -1.2445
 4047TIP3   OH233631   2.287   5.651   1.156 -0.1834 -0.4426 -0.5826
 4047TIP3    H133632   2.351   5.711   1.195 -0.5204 -0.0596 -0.6119
 4047TIP3    H233633   2.335   5.610   1.084  0.3973 -1.0560  0.1361
 4048TIP3   OH233634   1.955   5.786  14.557 -0.1286  0.1991  0.2113
 4048TIP3    H133635   1.897   5.710  14.551 -1.5437  1.2286  0.2114
 4048TIP3    H233636   1.950   5.827  14.470 -0.5911  1.1222  0.6575
 4049TIP3   OH233637   1.611   2.322  12.398  0.4008 -0.6589  0.1917
 4049TIP3    H133638   1.577   2.354  12.482 -1.1647  1.3581 -1.1018
 4049TIP3    H233639   1.706   2.333  12.405  0.1377  4.2635  0.1089
 4050TIP3   OH233640   0.622   2.709   1.881  0.1616  0.3690 -0.1490
 4050TIP3    H133641   0.688   2.642   1.867 -0.0163  0.0433  0.5403
 4050TIP3    H233642   0.609   2.712   1.976 -0.3578  0.8661 -0.2253
 4051TIP3   OH233643   3.394   6.079  11.677 -0.2082 -0.6286  0.1285
 4051TIP3    H133644   3.425   5.991  11.657 -0.6304 -0.8582  0.4737
 4051TIP3    H233645   3.302   6.079  11.652 -0.3963 -0.5068  0.7913
 4052TIP3   OH233646   5.992   4.319   2.363 -0.5918  0.3171  0.0446
 4052TIP3    H133647   5.916   4.366   2.398 -0.4858 -0.1929  1.0130
 4052TIP3    H233648   5.958   4.234   2.336 -0.6745  0.7203 -1.1487
 4053TIP3   OH233649   3.612   1.998  11.843  0.2823 -0.6332 -0.2850
 4053TIP3    H133650   3.701   1.997  11.810  0.7620 -1.1992  0.9661
 4053TIP3    H233651   3.612   1.934  11.914 -1.4145 -1.5274 -1.0227
 4054TIP3   OH233652   5.910   2.075   3.114  1.0828 -0.1859 -0.2801
 4054TIP3    H133653   5.915   2.164   3.079  2.2403 -0.3303 -0.4908
 4054TIP3    H233654   5.862   2.085   3.197 -1.9877  0.1196 -1.9343
 4055TIP3   OH233655   1.415   4.180   5.049  0.1509  0.2354  0.1191
 4055TIP3    H133656   1.421   4.108   4.986  1.2660 -0.6003  1.1259
 4055TIP3    H233657   1.392   4.257   4.997 -3.7942 -1.2410 -0.7299
 4056TIP3   OH233658   6.817   5.622  15.288  0.1002  0.2899 -0.0433
 4056TIP3    H133659   6.793   5.704  15.331  0.1768  0.9229 -1.1715
 4056TIP3    H233660   6.815   5.557  15.358 -0.7598  1.0979  0.7183
 4057TIP3   OH233661   1.343   0.054   4.374 -0.0329 -0.2198 -0.6162
 4057TIP3    H133662   1.263   0.002   4.365 -1.4703  0.9944  3.1801
 4057TIP3    H233663   1.331   0.128   4.315 -2.1768  0.3757  0.4880
 4058TIP3   OH233664   3.727   2.784  12.599  0.0812  0.3927  0.1860
 4058TIP3    H133665   3.723   2.794  12.504  2.3772  2.3536  0.2084
 4058TIP3    H233666   3.785   2.709  12.613  1.6156  1.4872 -0.0285
 4059TIP3   OH233667   5.292   6.196   5.861  0.0322  0.3457 -0.7757
 4059TIP3    H133668   5.345   6.240   5.927  1.0724  0.2711 -1.5405
 4059TIP3    H233669   5.280   6.107   5.895 -0.2264  0.5673 -0.2662
 4060TIP3   OH233670   0.041   4.507   0.676 -0.2941 -1.1439  0.1409
 4060TIP3    H133671   0.005   4.427   0.638 -3.0804 -0.4953  1.1817
 4060TIP3    H233672  -0.032   4.547   0.723  0.6300  2.6070 -1.2091
 4061TIP3   OH233673   3.901   3.073   4.381 -0.0702  0.4401  0.0098
 4061TIP3    H133674   3.938   3.019   4.312 -3.1875 -0.7478 -0.8839
 4061TIP3    H233675   3.976   3.097   4.435  2.0174 -1.3146 -1.9084
 4062TIP3   OH233676   6.555   0.738  11.057 -0.2661  0.1131 -0.6748
 4062TIP3    H133677   6.591   0.815  11.014 -2.0686  0.4432 -1.6682
 4062TIP3    H233678   6.575   0.665  10.999 -0.5146  0.1762 -0.8397
 4063TIP3   OH233679   5.751   3.315  16.406 -0.2633  0.1261  0.0880
 4063TIP3    H133680   5.754   3.268  16.490  1.2329  0.4257  0.2334
 4063TIP3    H233681   5.764   3.407  16.430 -1.0153  0.3686 -0.3886
 4064TIP3   OH233682   0.908   5.414  16.194  0.2848  0.0569  0.2700
 4064TIP3    H133683   0.864   5.465  16.125 -0.9581 -1.7535 -0.3429
 4064TIP3    H233684   0.903   5.470  16.272 -0.8887  0.9315 -0.3951
 4065TIP3   OH233685   3.460   5.363   6.337 -0.5230  0.3335  0.3036
 4065TIP3    H133686   3.390   5.371   6.272 -0.1636 -1.1935 -0.3192
 4065TIP3    H233687   3.425   5.303   6.403  0.4341 -1.0814 -0.4194
 4066TIP3   OH233688   1.618   3.704   1.580 -0.0745 -0.2689 -0.0870
 4066TIP3    H133689   1.611   3.722   1.674 -0.7849  1.3299 -0.4058
 4066TIP3    H233690   1.530   3.681   1.552 -0.3573  1.4530 -0.7343
 4067TIP3   OH233691   0.710   6.262  11.408 -0.0323  0.3395  0.1986
 4067TIP3    H133692   0.626   6.232  11.372 -1.0587  1.1980  1.7471
 4067TIP3    H233693   0.701   6.358  11.412  1.6906  0.5976 -1.1443
 4068TIP3   OH233694   4.214   5.704   2.176  0.1445  0.5484  0.0154
 4068TIP3    H133695   4.215   5.788   2.222 -0.6518  1.4086 -1.4647
 4068TIP3    H233696   4.242   5.725   2.086 -0.2106 -0.7464 -0.4268
 4069TIP3   OH233697   4.518   5.594  11.780 -0.0988 -0.1188  0.3658
 4069TIP3    H133698   4.599   5.614  11.734  0.0509 -1.4648  0.0202
 4069TIP3    H233699   4.503   5.502  11.764 -1.7584  0.1302  0.3590
 4070TIP3   OH233700   5.394   2.585  10.423 -0.7450  0.0157 -0.4231
 4070TIP3    H133701   5.404   2.655  10.359  0.8071  1.3234  1.1256
 4070TIP3    H233702   5.452   2.515  10.392 -1.3888 -0.1240 -1.3528
 4071TIP3   OH233703   5.228   2.756   1.580  0.3320  0.5746 -0.2077
 4071TIP3    H133704   5.137   2.785   1.573  0.5202  1.7297  1.4572
 4071TIP3    H233705   5.222   2.661   1.588 -0.8101  0.6847  0.6556
 4072TIP3   OH233706   5.441   4.287   0.580  0.0154  0.1280 -0.3025
 4072TIP3    H133707   5.380   4.361   0.577 -0.5592 -0.2419  1.2375
 4072TIP3    H233708   5.396   4.217   0.532 -1.2736 -0.4555  1.6500
 4073TIP3   OH233709   4.122   5.356  16.538  0.6896 -0.3447 -0.2156
 4073TIP3    H133710   4.140   5.422  16.606  0.4331  2.2854 -2.5233
 4073TIP3    H233711   4.043   5.387  16.495 -0.9943 -3.6523  0.1697
 4074TIP3   OH233712   6.470   0.245   2.473  0.1108  0.4234 -0.2617
 4074TIP3    H133713   6.427   0.285   2.549 -0.0717 -1.7456  0.8913
 4074TIP3    H233714   6.563   0.267   2.484  0.3179 -1.0374  1.4863
 4075TIP3   OH233715   6.357   0.226   1.660 -0.0121 -0.2240  0.5646
 4075TIP3    H133716   6.440   0.273   1.646 -0.5639  1.7254  2.9563
 4075TIP3    H233717   6.308   0.283   1.719 -3.4825 -0.8843 -1.4260
 4076TIP3   OH233718   5.156   3.025  16.803  0.3975  0.8120  0.5178
 4076TIP3    H133719   5.183   2.947  16.754  2.4038  1.2948  0.7377
 4076TIP3    H233720   5.148   3.093  16.736  0.4259  0.8267  0.5291
 4077TIP3   OH233721   5.454   1.080  12.543  0.1062  0.2960  0.3477
 4077TIP3    H133722   5.469   1.125  12.460  1.1763 -0.7204 -0.0351
 4077TIP3    H233723   5.537   1.088  12.590  0.3084 -1.1694  0.2994
 4078TIP3   OH233724   2.391   5.968  13.733 -0.7716 -0.4998  0.0138
 4078TIP3    H133725   2.301   5.997  13.716 -1.5032 -0.0252  3.8608
 4078TIP3    H233726   2.444   6.046  13.717 -1.4527  0.0738  0.4816
 4079TIP3   OH233727   1.980   0.094  11.188 -0.0256  0.5034 -0.1168
 4079TIP3    H133728   1.982   0.123  11.096  0.5173 -0.5164 -0.4378
 4079TIP3    H233729   2.045   0.024  11.193  0.1944  0.7746  1.1346
 4080TIP3   OH233730   4.737   1.465   0.174  0.2027  0.4012 -0.7083
 4080TIP3    H133731   4.662   1.504   0.130  0.3215 -0.6163 -1.8653
 4080TIP3    H233732   4.808   1.527   0.160 -0.1066  0.7533 -0.7193
 4081TIP3   OH233733   2.231   3.770  14.291 -0.3881  0.1410  0.4150
 4081TIP3    H133734   2.282   3.846  14.265  0.1017  0.6302  2.6068
 4081TIP3    H233735   2.186   3.743  14.211 -0.1995  2.4146 -0.5407
 4082TIP3   OH233736   0.698   5.082  15.200 -0.2264 -0.2406 -0.3267
 4082TIP3    H133737   0.743   5.108  15.280  0.9708  1.0965 -1.3657
 4082TIP3    H233738   0.763   5.096  15.131 -1.0612 -1.8164 -1.4914
 4083TIP3   OH233739   4.470   4.421   2.446  0.6016 -0.1746  0.1100
 4083TIP3    H133740   4.479   4.393   2.355 -0.9607 -1.4079  0.2989
 4083TIP3    H233741   4.509   4.350   2.497  0.1664 -0.1701  0.4535
 4084TIP3   OH233742   0.925   1.247   2.688 -0.3316 -0.5491  0.0206
 4084TIP3    H133743   0.829   1.247   2.681 -0.2863  0.4933 -0.7624
 4084TIP3    H233744   0.942   1.215   2.777 -1.4212 -0.1253  0.4007
 4085TIP3   OH233745   0.885   4.548   2.794 -0.1877  0.0429  0.6176
 4085TIP3    H133746   0.857   4.487   2.725 -1.5975 -0.5012  1.6314
 4085TIP3    H233747   0.828   4.624   2.783 -0.5209 -0.1051  1.2426
 4086TIP3   OH233748   1.467   4.084   5.291  0.1075 -0.0510 -0.2753
 4086TIP3    H133749   1.436   4.152   5.351  0.2574  0.6743 -1.0012
 4086TIP3    H233750   1.461   4.124   5.204 -2.3386 -1.8711 -1.0494
 4087TIP3   OH233751   0.740   5.382  15.837 -0.2483  0.3254 -0.4324
 4087TIP3    H133752   0.668   5.335  15.880  1.0051 -0.5114  0.8236
 4087TIP3    H233753   0.760   5.455  15.895  0.4968  0.0369 -0.3156
 4088TIP3   OH233754   3.352   3.317  14.234 -0.1375 -1.2987 -0.3164
 4088TIP3    H133755   3.263   3.352  14.238 -0.3142 -1.8292  0.7195
 4088TIP3    H233756   3.350   3.255  14.162 -0.4888 -0.9963 -0.5704
 4089TIP3   OH233757   1.885   0.319  15.966  0.1128 -0.1493  0.3983
 4089TIP3    H133758   1.876   0.346  16.058  0.2016 -1.6753  0.8896
 4089TIP3    H233759   1.821   0.373  15.919  2.2822  3.0510  0.7600
 4090TIP3   OH233760   6.115   3.359  11.556 -0.2829  0.0580  0.3092
 4090TIP3    H133761   6.135   3.452  11.559 -1.0615  0.2068  1.8687
 4090TIP3    H233762   6.194   3.316  11.588 -0.0636  0.2079 -0.0293
 4091TIP3   OH233763   4.593   6.347  12.140  0.2856 -0.1083  0.0604
 4091TIP3    H133764   4.630   6.301  12.064  0.9898  0.3333  0.1317
 4091TIP3    H233765   4.652   6.420  12.155 -0.4608  0.4504  0.3601
 4092TIP3   OH233766   0.946   0.631   6.801  0.1882 -0.0182 -0.0283
 4092TIP3    H133767   0.912   0.678   6.724 -1.5673 -0.4992  0.3972
 4092TIP3    H233768   1.040   0.647   6.799 -0.1598  2.4138 -0.6405
 4093TIP3   OH233769   2.974   1.850   3.501 -0.2566 -0.4930  0.5285
 4093TIP3    H133770   2.909   1.907   3.543 -0.2445 -1.5325  2.0451
 4093TIP3    H233771   3.007   1.902   3.428 -3.8628 -0.4533 -1.3219
 4094TIP3   OH233772   0.742   3.093  15.835 -0.1444  0.1959  0.3644
 4094TIP3    H133773   0.713   3.094  15.744 -0.9991  0.2080  0.6246
 4094TIP3    H233774   0.661   3.096  15.886  0.2215 -1.7808  1.1450
 4095TIP3   OH233775   3.897   5.664   3.679  0.0768 -0.1779 -0.0075
 4095TIP3    H133776   3.880   5.689   3.588  0.3719 -0.4825 -0.1461
 4095TIP3    H233777   3.863   5.575   3.686  2.1375 -1.0681 -0.4738
 4096TIP3   OH233778   5.993   0.146   4.823 -1.0433 -0.2318  0.6907
 4096TIP3    H133779   6.015   0.116   4.735 -0.4578  2.3420 -0.1281
 4096TIP3    H233780   6.077   0.162   4.865 -1.2730  2.1637  0.3329
 4097TIP3   OH233781   2.445   2.391   6.491 -0.3436  0.4793 -0.2113
 4097TIP3    H133782   2.408   2.394   6.403  1.5362 -0.5386 -1.1014
 4097TIP3    H233783   2.500   2.469   6.496  1.6843 -0.8125 -1.0252
 4098TIP3   OH233784   0.485   2.963   3.202  0.1203  0.2833  0.3761
 4098TIP3    H133785   0.540   3.030   3.161  2.3877  1.1811  4.3277
 4098TIP3    H233786   0.432   3.011   3.265 -2.2779 -1.1339 -0.4345
 4099TIP3   OH233787   4.133   6.769   4.254  1.0850 -0.2207 -0.3175
 4099TIP3    H133788   4.198   6.817   4.306  2.5324 -1.4833 -0.8896
 4099TIP3    H233789   4.069   6.739   4.318  1.1137  0.9366  0.2862
 4100TIP3   OH233790   2.426   5.302  14.287 -0.0471 -0.3794  0.6845
 4100TIP3    H133791   2.400   5.392  14.305 -0.4648 -0.4623  0.5075
 4100TIP3    H233792   2.513   5.294  14.326  1.6648  1.1799 -2.4196
 4101TIP3   OH233793   5.304   0.370   1.960  0.3173 -0.1383  0.3392
 4101TIP3    H133794   5.330   0.283   1.929  1.9369 -0.1851  1.6613
 4101TIP3    H233795   5.386   0.409   1.991  0.0695  2.7513 -2.2046
 4102TIP3   OH233796   1.298   1.426  13.769 -0.1439  0.0466  0.6956
 4102TIP3    H133797   1.329   1.499  13.716 -0.4791 -0.4084 -0.1376
 4102TIP3    H233798   1.251   1.369  13.708 -1.6044  0.1137  1.6833
 4103TIP3   OH233799   1.624   3.084  16.544 -0.2769 -0.0401  0.3732
 4103TIP3    H133800   1.584   3.009  16.589 -1.3393  0.0602 -0.3719
 4103TIP3    H233801   1.713   3.088  16.579  0.0480 -2.1002 -0.0786
 4104TIP3   OH233802   0.490   4.185   1.363 -0.0954 -0.8094 -0.4791
 4104TIP3    H133803   0.483   4.173   1.268 -0.8426 -1.7582 -0.3294
 4104TIP3    H233804   0.581   4.165   1.383 -0.6372 -3.9992 -0.6193
 4105TIP3   OH233805   0.616   2.335  12.673 -0.5480 -0.1173 -0.3861
 4105TIP3    H133806   0.555   2.314  12.602  0.2006  0.4820 -1.2471
 4105TIP3    H233807   0.690   2.376  12.628 -0.3718  0.9562  0.8330
 4106TIP3   OH233808   6.826   2.106   2.477  0.0585  0.0914  0.3623
 4106TIP3    H133809   6.778   2.025   2.491  1.4215 -0.7766  0.2493
 4106TIP3    H233810   6.864   2.096   2.389  1.1349  0.3644  0.7829
 4107TIP3   OH233811   4.118   4.011   3.357 -0.2771  0.2574  0.2170
 4107TIP3    H133812   4.188   3.968   3.405  0.1801  0.3170 -0.3832
 4107TIP3    H233813   4.163   4.063   3.290 -0.8941  0.1679 -0.2816
 4108TIP3   OH233814   5.447   3.482   2.238  0.2153  0.0357  0.3146
 4108TIP3    H133815   5.398   3.432   2.303  0.7141  0.0450  0.7038
 4108TIP3    H233816   5.516   3.422   2.209  0.2527  0.1807  0.1005
 4109TIP3   OH233817   2.594   6.174   1.303 -0.2063  0.2207  0.7677
 4109TIP3    H133818   2.569   6.260   1.334  1.6238  0.2960  2.2291
 4109TIP3    H233819   2.575   6.175   1.209 -1.7604  1.5827  1.0626
 4110TIP3   OH233820   1.270   5.829   4.642 -0.5752  0.5327 -0.2248
 4110TIP3    H133821   1.330   5.902   4.654 -1.3454  1.1937 -0.2917
 4110TIP3    H233822   1.325   5.751   4.647  0.0874  1.0500  1.1553
 4111TIP3   OH233823   1.571   0.032  12.624 -0.5662 -0.2074  0.4312
 4111TIP3    H133824   1.574  -0.048  12.571 -1.1540 -0.9100  1.4216
 4111TIP3    H233825   1.651   0.079  12.601  0.4241 -1.6672  0.7365
 4112TIP3   OH233826   3.874   3.388  11.308 -0.4578  0.1362  0.3805
 4112TIP3    H133827   3.862   3.301  11.270  0.6894  0.2926 -0.3772
 4112TIP3    H233828   3.812   3.444  11.260 -0.4937 -0.0770  0.1768
 4113TIP3   OH233829   4.733   0.138   2.148  0.0821  0.4630 -0.1653
 4113TIP3    H133830   4.817   0.172   2.116 -0.5395 -0.6746 -3.2596
 4113TIP3    H233831   4.669   0.165   2.082 -0.6930 -5.3796 -2.3626
 4114TIP3   OH233832   3.364   5.455  15.003  0.5099 -0.3776 -0.4309
 4114TIP3    H133833   3.339   5.374  15.048  0.2456 -0.7029 -1.1320
 4114TIP3    H233834   3.393   5.425  14.916 -2.4861  0.4709 -1.8588
 4115TIP3   OH233835   3.467   6.824  11.640  0.5875  0.7808 -0.1505
 4115TIP3    H133836   3.404   6.861  11.578  0.7443  2.6540  0.7295
 4115TIP3    H233837   3.413   6.775  11.702 -0.1458  2.7754  0.8804
 4116TIP3   OH233838   6.380   2.703   2.954 -0.2704  0.0108  0.0432
 4116TIP3    H133839   6.294   2.671   2.984 -0.9362  1.8873  0.2710
 4116TIP3    H233840   6.436   2.695   3.031  0.3139 -2.8490 -0.5606
 4117TIP3   OH233841   0.166   1.612  15.009  0.0790  0.4064  0.3619
 4117TIP3    H133842   0.120   1.552  15.068  0.9104 -0.8459 -0.2055
 4117TIP3    H233843   0.107   1.687  14.999 -0.6508  0.0379  1.7173
 4118TIP3   OH233844   4.364   1.195   0.953 -0.2279  0.2542 -0.1189
 4118TIP3    H133845   4.349   1.168   1.044 -1.4525 -0.9350 -0.6424
 4118TIP3    H233846   4.359   1.113   0.903 -2.6801  1.2225 -1.6256
 4119TIP3   OH233847   1.914   5.976  12.644  0.0488  0.5461  0.6442
 4119TIP3    H133848   1.860   6.017  12.712  0.9024  1.6179  0.7132
 4119TIP3    H233849   1.958   5.904  12.688 -0.6902  0.1655  0.7849
 4120TIP3   OH233850   6.835   1.225  13.008 -0.3274  0.4357  0.1703
 4120TIP3    H133851   6.891   1.298  13.035 -0.1241  0.6630 -0.8242
 4120TIP3    H233852   6.881   1.147  13.039 -0.6503  0.7154  1.4320
 4121TIP3   OH233853   0.442   1.887   0.466  0.2167 -0.2779 -0.0876
 4121TIP3    H133854   0.517   1.921   0.516 -0.8919  0.2088  1.3345
 4121TIP3    H233855   0.457   1.916   0.376  0.7786  1.5154  0.5483
 4122TIP3   OH233856   0.968   2.319   1.416  0.2522  0.9451 -0.1707
 4122TIP3    H133857   1.059   2.313   1.444  0.1727  1.0264  0.1067
 4122TIP3    H233858   0.919   2.267   1.481  0.0736  1.0952 -0.1840
 4123TIP3   OH233859   4.803   5.148   1.636  0.3692  0.4809 -0.1542
 4123TIP3    H133860   4.736   5.089   1.602  0.2677 -0.1786  1.1436
 4123TIP3    H233861   4.755   5.228   1.658  0.7497  1.7697 -3.4332
 4124TIP3   OH233862   0.125   4.380   1.452  0.2358 -0.2777 -0.2508
 4124TIP3    H133863   0.140   4.305   1.394  0.4946  1.1888 -2.1748
 4124TIP3    H233864   0.145   4.456   1.398 -0.5417  1.2204  1.4811
 4125TIP3   OH233865   3.363   1.580  11.889 -0.3094  0.3564  0.1362
 4125TIP3    H133866   3.281   1.621  11.914  0.4280  0.7535  2.0556
 4125TIP3    H233867   3.419   1.652  11.862  0.5230  0.5383  2.1769
 4126TIP3   OH233868   4.682   5.486   4.947  0.0826 -0.2636  0.3142
 4126TIP3    H133869   4.628   5.555   4.987  1.2079 -0.6860  2.7619
 4126TIP3    H233870   4.622   5.439   4.890 -1.4273  1.0050  0.7647
 4127TIP3   OH233871   4.490   0.830  11.186  0.4395 -0.0627  0.4092
 4127TIP3    H133872   4.560   0.837  11.250 -0.1834  2.2929  0.9322
 4127TIP3    H233873   4.490   0.914  11.141 -0.9288 -0.6463 -0.7773
 4128TIP3   OH233874   4.225   0.748  11.514 -0.3445  0.1416  0.1510
 4128TIP3    H133875   4.296   0.726  11.575  0.4654 -0.0091 -0.8187
 4128TIP3    H233876   4.198   0.837  11.539 -0.6057 -0.2436  1.2599
 4129TIP3   OH233877   2.856   2.707  10.530  0.4248 -0.1804  0.4970
 4129TIP3    H133878   2.878   2.798  10.508  3.8434 -0.8061  0.7936
 4129TIP3    H233879   2.903   2.655  10.465 -2.3472 -1.8388 -0.3597
 4130TIP3   OH233880   1.120   4.095  13.192  0.3085  0.0475 -0.2200
 4130TIP3    H133881   1.051   4.056  13.246 -0.5573  0.1845 -1.1860
 4130TIP3    H233882   1.200   4.084  13.243 -0.3705 -0.4405  0.7728
 4131TIP3   OH233883   5.969   5.798  16.710 -0.7013  0.1110 -0.3497
 4131TIP3    H133884   6.049   5.789  16.761 -0.7702 -1.5693 -0.4861
 4131TIP3    H233885   5.906   5.838  16.771 -0.5709 -1.1779  0.6685
 4132TIP3   OH233886   2.360   1.264  15.341  0.4384  0.0456 -0.3866
 4132TIP3    H133887   2.341   1.187  15.396 -0.8911  1.6001  1.4650
 4132TIP3    H233888   2.443   1.298  15.375 -0.0256  0.6002  0.2111
 4133TIP3   OH233889   1.663   5.206   3.973 -0.2620  0.0709 -0.1634
 4133TIP3    H133890   1.739   5.263   3.968 -0.4664  0.5119  1.3308
 4133TIP3    H233891   1.663   5.173   4.063  0.3980 -3.0667 -1.1804
 4134TIP3   OH233892   4.218   5.133   4.038  0.3002  0.3270 -0.1412
 4134TIP3    H133893   4.229   5.106   4.129  2.6703 -0.1261 -0.5106
 4134TIP3    H233894   4.272   5.211   4.029 -0.2257  0.5989 -1.0714
 4135TIP3   OH233895   0.446   3.397  16.620 -0.3629 -0.1240 -0.0136
 4135TIP3    H133896   0.541   3.398  16.608 -0.4508 -0.2084 -0.7138
 4135TIP3    H233897   0.419   3.488  16.611 -0.4145 -0.1724 -0.3621
 4136TIP3   OH233898   0.543   3.527   3.917 -0.5265  0.3302 -0.1874
 4136TIP3    H133899   0.551   3.433   3.936  0.0310  0.5542  0.7646
 4136TIP3    H233900   0.613   3.544   3.854 -0.3481  0.1850 -0.0328
 4137TIP3   OH233901   3.136   6.719  13.847  0.0953  0.0080 -0.4023
 4137TIP3    H133902   3.066   6.684  13.793 -0.2505 -0.8247  0.5416
 4137TIP3    H233903   3.124   6.814  13.844 -1.3902 -0.1310  0.1072
 4138TIP3   OH233904   1.307   1.067   0.074  0.0683 -0.3943  0.3581
 4138TIP3    H133905   1.368   1.074   0.001  0.4431  1.8091  0.8046
 4138TIP3    H233906   1.352   1.009   0.137  0.5516 -0.8270 -0.3716
 4139TIP3   OH233907   1.847   6.671   4.826 -0.2774 -0.3332  0.7140
 4139TIP3    H133908   1.888   6.675   4.912  0.7748  1.0105  0.1864
 4139TIP3    H233909   1.877   6.750   4.781 -1.5928 -0.4988 -0.5444
 4140TIP3   OH233910   4.111   0.177  10.955  0.1995 -0.5762  0.6435
 4140TIP3    H133911   4.071   0.099  10.993 -0.9415 -0.0500  0.5421
 4140TIP3    H233912   4.132   0.233  11.030  1.6314 -1.2356  0.7714
 4141TIP3   OH233913   0.274   5.060  14.382  0.1918  0.2135  0.3873
 4141TIP3    H133914   0.309   4.987  14.433  0.4784 -0.3807 -0.6376
 4141TIP3    H233915   0.275   5.134  14.443 -0.7782 -0.7734  1.6906
 4142TIP3   OH233916   1.028   3.809  11.925 -0.1368  0.2078 -0.1526
 4142TIP3    H133917   0.952   3.775  11.878  0.4197 -0.8501 -0.3340
 4142TIP3    H233918   1.102   3.760  11.889  0.9514  2.6816 -1.5113
 4143TIP3   OH233919   3.767   3.184   3.510  0.0511 -0.2293 -0.1660
 4143TIP3    H133920   3.778   3.219   3.599 -1.0938 -0.8885  0.2579
 4143TIP3    H233921   3.784   3.090   3.519 -2.3756 -0.7298 -0.1121
 4144TIP3   OH233922   1.922   3.285  10.607  0.2999 -0.0496  0.1282
 4144TIP3    H133923   1.836   3.297  10.566  0.8479 -0.2489 -1.1333
 4144TIP3    H233924   1.980   3.263  10.534  1.4399  0.1525  0.9515
 4145TIP3   OH233925   2.279   4.792   2.572 -0.6741  0.2078  0.3100
 4145TIP3    H133926   2.269   4.738   2.494  0.5021  0.1355  0.1827
 4145TIP3    H233927   2.306   4.730   2.640  1.5833  0.6804 -0.0497
 4146TIP3   OH233928   3.514   1.335  12.825  0.0060  1.1339  0.4653
 4146TIP3    H133929   3.434   1.348  12.876 -2.0352 -2.1053 -1.6019
 4146TIP3    H233930   3.508   1.399  12.754 -0.7879  0.8500  0.2743
 4147TIP3   OH233931   4.387   2.032   4.223 -0.5113 -0.0606  0.6766
 4147TIP3    H133932   4.316   1.985   4.266  0.2782 -0.5316  1.5179
 4147TIP3    H233933   4.384   2.002   4.132 -0.5077 -1.1695  1.0248
 4148TIP3   OH233934   0.935   5.622  16.909 -0.1762  0.3284  0.5347
 4148TIP3    H133935   0.979   5.693  16.861  0.0189 -0.6428 -0.7760
 4148TIP3    H233936   0.861   5.598  16.853 -1.1788  0.5494  1.7329
 4149TIP3   OH233937   2.567   3.776  13.548  0.3779  0.4586  0.1059
 4149TIP3    H133938   2.633   3.846  13.553  0.4763  0.3812 -0.0907
 4149TIP3    H233939   2.521   3.780  13.632  0.4899  0.6549  0.1580
 4150TIP3   OH233940   4.308   3.188   3.686 -0.1537  0.5022  0.1685
 4150TIP3    H133941   4.230   3.153   3.644 -0.2455 -0.3300  0.9919
 4150TIP3    H233942   4.299   3.162   3.778  1.3269 -0.0790  0.1813
 4151TIP3   OH233943   6.494   0.163   3.789  0.3981  1.1216  0.1909
 4151TIP3    H133944   6.508   0.079   3.833  0.4460  0.8537 -0.3238
 4151TIP3    H233945   6.441   0.141   3.712 -0.7532  1.7597  0.7756
 4152TIP3   OH233946   5.622   1.781   5.371 -0.3495  0.0872 -0.3417
 4152TIP3    H133947   5.556   1.847   5.395  0.4585  0.5304  0.7475
 4152TIP3    H233948   5.702   1.831   5.355 -0.1123 -0.5002 -1.0563
 4153TIP3   OH233949   5.531   3.728  11.202 -0.1426 -0.1375 -0.1402
 4153TIP3    H133950   5.501   3.796  11.141  0.7548 -0.4586 -0.9751
 4153TIP3    H233951   5.480   3.743  11.282  0.2273  1.7116 -0.1920
 4154TIP3   OH233952   1.910   3.981   4.656  0.1965 -0.2038 -0.1046
 4154TIP3    H133953   1.984   3.971   4.597  0.1300  0.1288 -0.2454
 4154TIP3    H233954   1.943   3.953   4.741  0.7226  0.7400  0.0031
 4155TIP3   OH233955   3.553   0.155   4.031 -0.5286 -0.4637 -0.1725
 4155TIP3    H133956   3.483   0.175   3.968 -1.7476  1.4279  1.6503
 4155TIP3    H233957   3.632   0.191   3.990 -1.1204 -0.0744 -1.0135
 4156TIP3   OH233958   2.677   1.047   4.217  0.1799 -0.5505  0.2378
 4156TIP3    H133959   2.663   1.019   4.307  0.0525  0.3172  0.4954
 4156TIP3    H233960   2.727   1.128   4.225  0.4498 -0.6403 -0.4862
 4157TIP3   OH233961   3.527   6.582   4.045  0.1280  0.5972 -0.3003
 4157TIP3    H133962   3.610   6.625   4.022 -0.1660  1.7378  0.6598
 4157TIP3    H233963   3.472   6.592   3.967  0.1654  1.7247 -0.1900
 4158TIP3   OH233964   0.295   2.701  16.960 -0.1034  0.0661 -0.0623
 4158TIP3    H133965   0.295   2.754  17.040 -1.3552 -0.2831  0.1941
 4158TIP3    H233966   0.233   2.630  16.978  0.8187 -0.9513 -0.7526
 4159TIP3   OH233967   2.769   2.454  12.207  0.0966 -0.1476 -0.4997
 4159TIP3    H133968   2.822   2.435  12.129  1.6296 -0.9532  0.6881
 4159TIP3    H233969   2.823   2.514  12.258 -1.1362  0.8179 -0.2876
 4160TIP3   OH233970   5.053   0.428  12.325 -0.4492 -0.4589  0.2598
 4160TIP3    H133971   5.131   0.375  12.309 -1.1109 -1.2976 -0.2784
 4160TIP3    H233972   5.060   0.501  12.264 -0.9513 -1.4914 -1.0914
 4161TIP3   OH233973   5.367   3.345  12.387 -0.2438 -0.0472 -0.0860
 4161TIP3    H133974   5.364   3.255  12.353  1.1981  0.3338 -1.3564
 4161TIP3    H233975   5.359   3.400  12.309  0.4158  0.9093  0.4997
 4162TIP3   OH233976   6.019   3.226  17.114 -0.0887  0.0703 -0.4031
 4162TIP3    H133977   6.103   3.268  17.130  1.4511 -2.8222 -0.1464
 4162TIP3    H233978   5.966   3.248  17.191  1.4625 -0.3077  0.8164
 4163TIP3   OH233979   5.084   0.119  12.662  0.1092  0.5971  0.3000
 4163TIP3    H133980   5.155   0.144  12.720  0.2044  0.5551  0.2034
 4163TIP3    H233981   5.054   0.201  12.623 -0.6273  0.7483  1.1660
 4164TIP3   OH233982   5.173   3.958  12.297  0.1325  0.0887 -0.5171
 4164TIP3    H133983   5.152   3.865  12.288 -0.7586  0.2972 -0.6689
 4164TIP3    H233984   5.160   3.976  12.390  1.2279 -0.1402 -0.2975
 4165TIP3   OH233985   3.785   0.463  14.239  0.3732  0.3482  0.0851
 4165TIP3    H133986   3.821   0.432  14.156 -0.9865 -2.3427  0.3842
 4165TIP3    H233987   3.693   0.484  14.219  0.8906  3.0657  0.2264
 4166TIP3   OH233988   2.628   6.401  13.750  0.4691 -0.1845  0.3631
 4166TIP3    H133989   2.679   6.351  13.814  0.3027  1.2864  1.7151
 4166TIP3    H233990   2.560   6.444  13.802 -1.8204 -1.5569 -1.2873
 4167TIP3   OH233991   3.773   1.483  12.502  0.4381  0.2415 -0.3440
 4167TIP3    H133992   3.778   1.434  12.420  0.4852 -1.4469  0.6255
 4167TIP3    H233993   3.785   1.574  12.476  0.3643 -0.2426 -2.2162
 4168TIP3   OH233994   2.657   5.853   5.198 -1.0418  0.1061 -0.1405
 4168TIP3    H133995   2.729   5.903   5.236 -1.2144  2.0107 -2.1508
 4168TIP3    H233996   2.631   5.792   5.268  0.4158  1.5153  1.7373
 4169TIP3   OH233997   2.641   5.079  14.688  0.0759 -0.9479 -0.0545
 4169TIP3    H133998   2.552   5.096  14.720 -1.2394 -4.3378 -1.4875
 4169TIP3    H233999   2.671   5.165  14.657 -2.2532  0.5254  1.4352
 4170TIP3   OH234000   0.491   5.627  11.158  0.2912  0.0269 -0.2859
 4170TIP3    H134001   0.452   5.676  11.231  0.5007 -2.5308  1.6899
 4170TIP3    H234002   0.417   5.585  11.115  0.4274 -2.0618  1.3422
 4171TIP3   OH234003   4.657   4.344   1.137 -0.2781  0.0911 -0.2694
 4171TIP3    H134004   4.597   4.313   1.070  0.4895 -0.1572 -0.8537
 4171TIP3    H234005   4.723   4.275   1.144 -0.4570  0.0009  0.9057
 4172TIP3   OH234006   4.697   5.230  13.966  0.0153  0.2666  0.8799
 4172TIP3    H134007   4.609   5.266  13.975 -0.0807 -0.1137  1.5073
 4172TIP3    H234008   4.684   5.137  13.950  0.2136  0.6430 -2.0664
 4173TIP3   OH234009   1.447   2.662  11.306  0.3548  0.2005 -0.2886
 4173TIP3    H134010   1.467   2.569  11.314 -1.4275 -0.0961  1.4254
 4173TIP3    H234011   1.472   2.684  11.216 -1.0986 -2.4438 -1.4685
 4174TIP3   OH234012   5.220   6.680   1.520  0.2742  0.1185 -0.2875
 4174TIP3    H134013   5.228   6.629   1.601  2.4393 -0.5684 -0.8713
 4174TIP3    H234014   5.139   6.730   1.532  0.8180  0.5364  2.5729
 4175TIP3   OH234015   3.859   3.949  11.535 -0.0540  0.1875  0.1340
 4175TIP3    H134016   3.929   4.011  11.556  1.9538 -1.5906 -0.8582
 4175TIP3    H234017   3.866   3.935  11.441 -2.0744  0.2675 -0.0658
 4176TIP3   OH234018   6.047   0.337  16.922 -0.0979 -0.3481  0.0098
 4176TIP3    H134019   6.045   0.423  16.964  0.1812 -0.8547  1.1119
 4176TIP3    H234020   6.029   0.355  16.830  2.0423  1.1550 -0.2095
 4177TIP3   OH234021   5.687   4.965   2.298  0.3121 -0.5342  0.1543
 4177TIP3    H134022   5.700   5.019   2.376 -0.0913  0.5738 -0.5158
 4177TIP3    H234023   5.707   5.024   2.225  1.5739 -1.8041 -0.5731
 4178TIP3   OH234024   3.253   5.047  10.891 -0.3876  0.3664 -0.0629
 4178TIP3    H134025   3.191   4.985  10.931 -0.6946  0.0541 -0.9973
 4178TIP3    H234026   3.312   4.992  10.840 -1.7309  0.9283 -2.3424
 4179TIP3   OH234027   5.880   4.362  16.557 -0.1138 -0.5081 -0.0479
 4179TIP3    H134028   5.974   4.341  16.555 -0.0257 -0.1114 -0.7760
 4179TIP3    H234029   5.861   4.390  16.467 -0.9384 -0.6054  0.0917
 4180TIP3   OH234030   4.936   0.870  11.620 -0.0048 -0.0346 -0.0502
 4180TIP3    H134031   4.869   0.807  11.595 -0.3946 -0.1262  1.1487
 4180TIP3    H234032   4.887   0.946  11.652  0.4657  0.5481 -0.6828
 4181TIP3   OH234033   0.598   0.137   0.207 -0.4421 -0.1560 -0.4415
 4181TIP3    H134034   0.533   0.074   0.239 -0.6289  1.6017  3.1700
 4181TIP3    H234035   0.547   0.200   0.156 -1.3877  0.3834  1.1049
 4182TIP3   OH234036   5.749   0.352  16.403 -0.2015 -0.4164  0.0921
 4182TIP3    H134037   5.663   0.370  16.440 -0.9933 -1.8492 -0.9594
 4182TIP3    H234038   5.803   0.426  16.430 -1.4480 -0.0621  1.7473
 4183TIP3   OH234039   4.946   6.055   4.492  0.0156  0.0613 -0.8839
 4183TIP3    H134040   4.880   6.121   4.470 -0.3297 -0.8421 -2.6713
 4183TIP3    H234041   4.987   6.033   4.408  0.8465 -1.2448 -0.1637
 4184TIP3   OH234042   6.062   1.023   2.332  0.1188  0.1366 -0.6501
 4184TIP3    H134043   6.036   1.113   2.313 -1.0822 -0.1079 -0.2605
 4184TIP3    H234044   6.117   1.029   2.410  0.3737  0.5694 -0.8606
 4185TIP3   OH234045   2.080   3.350  14.209 -0.0928 -0.2907  0.2952
 4185TIP3    H134046   2.013   3.401  14.164 -0.6594 -0.4743  0.9185
 4185TIP3    H234047   2.102   3.280  14.148 -0.0510  0.1039 -0.1464
 4186TIP3   OH234048   1.402   5.546  10.727 -0.1940  0.5827 -0.3946
 4186TIP3    H134049   1.387   5.522  10.636  0.5536 -1.5076 -0.0306
 4186TIP3    H234050   1.426   5.464  10.770 -0.9050  1.4276  1.7840
 4187TIP3   OH234051   3.266   2.672  13.851 -0.3400 -0.3532  0.4060
 4187TIP3    H134052   3.235   2.659  13.941  0.0943 -0.9987  0.4669
 4187TIP3    H234053   3.307   2.589  13.827  0.2131  0.0596 -0.1241
 4188TIP3   OH234054   4.383   3.018  10.743  0.7764  0.1237  0.5476
 4188TIP3    H134055   4.426   3.103  10.735  0.4273  0.2239 -0.3903
 4188TIP3    H234056   4.427   2.963  10.678 -1.3561  0.6026 -1.4388
 4189TIP3   OH234057   6.223   4.757   0.159  0.3596  0.0893 -0.4590
 4189TIP3    H134058   6.135   4.720   0.159  0.5211 -0.3265 -1.9115
 4189TIP3    H234059   6.213   4.841   0.203 -0.4286 -0.6773  0.8848
 4190TIP3   OH234060   5.840   0.885   4.795 -0.0336 -0.0472  0.0823
 4190TIP3    H134061   5.765   0.908   4.851  0.3077  0.0664  0.5028
 4190TIP3    H234062   5.912   0.937   4.830 -0.1454  1.1954 -1.4190
 4191TIP3   OH234063   1.176   2.817   0.386 -0.8981 -0.5456  0.0098
 4191TIP3    H134064   1.269   2.833   0.400 -1.4242  1.5439  1.8303
 4191TIP3    H234065   1.162   2.727   0.417  0.5168 -0.9722 -0.5197
 4192TIP3   OH234066   2.040   1.257   1.617 -0.0054  0.7249  0.2958
 4192TIP3    H134067   1.967   1.198   1.632 -0.5863  1.7090  1.5426
 4192TIP3    H234068   2.039   1.274   1.523  0.4281 -1.5201 -0.1688
 4193TIP3   OH234069   3.991   1.438  16.014  0.0742 -0.1872 -0.3624
 4193TIP3    H134070   3.934   1.503  15.972 -1.0702 -1.0077 -0.1322
 4193TIP3    H234071   4.009   1.473  16.101 -0.3306 -0.0670 -0.3289
 4194TIP3   OH234072   0.351   2.959  16.282  0.2625  0.6822  0.3543
 4194TIP3    H134073   0.273   2.995  16.239 -1.3718  0.0613  2.6148
 4194TIP3    H234074   0.346   2.991  16.372  2.5289  0.4395  0.6171
 4195TIP3   OH234075   5.714   4.887   1.135 -0.4552 -0.6860  0.3275
 4195TIP3    H134076   5.754   4.863   1.218 -1.4064 -1.0010  0.7083
 4195TIP3    H234077   5.721   4.808   1.081 -1.1106 -0.9570  0.6198
 4196TIP3   OH234078   6.754   1.681  11.733  0.3227 -0.0065  0.0755
 4196TIP3    H134079   6.685   1.746  11.746 -0.6517 -0.3221 -2.7602
 4196TIP3    H234080   6.721   1.602  11.776  0.9227  0.9338  2.4041
 4197TIP3   OH234081   6.171   5.705   2.061 -0.3532  0.2683 -0.0994
 4197TIP3    H134082   6.205   5.668   2.143  1.4357  2.1308  0.0830
 4197TIP3    H234083   6.082   5.671   2.054 -0.7409  0.4163  2.8621
 4198TIP3   OH234084   6.339   4.487   5.130  0.0145 -0.2231 -0.1800
 4198TIP3    H134085   6.303   4.487   5.219  0.0092  0.6632 -0.1706
 4198TIP3    H234086   6.290   4.419   5.084  1.3215 -2.0341  0.9929
 4199TIP3   OH234087   6.224   5.736  16.866 -0.1097 -0.4209  0.5132
 4199TIP3    H134088   6.269   5.746  16.950  0.4732 -0.8004  0.2597
 4199TIP3    H234089   6.277   5.787  16.805  0.1830 -1.1561  0.1421
 4200TIP3   OH234090   1.196   1.130  16.399  0.8590 -0.4932  0.3087
 4200TIP3    H134091   1.104   1.150  16.379  0.8787 -2.2923 -2.0555
 4200TIP3    H234092   1.238   1.216  16.406 -0.9236  0.3731  1.1580
 4201TIP3   OH234093   3.252   4.400   1.596 -0.1726 -0.1984 -0.0419
 4201TIP3    H134094   3.195   4.328   1.625 -0.2830  0.0746  0.4152
 4201TIP3    H234095   3.337   4.379   1.633 -0.7065  1.0850  2.0556
 4202TIP3   OH234096   4.128   0.978  11.612  0.0762  0.0815  0.1871
 4202TIP3    H134097   4.039   0.987  11.578 -0.7592 -1.6368  1.7651
 4202TIP3    H234098   4.164   1.067  11.608 -1.2963  0.6135 -1.4924
 4203TIP3   OH234099   2.807   6.836   0.837 -0.0385 -0.8210  0.0840
 4203TIP3    H134100   2.819   6.930   0.848 -1.7869 -0.6634  0.9960
 4203TIP3    H234101   2.723   6.817   0.880 -1.4821 -2.2042 -3.0299
 4204TIP3   OH234102   0.542   6.775  14.823 -0.0778 -0.1458 -0.0232
 4204TIP3    H134103   0.482   6.758  14.751 -0.2286  0.5069 -0.0586
 4204TIP3    H234104   0.588   6.855  14.798  0.8755 -0.6948 -0.0400
 4205TIP3   OH234105   6.776   4.914  10.682 -0.2125  0.0281 -0.2786
 4205TIP3    H134106   6.752   4.853  10.751  0.4966 -0.7993 -0.7401
 4205TIP3    H234107   6.697   4.923  10.629 -0.0903 -1.2078 -0.7185
 4206TIP3   OH234108   5.572   3.931   4.667 -0.3946 -0.7636  0.0189
 4206TIP3    H134109   5.595   3.946   4.576 -0.1915  0.8287  0.2920
 4206TIP3    H234110   5.523   4.010   4.693 -0.6378 -1.2776  1.2170
 4207TIP3   OH234111   1.850   2.709   4.682 -0.6347  0.3165 -0.0040
 4207TIP3    H134112   1.911   2.647   4.722 -1.5856 -0.6910 -0.0780
 4207TIP3    H234113   1.764   2.668   4.690 -1.1976  1.2955 -0.7160
 4208TIP3   OH234114   3.297   6.153  15.568 -0.0734  0.0745  0.0904
 4208TIP3    H134115   3.381   6.144  15.614 -0.3288 -0.3014  0.4964
 4208TIP3    H234116   3.288   6.246  15.551  1.2362 -0.0348 -1.4882
 4209TIP3   OH234117   6.320   4.738  15.440  0.1985  0.1403 -0.1230
 4209TIP3    H134118   6.360   4.806  15.386 -0.8026 -0.1864 -1.3311
 4209TIP3    H234119   6.226   4.747  15.423  0.1574 -3.1803 -2.3919
 4210TIP3   OH234120   2.045   1.331   3.339  0.0605  0.1900 -0.5738
 4210TIP3    H134121   2.009   1.413   3.371  0.8458  0.1848  0.3915
 4210TIP3    H234122   2.119   1.313   3.398 -1.6208 -2.5328  0.9551
 4211TIP3   OH234123   3.312   0.881   4.868 -0.0806 -0.0048  0.2720
 4211TIP3    H134124   3.261   0.861   4.947  2.3477 -1.5590  1.5964
 4211TIP3    H234125   3.309   0.801   4.816 -1.7865  1.0600 -1.3834
 4212TIP3   OH234126   5.212   3.929   4.139  0.1249 -0.1662 -0.1573
 4212TIP3    H134127   5.268   3.859   4.105 -0.3239  0.4469 -2.3138
 4212TIP3    H234128   5.264   4.008   4.129 -0.5314  0.2026 -0.7609
 4213TIP3   OH234129   5.378   2.109  12.680 -0.3089 -0.1582  0.3013
 4213TIP3    H134130   5.325   2.149  12.749 -1.8910 -2.4515  0.5253
 4213TIP3    H234131   5.364   2.165  12.603 -2.3513 -0.1916  0.6037
 4214TIP3   OH234132   5.625   0.334  12.117 -0.3486  0.2601  0.1345
 4214TIP3    H134133   5.639   0.286  12.199  0.6881 -0.0944 -0.2372
 4214TIP3    H234134   5.701   0.391  12.110 -0.0252 -0.2951 -0.9796
 4215TIP3   OH234135   4.229   2.734  11.350  0.1279 -0.4465 -0.4160
 4215TIP3    H134136   4.293   2.663  11.354  1.0459  0.3842  0.0918
 4215TIP3    H234137   4.190   2.726  11.263 -0.2191 -1.9136 -0.1585
 4216TIP3   OH234138   2.730   1.404  13.980 -0.1763  0.3020  0.0580
 4216TIP3    H134139   2.776   1.488  13.985  0.6969 -0.1485 -0.1704
 4216TIP3    H234140   2.656   1.414  14.040  0.6003  0.8196  0.9697
 4217TIP3   OH234141   3.305   0.673  10.437 -0.7005 -0.1656  0.0113
 4217TIP3    H134142   3.397   0.677  10.412 -1.5332 -0.4467 -3.6298
 4217TIP3    H234143   3.264   0.745  10.388 -2.5514 -0.4664  1.0197
 4218TIP3   OH234144   3.858   2.266  13.923 -0.0817  0.4114  0.5796
 4218TIP3    H134145   3.782   2.256  13.865 -0.0528  1.2788  0.3763
 4218TIP3    H234146   3.830   2.330  13.988  0.9351  1.8435 -0.3356
 4219TIP3   OH234147   2.787   5.299  10.435  0.6639  0.0008  0.5317
 4219TIP3    H134148   2.709   5.348  10.406  0.2953 -0.7409  0.2364
 4219TIP3    H234149   2.853   5.367  10.449  0.3580  0.5465 -0.4717
 4220TIP3   OH234150   1.120   3.827  10.425  0.1948 -0.2190 -0.3502
 4220TIP3    H134151   1.104   3.739  10.458  1.9450 -0.6236 -0.4867
 4220TIP3    H234152   1.044   3.878  10.454  0.5348 -1.0844  2.2936
 4221TIP3   OH234153   6.646   0.749   2.778 -0.2253 -0.0747  0.2709
 4221TIP3    H134154   6.668   0.839   2.801  1.2349 -0.1457 -0.7297
 4221TIP3    H234155   6.671   0.740   2.686 -1.7519 -1.0774 -0.0805
 4222TIP3   OH234156   1.524   0.459  16.051  0.5221 -0.3599 -0.0640
 4222TIP3    H134157   1.519   0.381  15.996  1.3251  0.4509 -1.3348
 4222TIP3    H234158   1.573   0.432  16.128  0.9150 -1.0849 -0.5597
 4223TIP3   OH234159   0.081   0.857  13.693 -0.5587  0.3902  0.3455
 4223TIP3    H134160   0.009   0.917  13.674 -0.8115 -0.0829 -0.2361
 4223TIP3    H234161   0.076   0.792  13.623  0.2325  0.1704  0.4911
 4224TIP3   OH234162   2.546   0.889   3.990 -0.2458 -0.2128  0.0811
 4224TIP3    H134163   2.634   0.893   4.030 -0.0936 -2.4216  0.0828
 4224TIP3    H234164   2.496   0.956   4.036  0.9894 -0.0570  1.2641
 4225TIP3   OH234165   5.149   6.334  16.291  0.3301  0.8308  0.1781
 4225TIP3    H134166   5.123   6.419  16.256 -0.9598  0.7424  0.8859
 4225TIP3    H234167   5.122   6.336  16.383 -0.7770 -0.7589 -0.0819
 4226TIP3   OH234168   1.960   3.929   1.302  0.2513 -0.4347 -0.1857
 4226TIP3    H134169   2.049   3.926   1.338  1.0387  1.7654 -1.7263
 4226TIP3    H234170   1.959   4.007   1.246 -2.8284 -0.0712  0.1848
 4227TIP3   OH234171   3.574   5.402   4.606 -0.0098  0.4352  0.0707
 4227TIP3    H134172   3.610   5.367   4.525  1.6804  0.0665  0.9440
 4227TIP3    H234173   3.646   5.399   4.669 -1.1056  1.2363  1.4500
 4228TIP3   OH234174   2.265   3.823   2.589  0.0602 -0.3224 -0.2386
 4228TIP3    H134175   2.201   3.799   2.655  3.0497 -0.5141  2.8919
 4228TIP3    H234176   2.220   3.887   2.534 -2.7304 -0.3493  1.7936
 4229TIP3   OH234177   2.558   4.849   4.094  0.3417  0.7366  0.5247
 4229TIP3    H134178   2.465   4.835   4.111 -0.0298  0.2944 -1.6586
 4229TIP3    H234179   2.561   4.900   4.013  2.0239 -0.4353 -0.2000
 4230TIP3   OH234180   0.172   4.264   5.249 -0.4002  0.5280  0.0507
 4230TIP3    H134181   0.204   4.318   5.177 -1.9695  2.8627  1.0086
 4230TIP3    H234182   0.246   4.257   5.309 -0.2351  1.8836  0.0328
 4231TIP3   OH234183   4.825   2.287   4.601  0.0355  0.0411  0.1833
 4231TIP3    H134184   4.883   2.291   4.525  0.8915  1.6048  0.8654
 4231TIP3    H234185   4.745   2.331   4.572  0.2316  0.3321  0.0723
 4232TIP3   OH234186   4.913   0.449  16.246 -0.3537 -0.1294  0.0808
 4232TIP3    H134187   4.959   0.481  16.323 -0.1213  0.5752 -0.3348
 4232TIP3    H234188   4.822   0.440  16.274 -0.5994  1.7170  0.0145
 4233TIP3   OH234189   5.516   2.675   2.645  0.3406 -0.4452  0.2966
 4233TIP3    H134190   5.567   2.594   2.653 -0.3014 -0.6480  3.4333
 4233TIP3    H234191   5.425   2.647   2.659 -0.1225  0.5646 -0.5758
 4234TIP3   OH234192   1.713   3.154   4.849  0.4287  0.0851  0.7249
 4234TIP3    H134193   1.746   3.193   4.768 -0.1110 -2.6016 -0.9254
 4234TIP3    H234194   1.635   3.205   4.871  1.2541  1.5999  0.2569
 4235TIP3   OH234195   3.113   6.358   5.976  0.0455 -0.3558 -0.1762
 4235TIP3    H134196   3.182   6.381   6.039  0.5756 -2.0308 -0.0918
 4235TIP3    H234197   3.040   6.329   6.030 -1.3801  2.7689 -0.1939
 4236TIP3   OH234198   2.825   4.813   4.576  0.0581  0.0788  0.0202
 4236TIP3    H134199   2.829   4.792   4.483 -1.8520  2.5288 -0.7299
 4236TIP3    H234200   2.734   4.795   4.600 -0.0232  1.4572  0.8417
 4237TIP3   OH234201   3.933   1.115  15.133 -0.2443 -0.1220  0.1164
 4237TIP3    H134202   4.011   1.147  15.179 -0.0041  0.6626 -0.8089
 4237TIP3    H234203   3.861   1.166  15.171 -0.0083  0.7385 -0.5439
 4238TIP3   OH234204   3.102   5.430  15.179  0.6769  0.0688  0.4703
 4238TIP3    H134205   3.120   5.427  15.085 -0.8804  0.5600  0.1378
 4238TIP3    H234206   3.053   5.350  15.197 -0.8182  0.9442  0.4436
 4239TIP3   OH234207   1.047   3.034   0.511  0.3269  0.0301 -0.0451
 4239TIP3    H134208   1.054   3.020   0.606  2.8794  0.6353 -0.0632
 4239TIP3    H234209   1.088   2.956   0.473  2.9443  1.4956 -0.4660
 4240TIP3   OH234210   0.408   5.459   3.020  0.0161 -0.0901 -0.1294
 4240TIP3    H134211   0.420   5.551   2.998  0.0686 -0.0352  0.1258
 4240TIP3    H234212   0.321   5.437   2.988 -0.6718  0.4870  1.2527
 4241TIP3   OH234213   5.494   5.958   3.620 -0.6401  0.6426 -0.1116
 4241TIP3    H134214   5.455   5.952   3.707  1.9175  1.2173  1.1863
 4241TIP3    H234215   5.422   5.940   3.560 -2.7560  1.2958  2.0610
 4242TIP3   OH234216   5.813   2.015  17.161  0.0097  0.5643 -0.3823
 4242TIP3    H134217   5.794   2.086  17.223  1.9821  0.3062  0.5762
 4242TIP3    H234218   5.796   2.054  17.075 -0.1851  1.7793  0.1794
 4243TIP3   OH234219   1.281   0.680  15.152  0.0129 -0.2955  0.3285
 4243TIP3    H134220   1.261   0.724  15.069  1.4380  1.7606  0.9852
 4243TIP3    H234221   1.368   0.643  15.139  0.4248  0.3970  0.9889
 4244TIP3   OH234222   5.290   4.296  13.222 -0.0441 -0.0556 -0.2039
 4244TIP3    H134223   5.375   4.283  13.265  0.1849 -0.3785 -0.7363
 4244TIP3    H234224   5.300   4.377  13.173  0.3807 -0.7128 -1.2389
 4245TIP3   OH234225   4.817   4.813   6.336  0.5228 -0.4329 -0.5807
 4245TIP3    H134226   4.804   4.843   6.426  1.5666 -2.2119  0.2304
 4245TIP3    H234227   4.840   4.892   6.287  0.4458  0.4997  0.8232
 4246TIP3   OH234228   1.193   6.441  11.795  0.0072  0.0107 -0.4881
 4246TIP3    H134229   1.197   6.535  11.776  0.4831 -0.2395 -1.7356
 4246TIP3    H234230   1.104   6.415  11.772 -0.3779  0.2961  0.6296
 4247TIP3   OH234231   3.583   3.476   0.142 -0.1001 -0.1029 -0.0385
 4247TIP3    H134232   3.612   3.565   0.161 -1.6468  0.0573  1.8539
 4247TIP3    H234233   3.547   3.480   0.053 -0.8286  1.3468  0.3025
 4248TIP3   OH234234   4.725   3.321  12.933  0.0798 -0.0975  0.4160
 4248TIP3    H134235   4.648   3.328  12.875  0.5708  0.0688 -0.2235
 4248TIP3    H234236   4.735   3.408  12.971  1.2945  0.5542 -1.2545
 4249TIP3   OH234237   2.482   3.940  12.366  0.4678  0.4616 -0.6038
 4249TIP3    H134238   2.496   4.022  12.318 -1.2814  0.5647 -0.9987
 4249TIP3    H234239   2.390   3.920  12.353  0.9423 -1.8257 -0.8714
 4250TIP3   OH234240   3.005   2.635   4.922  0.1940  0.4576 -0.3089
 4250TIP3    H134241   2.956   2.690   4.860  0.6674  1.9146  0.5648
 4250TIP3    H234242   2.969   2.659   5.008  0.4417 -0.5948  0.0993
 4251TIP3   OH234243   4.796   3.267   5.915 -0.3302 -0.7113 -0.5593
 4251TIP3    H134244   4.842   3.209   5.975 -1.3107 -0.0679  0.8812
 4251TIP3    H234245   4.754   3.332   5.972  0.6472  1.3763 -2.0803
 4252TIP3   OH234246   4.876   4.555   5.300 -0.2476 -0.2385 -0.1275
 4252TIP3    H134247   4.929   4.531   5.376 -0.1422 -0.0909 -0.1544
 4252TIP3    H234248   4.807   4.612   5.336 -0.5890 -0.7052 -0.0392
 4253TIP3   OH234249   1.406   6.124  16.779  0.3796 -0.0397 -0.0617
 4253TIP3    H134250   1.499   6.138  16.795  0.3011  0.1368  0.2416
 4253TIP3    H234251   1.394   6.148  16.687  1.1076 -2.4475 -0.8507
 4254TIP3   OH234252   1.235   4.925   0.959  0.2949  0.2250  0.0495
 4254TIP3    H134253   1.150   4.886   0.939  0.3909  0.6505 -1.2987
 4254TIP3    H234254   1.266   4.960   0.875  0.8394  1.9442  0.9113
 4255TIP3   OH234255   0.685   5.653   5.875  0.1542  0.7673 -0.0217
 4255TIP3    H134256   0.724   5.598   5.943  0.5846 -1.6787 -2.0547
 4255TIP3    H234257   0.601   5.681   5.911 -0.3537 -1.7526  0.9769
 4256TIP3   OH234258   4.474   3.779   2.360  0.2825  0.3995  0.0630
 4256TIP3    H134259   4.528   3.716   2.313  0.3057 -0.8065  1.6192
 4256TIP3    H234260   4.403   3.801   2.299  0.7174 -0.5252 -0.7919
 4257TIP3   OH234261   2.621   2.332   1.887 -0.1546  0.5335 -0.2969
 4257TIP3    H134262   2.561   2.405   1.874 -1.0912 -0.3970 -1.4098
 4257TIP3    H234263   2.708   2.372   1.889 -0.6920  1.7271 -0.2709
 4258TIP3   OH234264   0.190   6.652  10.966  1.3088  0.1364 -0.4685
 4258TIP3    H134265   0.153   6.729  11.009 -0.9265 -0.6640 -0.8585
 4258TIP3    H234266   0.177   6.580  11.028  0.6547 -0.4783 -1.2989
 4259TIP3   OH234267   0.245   6.674  15.351 -0.2761 -0.2736  0.1044
 4259TIP3    H134268   0.278   6.594  15.311  0.7873  0.2949 -0.1686
 4259TIP3    H234269   0.197   6.719  15.281  0.5244  0.1147 -0.2052
 4260TIP3   OH234270   1.408   5.373   4.954  0.2367 -0.1994 -0.3393
 4260TIP3    H134271   1.495   5.334   4.949  0.1172 -0.3919 -1.1570
 4260TIP3    H234272   1.410   5.444   4.889 -0.1545 -0.0933 -0.2375
 4261TIP3   OH234273   3.518   5.807  15.980  0.1571 -0.4384 -0.4142
 4261TIP3    H134274   3.462   5.884  15.989  1.1446  0.3678 -1.0177
 4261TIP3    H234275   3.518   5.768  16.068  0.6840  0.9969  0.2586
 4262TIP3   OH234276   0.405   6.586  13.035  0.0600 -0.1015  0.0910
 4262TIP3    H134277   0.400   6.491  13.042  0.0225 -0.0322  1.0434
 4262TIP3    H234278   0.476   6.611  13.093  1.7918  0.2509 -2.0349
 4263TIP3   OH234279   4.128   4.885  13.247 -0.0621  0.3106 -0.6816
 4263TIP3    H134280   4.092   4.854  13.329 -0.7715 -0.5947 -1.3141
 4263TIP3    H234281   4.094   4.974  13.238 -2.2192 -0.5145 -1.2537
 4264TIP3   OH234282   5.918   5.733  11.371  0.0272  0.4260 -0.1688
 4264TIP3    H134283   5.959   5.815  11.342 -0.0632  0.2393 -0.8569
 4264TIP3    H234284   5.978   5.665  11.342 -0.6922  0.1546 -1.0888
 4265TIP3   OH234285   5.237   4.864  11.626  0.1459 -0.4719 -0.2124
 4265TIP3    H134286   5.327   4.849  11.655  0.3649  0.2372 -0.4904
 4265TIP3    H234287   5.245   4.928  11.555 -0.5827 -0.3604 -0.2056
 4266TIP3   OH234288   1.911   6.176  11.061  0.2991 -0.2718  0.4892
 4266TIP3    H134289   1.822   6.180  11.095  0.1936  0.1156  0.1701
 4266TIP3    H234290   1.915   6.244  10.994  1.2678  0.6646  1.4727
 4267TIP3   OH234291   1.197   5.405  16.233 -0.0140  0.1875 -0.2079
 4267TIP3    H134292   1.204   5.482  16.290  1.3627  0.1429 -0.2840
 4267TIP3    H234293   1.104   5.401  16.209 -0.8558 -0.3248  2.7701
 4268TIP3   OH234294   3.748   0.379   3.931 -0.0602  0.2994  0.4132
 4268TIP3    H134295   3.750   0.314   3.861 -0.6300  0.4283  0.2694
 4268TIP3    H234296   3.729   0.462   3.886 -2.1952  0.1125  0.8882
 4269TIP3   OH234297   2.442   6.416  15.374  0.2618 -0.0043 -0.2121
 4269TIP3    H134298   2.486   6.464  15.304  0.4391 -0.6042 -0.5206
 4269TIP3    H234299   2.496   6.431  15.452  0.0301  0.7126 -0.1885
 4270TIP3   OH234300   2.784   4.866  14.590  0.5798 -0.5501 -0.5557
 4270TIP3    H134301   2.740   4.939  14.633  0.0239 -1.8386  1.1774
 4270TIP3    H234302   2.840   4.907  14.523 -1.0823  1.3048 -0.8985
 4271TIP3   OH234303   1.681   0.835   3.549 -0.5461 -0.0177  0.3989
 4271TIP3    H134304   1.762   0.828   3.500  0.4652  1.6155  1.7114
 4271TIP3    H234305   1.671   0.929   3.565 -1.0223 -0.4231  2.9173
 4272TIP3   OH234306   0.819   4.862  15.578 -0.2457 -0.2744 -0.2375
 4272TIP3    H134307   0.742   4.834  15.528  0.0207 -0.1806 -0.7011
 4272TIP3    H234308   0.893   4.841  15.522  0.1851 -1.7807  0.8415
 4273TIP3   OH234309   4.684   5.311   2.822 -0.0896 -0.1587  0.3904
 4273TIP3    H134310   4.726   5.392   2.850 -0.2278  0.2070 -0.4328
 4273TIP3    H234311   4.755   5.256   2.790 -0.1764  0.3184 -0.6618
 4274TIP3   OH234312   1.387   4.219   2.183 -0.3000 -0.1442  0.3902
 4274TIP3    H134313   1.341   4.232   2.265  1.0357 -0.9993  1.3323
 4274TIP3    H234314   1.390   4.124   2.172  0.4711 -0.0756 -0.0809
 4275TIP3   OH234315   3.878   3.551  10.197 -0.0377 -0.5185 -0.0173
 4275TIP3    H134316   3.890   3.538  10.291 -1.2994 -2.5473 -0.0639
 4275TIP3    H234317   3.875   3.646  10.186  1.0868 -0.2138  1.8384
 4276TIP3   OH234318   1.882   3.057   2.951  0.5327  0.1089 -0.0754
 4276TIP3    H134319   1.882   3.153   2.950 -0.2465  0.1921  2.2038
 4276TIP3    H234320   1.812   3.033   2.891 -1.8237  1.1655  2.0427
 4277TIP3   OH234321   5.679   1.076  16.607  0.2141 -0.0029 -0.2043
 4277TIP3    H134322   5.656   0.988  16.636 -0.6007  0.4888  0.7416
 4277TIP3    H234323   5.600   1.128  16.625  0.7493  0.9624 -0.5553
 4278TIP3   OH234324   1.377   0.131  16.902  0.0070 -0.3627  0.1181
 4278TIP3    H134325   1.345   0.087  16.981  1.0342 -0.1862  0.6470
 4278TIP3    H234326   1.370   0.064  16.833  0.4039 -0.9625  0.6502
 4279TIP3   OH234327   1.597   3.592   5.726  0.3986  0.1709  0.0940
 4279TIP3    H134328   1.693   3.592   5.728  0.4146  1.1428 -0.3078
 4279TIP3    H234329   1.573   3.684   5.731 -0.5246 -0.0762  0.3586
 4280TIP3   OH234330   2.430   3.236  13.622 -0.4064  0.5122 -0.3318
 4280TIP3    H134331   2.406   3.323  13.592 -1.3721  0.8687  1.4081
 4280TIP3    H234332   2.467   3.248  13.709  0.3665 -0.7250 -0.4490
 4281TIP3   OH234333   5.606   2.642   2.952 -0.2848 -0.6576  0.3757
 4281TIP3    H134334   5.515   2.643   2.983 -0.5858 -1.6223 -0.4236
 4281TIP3    H234335   5.646   2.719   2.992 -0.7982 -1.5330  2.7101
 4282TIP3   OH234336   5.441   4.310   2.668 -0.1787  0.1283  0.9932
 4282TIP3    H134337   5.461   4.370   2.596  2.0604 -0.9087  0.6432
 4282TIP3    H234338   5.498   4.338   2.740 -0.4648 -0.4314  1.4544
 4283TIP3   OH234339   4.584   5.866   5.777 -0.3314 -0.7471 -0.4581
 4283TIP3    H134340   4.495   5.835   5.796 -0.2317 -0.4937  0.5133
 4283TIP3    H234341   4.640   5.792   5.802  0.0114  0.5194  3.2017
 4284TIP3   OH234342   5.402   5.790  16.930  0.2272 -0.4833 -0.1244
 4284TIP3    H134343   5.408   5.717  16.869 -0.0995 -0.4817 -0.1581
 4284TIP3    H234344   5.333   5.846  16.895 -0.1701 -0.6334  0.4061
 4285TIP3   OH234345   4.500   0.275  11.877 -0.4136 -0.1050 -0.0510
 4285TIP3    H134346   4.449   0.352  11.904 -1.7069 -0.9514  0.0402
 4285TIP3    H234347   4.466   0.205  11.932 -1.1764 -1.3045 -1.9767
 4286TIP3   OH234348   5.878   2.734  16.315 -0.1840  0.6217  0.9139
 4286TIP3    H134349   5.932   2.693  16.248 -1.0613  1.0628 -0.0876
 4286TIP3    H234350   5.891   2.679  16.393  0.4423 -0.2049  0.2465
 4287TIP3   OH234351   1.973   5.054   3.754  0.4790 -0.3131  0.0245
 4287TIP3    H134352   1.913   5.044   3.680 -0.0787  0.4493  0.3569
 4287TIP3    H234353   1.955   4.979   3.810  0.1903 -0.3497 -0.1161
 4288TIP3   OH234354   5.266   0.207  12.848  0.3796 -0.1627  0.5268
 4288TIP3    H134355   5.190   0.239  12.896 -1.4492 -1.4684 -1.3384
 4288TIP3    H234356   5.328   0.279  12.850 -1.5405  1.5747  0.7475
 4289TIP3   OH234357   6.204   3.797  16.637 -0.0318 -0.5219 -0.7679
 4289TIP3    H134358   6.153   3.871  16.606  2.0678  1.4988  0.2577
 4289TIP3    H234359   6.269   3.782  16.568  0.7275 -0.1321 -0.1530
 4290TIP3   OH234360   4.358   1.918   3.982 -0.5013 -0.3064 -0.0157
 4290TIP3    H134361   4.354   1.918   3.887 -0.5769 -0.0713 -0.0146
 4290TIP3    H234362   4.401   1.836   4.005 -0.3993 -0.3199 -0.2561
 4291TIP3   OH234363   6.587   0.314  12.062  0.0282 -0.5741  0.0955
 4291TIP3    H134364   6.526   0.326  11.989 -0.9229 -0.0177  0.9439
 4291TIP3    H234365   6.613   0.222  12.058 -0.8841 -0.8230 -0.2823
 4292TIP3   OH234366   2.156   4.697  15.330 -0.4840 -0.4129  0.1506
 4292TIP3    H134367   2.242   4.663  15.355  0.1734  0.1039 -1.2932
 4292TIP3    H234368   2.108   4.621  15.296 -1.1740 -1.0008  2.2875
 4293TIP3   OH234369   2.497   0.684   0.070 -0.3546 -0.0475 -0.2662
 4293TIP3    H134370   2.537   0.617   0.124 -0.2610  0.6552  0.5644
 4293TIP3    H234371   2.403   0.664   0.072 -0.1890 -1.0135 -1.2604
 4294TIP3   OH234372   3.436   2.945  11.131  0.1183  0.0449 -0.2659
 4294TIP3    H134373   3.426   3.034  11.097  1.7720  0.5223  0.4034
 4294TIP3    H234374   3.530   2.929  11.128  0.1613 -0.6158  2.1932
 4295TIP3   OH234375   0.016   3.074   2.105 -0.0117 -0.0146  0.1252
 4295TIP3    H134376   0.014   3.147   2.042  2.5257  1.4558  1.5791
 4295TIP3    H234377   0.019   3.117   2.191 -0.1737 -1.8810  1.1051
 4296TIP3   OH234378   5.142   3.545   1.883 -0.5128 -0.2046 -0.7907
 4296TIP3    H134379   5.154   3.450   1.877  3.5527  0.1816 -1.4014
 4296TIP3    H234380   5.189   3.580   1.808 -2.3389  2.3758 -0.8673
 4297TIP3   OH234381   5.858   1.688  13.102  0.3841  0.2801  0.1324
 4297TIP3    H134382   5.781   1.745  13.104 -0.2590 -0.5531 -0.5081
 4297TIP3    H234383   5.882   1.678  13.194 -0.1580  0.6977  0.3260
 4298TIP3   OH234384   2.625   4.662   1.926 -0.0970 -0.0423  0.3867
 4298TIP3    H134385   2.587   4.627   2.007  0.7091  1.2288  1.3527
 4298TIP3    H234386   2.550   4.693   1.876 -0.8223 -2.6664 -0.3436
 4299TIP3   OH234387   3.963   6.559  13.202  0.3361  0.0176 -0.2564
 4299TIP3    H134388   3.902   6.487  13.215  0.6096  0.2355  2.7462
 4299TIP3    H234389   4.019   6.531  13.129 -0.8552 -1.8530 -0.4977
 4300TIP3   OH234390   2.072   1.564  15.541  1.2343  0.2939  0.0665
 4300TIP3    H134391   1.978   1.578  15.543  0.7070 -2.5890  0.0669
 4300TIP3    H234392   2.109   1.646  15.510 -1.1079  2.1196  1.7978
 4301TIP3   OH234393   6.115   1.647   4.578 -0.0027 -0.0325  0.2557
 4301TIP3    H134394   6.085   1.556   4.590 -0.6440 -0.1090 -1.4929
 4301TIP3    H234395   6.086   1.693   4.656  0.2314 -1.3140  1.1210
 4302TIP3   OH234396   3.726   4.711  16.377 -0.1350  0.3535  0.0388
 4302TIP3    H134397   3.780   4.785  16.406 -0.4070  0.0493  1.4017
 4302TIP3    H234398   3.648   4.716  16.433 -0.3039 -0.7669 -0.0875
 4303TIP3   OH234399   6.126   4.127  16.738 -0.0914  0.0217 -0.2756
 4303TIP3    H134400   6.120   4.214  16.698 -0.2896 -0.1776 -0.6699
 4303TIP3    H234401   6.049   4.121  16.794  0.2640  0.3593  0.2658
 4304TIP3   OH234402   5.905   6.786   5.427  0.2692  0.4366  0.6116
 4304TIP3    H134403   5.899   6.698   5.463 -1.9909 -0.1833 -0.9948
 4304TIP3    H234404   5.910   6.843   5.503 -1.4950 -0.9389  1.8531
 4305TIP3   OH234405   5.760   2.843  15.493  0.3498 -0.1238  0.0628
 4305TIP3    H134406   5.671   2.864  15.462  0.1597 -0.2251  0.5347
 4305TIP3    H234407   5.772   2.751  15.471  0.2307 -0.1840  0.2437
 4306TIP3   OH234408   3.554   6.736   2.862  0.2849 -0.2460 -0.3584
 4306TIP3    H134409   3.551   6.643   2.885 -0.1901 -0.7147 -2.1374
 4306TIP3    H234410   3.484   6.776   2.915  0.8911 -0.7567  0.8728
 4307TIP3   OH234411   0.632   4.818  14.432  0.1161 -0.1281 -0.2349
 4307TIP3    H134412   0.661   4.747  14.375 -0.8914 -0.4547 -0.3630
 4307TIP3    H234413   0.538   4.804  14.443  0.1438  0.3862  0.8695
 4308TIP3   OH234414   4.638   5.078   4.460  0.2300 -0.6258 -0.3157
 4308TIP3    H134415   4.650   4.986   4.434 -0.0142 -1.1256  1.2190
 4308TIP3    H234416   4.717   5.122   4.429 -0.3218 -1.0210 -2.4146
 4309TIP3   OH234417   5.449   2.520   3.313 -0.1750 -0.4653 -0.0302
 4309TIP3    H134418   5.466   2.488   3.402  1.1206  0.1338 -0.0427
 4309TIP3    H234419   5.359   2.493   3.295 -0.8568  0.3360  1.8727
 4310TIP3   OH234420   3.023   5.228  14.559 -0.1107  0.0161 -0.2553
 4310TIP3    H134421   2.956   5.273  14.611 -0.1757 -0.3433 -0.0273
 4310TIP3    H234422   3.051   5.155  14.614  0.1622 -0.0867 -0.5284
 4311TIP3   OH234423   4.252   3.451   4.508 -0.1387  0.2415  0.2570
 4311TIP3    H134424   4.223   3.515   4.574  0.3293  0.2499  0.4595
 4311TIP3    H234425   4.171   3.420   4.468 -0.4400  0.1466  0.9193
 4312TIP3   OH234426   4.366   6.694   2.854 -0.7287 -0.2969 -0.4066
 4312TIP3    H134427   4.383   6.780   2.814  1.3478  0.4592  1.8096
 4312TIP3    H234428   4.287   6.708   2.906 -2.1017 -0.6275 -2.3364
 4313TIP3   OH234429   4.923   2.506   2.938  0.0032  0.0719 -0.0682
 4313TIP3    H134430   4.947   2.444   3.007 -0.4325  0.4231  0.4078
 4313TIP3    H234431   4.850   2.556   2.975 -0.6250 -0.1233 -1.0023
 4314TIP3   OH234432   1.336   2.549   0.638  0.1968 -0.0918  0.0470
 4314TIP3    H134433   1.343   2.636   0.599 -1.4866  0.2232  0.3625
 4314TIP3    H234434   1.258   2.553   0.694  1.0652 -1.3073  1.4232
 4315TIP3   OH234435   0.583   2.892   2.349  0.0171 -0.1384  0.5160
 4315TIP3    H134436   0.652   2.934   2.298  0.5130  0.3547  1.5543
 4315TIP3    H234437   0.598   2.922   2.438 -1.3842 -0.2388  0.8111
 4316TIP3   OH234438   1.123   0.675   1.673  0.0857 -0.5087 -0.2663
 4316TIP3    H134439   1.045   0.692   1.619 -0.7228 -0.7689  0.7800
 4316TIP3    H234440   1.087   0.653   1.759  1.3196  3.1838  1.3958
 4317TIP3   OH234441   6.611   4.554  11.694 -0.5630  0.0324 -0.4153
 4317TIP3    H134442   6.613   4.572  11.788  0.7763 -2.6903  0.2059
 4317TIP3    H234443   6.690   4.595  11.660 -0.7060  0.4743 -0.2114
 4318TIP3   OH234444   3.017   5.145   4.421 -0.4447 -0.1512  0.0162
 4318TIP3    H134445   3.026   5.082   4.493 -1.0634 -2.4303 -1.7739
 4318TIP3    H234446   2.929   5.129   4.386  0.1394  0.2987 -1.7435
 4319TIP3   OH234447   4.943   1.752  12.842  0.1761 -0.4909  0.6958
 4319TIP3    H134448   4.985   1.831  12.808 -0.2329 -0.6982 -0.3495
 4319TIP3    H234449   4.986   1.680  12.796 -1.1434 -0.7145 -0.2857
 4320TIP3   OH234450   1.668   4.280  11.661 -0.2755  0.3587  0.1723
 4320TIP3    H134451   1.712   4.227  11.727  0.4815 -0.8337 -1.2285
 4320TIP3    H234452   1.671   4.369  11.696  2.5343  0.2123  0.5365
 4321TIP3   OH234453   3.885   2.925   5.326  0.0020 -0.7096 -0.2969
 4321TIP3    H134454   3.876   3.019   5.340 -1.0791 -0.4864 -2.1310
 4321TIP3    H234455   3.800   2.888   5.352  0.6489 -1.2959  1.0656
 4322TIP3   OH234456   1.963   0.599  10.969  0.0785 -0.2268  0.0013
 4322TIP3    H134457   2.034   0.661  10.985 -0.0191 -0.3984  1.2634
 4322TIP3    H234458   1.938   0.614  10.878  1.6636 -0.1031 -0.4487
 4323TIP3   OH234459   6.227   4.912  13.824  0.9444 -0.3838  0.1492
 4323TIP3    H134460   6.317   4.890  13.802  1.5616  1.4043  0.7715
 4323TIP3    H234461   6.181   4.907  13.740  2.1626  1.1455 -0.6569
 4324TIP3   OH234462   4.059   4.265   1.005  0.9504  0.0493  0.0445
 4324TIP3    H134463   3.987   4.329   0.998 -1.1126 -1.9841  1.2273
 4324TIP3    H234464   4.015   4.180   1.005  3.3972 -1.3040  0.8789
 4325TIP3   OH234465   6.828   1.832   3.568 -0.6095 -0.0092  0.6560
 4325TIP3    H134466   6.875   1.823   3.485 -0.6213 -1.4832  0.7735
 4325TIP3    H234467   6.773   1.909   3.556 -1.3029 -0.7091 -1.0779
 4326TIP3   OH234468   6.303   1.569   0.780 -0.5209 -0.0569  0.1110
 4326TIP3    H134469   6.338   1.496   0.728  0.9999 -0.1877  1.2420
 4326TIP3    H234470   6.376   1.597   0.834 -1.5314  1.2952  0.8378
 4327TIP3   OH234471   4.538   4.578  12.747 -0.3391  0.2938 -0.4334
 4327TIP3    H134472   4.628   4.600  12.724 -0.2692  1.1899  0.6092
 4327TIP3    H234473   4.484   4.641  12.699 -0.1752  2.4101  1.9887
 4328TIP3   OH234474   3.906   0.487   2.968  0.1089 -0.2899  0.3511
 4328TIP3    H134475   3.868   0.405   2.936 -1.1288  0.4933 -0.2427
 4328TIP3    H234476   3.917   0.472   3.062 -1.0861 -0.7806  0.4379
 4329TIP3   OH234477   3.304   6.689  16.935 -0.2905 -0.1240  0.3250
 4329TIP3    H134478   3.305   6.663  16.843 -1.5024  0.0073  0.2566
 4329TIP3    H234479   3.322   6.608  16.983  2.5058  0.1788 -0.0433
 4330TIP3   OH234480   2.358   6.467  11.362 -0.5048  0.2144  0.0748
 4330TIP3    H134481   2.380   6.459  11.270 -1.5012  1.8392 -0.3547
 4330TIP3    H234482   2.271   6.428  11.370 -0.3418 -0.0952  0.3654
 4331TIP3   OH234483   3.950   1.172   1.112  0.1463  0.4197  0.4139
 4331TIP3    H134484   3.877   1.209   1.063 -1.9445 -0.3347  2.7376
 4331TIP3    H234485   4.009   1.246   1.127 -0.4781  1.2157 -0.8881
 4332TIP3   OH234486   6.466   4.247   5.539  0.7630  0.7982 -0.0288
 4332TIP3    H134487   6.391   4.264   5.483  0.9316  0.3995 -0.3795
 4332TIP3    H234488   6.501   4.333   5.560  0.0457  1.0006  0.3643
 4333TIP3   OH234489   5.202   0.752  14.468  0.0525 -0.5583 -0.8337
 4333TIP3    H134490   5.163   0.704  14.542  1.2998 -1.0130 -0.4421
 4333TIP3    H234491   5.273   0.802  14.507 -1.3566  1.8775 -1.1915
 4334TIP3   OH234492   2.800   5.079   4.019 -0.3420 -0.5851  0.2972
 4334TIP3    H134493   2.784   5.017   3.948  0.4426  0.7500 -1.1053
 4334TIP3    H234494   2.720   5.131   4.025  0.1598  0.3306 -0.7104
 4335TIP3   OH234495   0.255   4.004  12.153  0.1265  0.6010 -0.1116
 4335TIP3    H134496   0.323   4.019  12.219 -0.6528 -0.0673  0.8813
 4335TIP3    H234497   0.173   4.021  12.199 -0.5167 -1.3282 -0.4326
 4336TIP3   OH234498   1.807   1.897   4.243 -0.0071  0.3406 -0.6399
 4336TIP3    H134499   1.890   1.932   4.209  0.1863 -0.9743 -1.6039
 4336TIP3    H234500   1.762   1.865   4.165 -0.7298 -0.3756  0.0610
 4337TIP3   OH234501   3.141   3.357  16.381  0.4400  0.6226 -0.0427
 4337TIP3    H134502   3.140   3.262  16.370  1.8775  0.4003  1.3834
 4337TIP3    H234503   3.230   3.382  16.356 -0.3146  1.8264 -1.7511
 4338TIP3   OH234504   6.716   6.113   4.488  0.1177 -0.1605 -0.2752
 4338TIP3    H134505   6.765   6.081   4.564  0.1718  0.4351 -0.0571
 4338TIP3    H234506   6.710   6.207   4.500 -0.4274 -0.1328 -0.6912
 4339TIP3   OH234507   6.775   5.082   2.807  0.1766 -0.6175  0.6224
 4339TIP3    H134508   6.851   5.055   2.755  0.3294  0.6009  0.1727
 4339TIP3    H234509   6.772   5.177   2.796 -0.8937 -0.5564  1.3583
 4340TIP3   OH234510   0.651   5.332  14.931 -0.0181 -0.0781  0.5784
 4340TIP3    H134511   0.605   5.250  14.949  2.4287 -1.4686  0.9613
 4340TIP3    H234512   0.729   5.305  14.882  0.4092  2.1519 -0.0811
 4341TIP3   OH234513   5.458   2.006   5.474 -0.0993 -0.2755 -0.0372
 4341TIP3    H134514   5.367   1.997   5.446 -0.0665 -0.3111 -0.1326
 4341TIP3    H234515   5.453   2.017   5.569 -0.2549  0.5091 -0.1328
 4342TIP3   OH234516   3.275   0.200   5.012  0.2880  0.1861  0.3557
 4342TIP3    H134517   3.337   0.217   4.941 -0.2194  0.2274 -0.0769
 4342TIP3    H234518   3.228   0.283   5.023  0.9082  0.4323  1.2812
 4343TIP3   OH234519   0.432   4.461   0.852 -0.1953 -0.2045 -0.2846
 4343TIP3    H134520   0.440   4.436   0.760  0.5471 -0.4448 -0.1600
 4343TIP3    H234521   0.497   4.531   0.864  0.8537 -1.2646  0.4370
 4344TIP3   OH234522   4.360   0.844  16.719  0.0233  0.1410 -0.7288
 4344TIP3    H134523   4.346   0.753  16.743 -1.3983  0.5212  0.0056
 4344TIP3    H234524   4.296   0.893  16.772  0.2367  1.4843 -1.6580
 4345TIP3   OH234525   0.914   2.609  16.159  1.1176  0.0642  0.4453
 4345TIP3    H134526   0.874   2.560  16.230  0.1501  1.1937  0.6964
 4345TIP3    H234527   0.976   2.547  16.119  1.3166 -0.7351  1.9398
 4346TIP3   OH234528   2.534   3.170  14.409 -0.3388  0.2532 -0.0434
 4346TIP3    H134529   2.596   3.096  14.410 -0.1259  0.3883 -1.5095
 4346TIP3    H234530   2.448   3.129  14.402 -0.2840  0.1151  0.0917
 4347TIP3   OH234531   4.622   2.141   0.963 -0.0141 -0.5480  0.1614
 4347TIP3    H134532   4.634   2.098   1.048 -1.8219 -0.0056  0.7344
 4347TIP3    H234533   4.564   2.082   0.915  2.1024 -1.5617 -1.2965
 4348TIP3   OH234534   1.440   4.770   5.184  0.9986 -0.2498 -0.4968
 4348TIP3    H134535   1.414   4.716   5.258  0.6517  1.2816  0.5334
 4348TIP3    H234536   1.536   4.765   5.183  1.0093 -0.1860  0.1228
 4349TIP3   OH234537   6.352   1.852   0.445  0.5162 -0.2344 -0.1890
 4349TIP3    H134538   6.417   1.782   0.444  0.1908 -0.5357 -0.2491
 4349TIP3    H234539   6.397   1.927   0.405  1.5617  0.2110  1.6946
 4350TIP3   OH234540   2.729   2.712   3.194 -0.4359 -0.0430 -0.1889
 4350TIP3    H134541   2.762   2.714   3.104 -0.5513 -3.4023 -0.4406
 4350TIP3    H234542   2.763   2.792   3.234  4.4074 -1.0125 -1.6607
 4351TIP3   OH234543   4.531   5.966  16.431  0.1236  0.4390  0.3472
 4351TIP3    H134544   4.596   5.895  16.426 -0.3071  0.1101 -0.8567
 4351TIP3    H234545   4.500   5.963  16.521  1.1225  0.0121  0.6952
 4352TIP3   OH234546   5.944   6.249  13.146  0.3087 -0.3079 -0.0572
 4352TIP3    H134547   6.017   6.275  13.202 -0.6444  0.2252  0.9598
 4352TIP3    H234548   5.894   6.329  13.132 -0.9616 -0.9525  0.5886
 4353TIP3   OH234549   6.640   4.216  16.661  0.2930 -0.4049  0.1419
 4353TIP3    H134550   6.550   4.214  16.694  0.3408  1.8772  0.5803
 4353TIP3    H234551   6.691   4.174  16.730 -0.3099 -0.8263  0.3445
 4354TIP3   OH234552   2.551   6.454   2.790  0.3416  0.1789 -0.4306
 4354TIP3    H134553   2.566   6.387   2.856  1.7529  1.8318  1.0447
 4354TIP3    H234554   2.481   6.419   2.734 -1.3916 -1.0355  2.3213
 4355TIP3   OH234555   6.533   5.632  13.568 -0.2231  0.7386  0.2862
 4355TIP3    H134556   6.466   5.676  13.619 -0.4097  1.7795 -0.8329
 4355TIP3    H234557   6.534   5.677  13.484  0.7586 -0.3046 -0.2946
 4356TIP3   OH234558   3.513   0.268   3.448 -0.1742 -0.5562 -0.4937
 4356TIP3    H134559   3.524   0.349   3.398  2.1296 -0.0255  0.7302
 4356TIP3    H234560   3.434   0.282   3.500 -0.4832  0.3888 -1.1927
 4357TIP3   OH234561   6.580   2.743   1.987  0.4356 -0.2914  0.0398
 4357TIP3    H134562   6.589   2.838   1.993  0.5109 -0.2640 -0.4489
 4357TIP3    H234563   6.516   2.720   2.055 -1.1607  0.3532 -1.1677
 4358TIP3   OH234564   4.758   5.322  11.701 -0.1650  0.1662  0.4610
 4358TIP3    H134565   4.711   5.379  11.640  0.5134 -0.4087 -0.6391
 4358TIP3    H234566   4.844   5.310  11.661 -0.5047 -2.1520  0.3012
 4359TIP3   OH234567   5.210   3.512   3.155  0.1790  0.2929 -0.3226
 4359TIP3    H134568   5.298   3.517   3.117 -0.3675  0.6543 -1.5900
 4359TIP3    H234569   5.181   3.423   3.136  0.3867  0.0572  0.4107
 4360TIP3   OH234570   6.485   0.283  14.534 -0.3073  0.3785  0.3394
 4360TIP3    H134571   6.474   0.234  14.452 -0.0123  0.5138  0.2176
 4360TIP3    H234572   6.521   0.219  14.595  0.7622  0.6147 -0.0231
 4361TIP3   OH234573   3.886   5.124   2.415  0.0843  0.1234  0.6778
 4361TIP3    H134574   3.894   5.031   2.394  0.6940  0.2966  0.1252
 4361TIP3    H234575   3.801   5.149   2.379  0.5714  0.1243 -0.5178
 4362TIP3   OH234576   1.739   3.999   5.835  0.3145  0.0504 -0.4439
 4362TIP3    H134577   1.753   4.076   5.781  3.3195  0.3879  0.5878
 4362TIP3    H234578   1.820   3.991   5.886 -1.9541 -0.6490  3.4635
 4363TIP3   OH234579   2.260   3.515  16.261 -0.3087  0.1177 -0.0052
 4363TIP3    H134580   2.238   3.556  16.345  0.4232  1.2442 -0.3343
 4363TIP3    H234581   2.343   3.470  16.277 -0.7120 -0.5782  0.1489
 4364TIP3   OH234582   0.778   2.931  12.502 -0.1354 -0.3882  0.7555
 4364TIP3    H134583   0.752   3.019  12.474  3.4768  0.3709 -0.7404
 4364TIP3    H234584   0.717   2.910  12.573 -1.7397  2.9149  0.5555
 4365TIP3   OH234585   3.073   1.824  15.538 -0.4344  0.3789 -0.0096
 4365TIP3    H134586   3.082   1.743  15.588 -0.0398  0.1652 -0.4314
 4365TIP3    H234587   3.014   1.878  15.591  1.3374  0.8638  1.5852
 4366TIP3   OH234588   2.578   6.096   4.453 -0.3946  1.0037  0.0217
 4366TIP3    H134589   2.521   6.033   4.496  0.6624 -0.1977 -0.2819
 4366TIP3    H234590   2.651   6.108   4.515  1.9553 -1.9157 -1.8867
 4367TIP3   OH234591   5.402   0.627  15.973 -0.0908 -0.3582 -0.0700
 4367TIP3    H134592   5.349   0.563  15.925 -1.9122 -1.8698  3.5009
 4367TIP3    H234593   5.492   0.610  15.945 -0.9980 -0.8637 -3.0138
 4368TIP3   OH234594   6.185   4.889  17.077 -0.4494 -0.0012  0.1005
 4368TIP3    H134595   6.115   4.919  17.135 -0.7934 -2.1211  0.8715
 4368TIP3    H234596   6.244   4.838  17.133  0.8031  0.3305 -0.8672
 4369TIP3   OH234597   4.438   5.199   3.351 -0.2578 -0.5574  0.6410
 4369TIP3    H134598   4.436   5.183   3.256 -0.6650 -0.7947  0.6896
 4369TIP3    H234599   4.386   5.128   3.389 -0.3134 -0.3167  1.0240
 4370TIP3   OH234600   1.260   2.676   3.352 -0.5579 -0.3334  0.7898
 4370TIP3    H134601   1.326   2.611   3.376  1.4804  1.3655  0.0633
 4370TIP3    H234602   1.309   2.756   3.335 -2.9300  1.3692  1.3481
 4371TIP3   OH234603   1.936   1.590   0.880  0.3038 -0.1608 -0.3434
 4371TIP3    H134604   1.949   1.532   0.955 -0.5824  0.6175  0.4366
 4371TIP3    H234605   1.935   1.532   0.804 -0.7013 -1.1814  0.4309
 4372TIP3   OH234606   0.828   2.390  11.791 -0.0511  0.9191 -0.6553
 4372TIP3    H134607   0.865   2.331  11.725  1.4738 -1.1658  1.8781
 4372TIP3    H234608   0.902   2.414  11.846 -1.5171  1.1731  1.3156
 4373TIP3   OH234609   1.385   5.954  13.789  0.4114  0.2616  0.5745
 4373TIP3    H134610   1.414   5.920  13.704  2.5258  0.0686  1.3066
 4373TIP3    H234611   1.367   6.047  13.773  3.4874  0.9392  0.3952
 4374TIP3   OH234612   0.626   2.770  12.707  0.2562 -0.1239 -0.2270
 4374TIP3    H134613   0.634   2.698  12.644  1.4050 -0.2423  0.0294
 4374TIP3    H234614   0.694   2.752  12.772 -1.1308 -0.2091  1.2710
 4375TIP3   OH234615   3.854   5.402   1.353 -0.1963  0.2744 -0.3591
 4375TIP3    H134616   3.771   5.376   1.393 -0.3155  0.5378 -0.4355
 4375TIP3    H234617   3.878   5.483   1.398  0.7641 -0.5664  0.7010
 4376TIP3   OH234618   5.058   1.667   1.927 -0.0903  0.3008 -0.8541
 4376TIP3    H134619   5.024   1.586   1.965  1.8392  0.6691  2.0212
 4376TIP3    H234620   5.126   1.638   1.867  0.3054 -0.2609 -0.1543
 4377TIP3   OH234621   2.223   4.004   0.725 -0.2139  0.2227 -0.4217
 4377TIP3    H134622   2.208   4.079   0.783  1.0976  0.6825 -0.6499
 4377TIP3    H234623   2.275   3.943   0.777 -1.2814 -0.5614 -0.2343
 4378TIP3   OH234624   4.555   1.287   3.535 -0.2162  0.0890  0.5909
 4378TIP3    H134625   4.510   1.218   3.486 -0.6122  0.2525  0.7275
 4378TIP3    H234626   4.564   1.251   3.623 -1.7015  0.7651  1.0528
 4379TIP3   OH234627   1.710   3.625   2.940  0.0817  0.0656 -0.1651
 4379TIP3    H134628   1.627   3.597   2.978  0.2229 -0.1337  0.0015
 4379TIP3    H234629   1.704   3.720   2.936  0.2425  0.1201  0.7730
 4380TIP3   OH234630   5.134   1.730  12.145  0.1201 -0.8856 -0.4927
 4380TIP3    H134631   5.090   1.659  12.099 -2.1450 -0.5655  1.0307
 4380TIP3    H234632   5.151   1.696  12.232  1.1572 -0.3036 -0.4434
 4381TIP3   OH234633   1.345   4.666  15.653 -0.2193 -0.2696 -0.1447
 4381TIP3    H134634   1.380   4.661  15.564 -1.3825 -0.2497 -0.6181
 4381TIP3    H234635   1.307   4.754  15.658  0.0381 -0.1922  0.4535
 4382TIP3   OH234636   0.906   0.869   4.525 -0.2635  0.1139  0.1297
 4382TIP3    H134637   0.817   0.849   4.496 -0.1333 -1.2584  0.6059
 4382TIP3    H234638   0.913   0.964   4.516 -1.4932  0.1521 -0.6871
 4383TIP3   OH234639   0.443   1.177   4.514 -0.2227  0.1643 -0.3434
 4383TIP3    H134640   0.397   1.208   4.592  0.6156 -1.1281  0.7105
 4383TIP3    H234641   0.396   1.098   4.487  0.8266 -0.6982  0.2524
 4384TIP3   OH234642   1.398   5.103   2.108 -0.2284  0.5757  0.1494
 4384TIP3    H134643   1.445   5.181   2.078 -1.2684  0.9745 -0.5024
 4384TIP3    H234644   1.389   5.117   2.203 -0.0365  1.0461  0.1052
 4385TIP3   OH234645   4.425   4.954   0.314  0.0314 -0.4454 -0.2316
 4385TIP3    H134646   4.383   4.995   0.238 -1.1166 -1.1456 -0.0011
 4385TIP3    H234647   4.464   5.027   0.361 -1.2110  0.3017 -0.2989
 4386TIP3   OH234648   6.501   3.608  13.617 -0.0530 -0.4118 -0.0160
 4386TIP3    H134649   6.458   3.543  13.672 -0.2083 -1.5405 -1.4262
 4386TIP3    H234650   6.519   3.563  13.535 -0.7601  1.4863 -1.2930
 4387TIP3   OH234651   1.863   1.501  13.826  0.2367  0.6276 -0.3310
 4387TIP3    H134652   1.782   1.455  13.802 -0.0166 -0.0862  1.7371
 4387TIP3    H234653   1.924   1.431  13.848  1.2286  1.1896 -1.2110
 4388TIP3   OH234654   1.333   4.342  12.298  0.5537 -0.2022  0.0093
 4388TIP3    H134655   1.396   4.307  12.362  0.1779  0.3853  0.7176
 4388TIP3    H234656   1.254   4.290  12.312 -0.2708  1.3628  1.6157
 4389TIP3   OH234657   1.322   0.940   3.337  0.3686 -0.3553  0.3867
 4389TIP3    H134658   1.293   0.877   3.404  0.7157 -0.9879 -0.0464
 4389TIP3    H234659   1.347   0.885   3.262  0.9545  0.2848  0.1040
 4390TIP3   OH234660   5.784   1.223  12.223 -0.5458  0.2991  0.2202
 4390TIP3    H134661   5.861   1.177  12.191 -0.7834  0.0379  0.0153
 4390TIP3    H234662   5.819   1.295  12.275 -0.1666 -0.0092  0.4027
 4391TIP3   OH234663   4.345   3.461   3.624 -0.1198  0.3292  0.5842
 4391TIP3    H134664   4.320   3.369   3.629 -0.0009  0.2909  0.4729
 4391TIP3    H234665   4.435   3.460   3.591 -0.0945  0.4816  0.6474
 4392TIP3   OH234666   2.027   0.492  13.543  0.4886  0.2656 -0.0133
 4392TIP3    H134667   2.037   0.547  13.465  1.5057  1.8141  1.1597
 4392TIP3    H234668   1.937   0.508  13.572  0.9452  1.7984  0.6364
 4393TIP3   OH234669   0.362   6.229  15.595  0.0801 -0.2737  0.0135
 4393TIP3    H134670   0.269   6.246  15.610 -0.2877 -1.1425 -1.1544
 4393TIP3    H234671   0.404   6.314  15.609 -0.6850 -0.1628  1.8933
 4394TIP3   OH234672   5.675   2.073  16.385  0.2343 -0.0254  0.1512
 4394TIP3    H134673   5.672   2.157  16.339  0.5565  0.3897  0.8763
 4394TIP3    H234674   5.595   2.071  16.438  0.4148 -0.0039  0.4260
 4395TIP3   OH234675   4.849   2.851   0.535  0.2259  0.1397 -0.1093
 4395TIP3    H134676   4.832   2.816   0.447 -0.0161  0.1912 -0.0842
 4395TIP3    H234677   4.923   2.800   0.568 -1.3773 -1.7713  0.7379
 4396TIP3   OH234678   5.470   3.787  12.456 -0.3005 -0.1402 -0.0242
 4396TIP3    H134679   5.381   3.802  12.424  0.1753  2.7043 -0.2552
 4396TIP3    H234680   5.524   3.786  12.377  0.2052  1.2682  0.2772
 4397TIP3   OH234681   0.153   3.578   1.892  0.4362  0.3247 -0.2602
 4397TIP3    H134682   0.160   3.583   1.988  0.7322  0.3879 -0.2850
 4397TIP3    H234683   0.216   3.510   1.867  0.0174 -0.0290 -0.3706
 4398TIP3   OH234684   0.600   4.776  15.056  0.5510 -0.0810  0.1480
 4398TIP3    H134685   0.626   4.867  15.040 -1.0394  0.3246 -0.3970
 4398TIP3    H234686   0.507   4.783  15.081  0.6094 -1.5004  0.8203
 4399TIP3   OH234687   0.455   6.110  14.667  0.1187 -0.4478  0.4029
 4399TIP3    H134688   0.458   6.157  14.584 -1.0934  0.9863  1.1169
 4399TIP3    H234689   0.419   6.173  14.729  0.9529 -1.4895  2.0263
 4400TIP3   OH234690   1.072   0.202   5.161  0.2595 -0.1504 -0.4973
 4400TIP3    H134691   1.025   0.268   5.212 -0.3731 -0.6709 -0.3883
 4400TIP3    H234692   1.005   0.138   5.138  1.0741 -1.3278  0.3299
 4401TIP3   OH234693   5.749   3.512  11.477  0.2218 -0.2987  0.7059
 4401TIP3    H134694   5.819   3.526  11.414  0.9938  0.5260  1.7091
 4401TIP3    H234695   5.668   3.523  11.426  0.8142 -0.2742 -0.2541
 4402TIP3   OH234696   0.677   3.588   3.401  0.1266 -0.0751  0.1148
 4402TIP3    H134697   0.770   3.598   3.422 -0.7869  3.4604  3.4898
 4402TIP3    H234698   0.632   3.603   3.484 -3.5505  0.8701 -1.8624
 4403TIP3   OH234699   4.964   5.777   1.894 -0.4341  0.0759 -0.1945
 4403TIP3    H134700   4.930   5.688   1.887 -0.8124  0.1388  0.6954
 4403TIP3    H234701   4.982   5.789   1.987 -3.5300  2.0402  0.3151
 4404TIP3   OH234702   2.384   4.711   1.758 -0.4613 -0.1564 -0.0615
 4404TIP3    H134703   2.292   4.719   1.732 -0.6253 -0.2775  0.4653
 4404TIP3    H234704   2.431   4.697   1.676 -0.8313  0.5709 -0.4087
 4405TIP3   OH234705   5.414   2.570   5.347 -0.3825  0.3248  0.8191
 4405TIP3    H134706   5.382   2.518   5.273  1.9895 -1.8611  1.1984
 4405TIP3    H234707   5.410   2.660   5.316 -1.5101 -0.3281 -1.1371
 4406TIP3   OH234708   6.399   2.258  14.463  0.3442 -0.1123 -0.2177
 4406TIP3    H134709   6.387   2.245  14.557  1.2811  1.3032  0.1251
 4406TIP3    H234710   6.310   2.264  14.428 -0.0104  0.5340  0.7670
 4407TIP3   OH234711   5.460   4.197  11.588 -0.2912 -0.1752  0.1833
 4407TIP3    H134712   5.517   4.223  11.660  1.0319  0.1617 -0.9285
 4407TIP3    H234713   5.412   4.121  11.621 -0.9291  0.9249  1.9494
 4408TIP3   OH234714   1.131   2.103  12.828  0.2349  0.4274 -0.3662
 4408TIP3    H134715   1.115   2.152  12.908 -0.0699 -0.0302 -0.1365
 4408TIP3    H234716   1.043   2.077  12.798  0.3487  0.5663 -0.8286
 4409TIP3   OH234717   5.291   4.382  15.946  0.0288  0.4677  0.2765
 4409TIP3    H134718   5.241   4.405  15.868 -1.4844 -0.9259  0.7823
 4409TIP3    H234719   5.371   4.435  15.940 -0.1161  0.5230 -2.1058
 4410TIP3   OH234720   3.300   4.782  16.122  0.2114  0.3649  0.0336
 4410TIP3    H134721   3.256   4.725  16.184  0.9580  0.0352  0.2765
 4410TIP3    H234722   3.230   4.834  16.083 -0.2919  0.4683  1.0368
 4411TIP3   OH234723   5.188   0.385  13.369  0.4421 -0.2718 -0.0556
 4411TIP3    H134724   5.275   0.410  13.401  0.0511  0.4324  0.4927
 4411TIP3    H234725   5.199   0.296  13.335  0.9979 -0.8500  1.5560
 4412TIP3   OH234726   3.595   5.025   3.527  0.1999 -0.2163 -0.0034
 4412TIP3    H134727   3.532   5.073   3.580 -1.4351 -1.7100 -0.5092
 4412TIP3    H234728   3.657   4.989   3.590 -1.1283 -1.1195  0.8292
 4413TIP3   OH234729   6.735   3.993  12.484  0.1367 -0.4876  0.4425
 4413TIP3    H134730   6.700   3.998  12.395  1.3339  1.3870  0.0132
 4413TIP3    H234731   6.828   4.013  12.474  0.2108  0.2183  2.1625
 4414TIP3   OH234732   6.348   1.188  16.524 -0.4163 -0.1009  0.3158
 4414TIP3    H134733   6.306   1.234  16.452  0.2906  1.0972  0.6249
 4414TIP3    H234734   6.281   1.183  16.592 -1.2608 -1.7209 -0.5710
 4415TIP3   OH234735   5.998   3.381   6.008  0.1027 -0.1272  0.0506
 4415TIP3    H134736   6.073   3.325   6.030  0.0763  0.5435  2.0709
 4415TIP3    H234737   5.935   3.322   5.968  1.8526 -0.6328 -2.1862
 4416TIP3   OH234738   1.204   2.946   3.499 -0.1897  0.2451 -0.1776
 4416TIP3    H134739   1.273   2.912   3.556  0.1042  0.8871 -0.1391
 4416TIP3    H234740   1.240   3.028   3.464 -0.4087 -0.0863 -1.2009
 4417TIP3   OH234741   3.476   0.191   0.297 -0.1357 -0.1215 -0.1962
 4417TIP3    H134742   3.537   0.261   0.322 -1.4256  0.6345  1.0050
 4417TIP3    H234743   3.523   0.140   0.232  0.6937  2.1466 -1.4904
 4418TIP3   OH234744   1.052   3.164  16.569 -0.0994  0.2572  0.1203
 4418TIP3    H134745   1.115   3.236  16.565 -1.7283  1.6752 -1.8789
 4418TIP3    H234746   1.018   3.168  16.659  0.8439  1.0783  0.4648
 4419TIP3   OH234747   1.295   0.541  11.094 -0.4733 -0.1479 -0.3486
 4419TIP3    H134748   1.262   0.453  11.106 -1.3089  0.0595 -1.0346
 4419TIP3    H234749   1.367   0.549  11.157 -0.6619 -1.1648  0.0056
 4420TIP3   OH234750   4.690   1.606   0.828 -0.3852 -0.0797  0.5044
 4420TIP3    H134751   4.755   1.539   0.811  0.1748  0.5692  0.0264
 4420TIP3    H234752   4.611   1.558   0.853 -0.9352 -1.1014 -2.7175
 4421TIP3   OH234753   0.727   6.293   5.628 -0.8038 -0.1898  0.4202
 4421TIP3    H134754   0.676   6.347   5.568 -0.0209 -0.2704 -0.3345
 4421TIP3    H234755   0.765   6.355   5.690 -1.2161 -0.0578  0.5481
 4422TIP3   OH234756   5.991   3.679  14.066 -0.5505 -0.3881  0.0752
 4422TIP3    H134757   6.037   3.631  14.135 -0.2162 -1.3145 -0.7655
 4422TIP3    H234758   6.003   3.771  14.089  1.2497 -0.6180  0.2000
 4423TIP3   OH234759   1.688   6.028   2.828 -0.0309  0.0158 -0.1801
 4423TIP3    H134760   1.662   6.035   2.736 -0.3413  3.2282  0.0405
 4423TIP3    H234761   1.610   5.993   2.871  0.2012 -1.7710 -1.1137
 4424TIP3   OH234762   2.887   5.581  13.981 -0.3930  0.0131  0.1991
 4424TIP3    H134763   2.977   5.575  14.014 -0.3148 -0.8108 -0.1461
 4424TIP3    H234764   2.839   5.515  14.031 -0.1773 -1.5912 -1.5744
 4425TIP3   OH234765   2.126   0.144   1.615 -0.5634  0.1880  0.1775
 4425TIP3    H134766   2.181   0.067   1.626 -0.9523 -0.0624  0.3734
 4425TIP3    H234767   2.163   0.189   1.539  0.1151  0.1972  0.5022
 4426TIP3   OH234768   0.332   5.213  14.596 -0.0743  0.1684  0.4103
 4426TIP3    H134769   0.425   5.191  14.607  0.0747  1.0864  1.2171
 4426TIP3    H234770   0.326   5.304  14.627 -0.9579  0.6531 -1.1173
 4427TIP3   OH234771   6.284   6.185   5.779 -0.4150 -0.8320  0.2090
 4427TIP3    H134772   6.284   6.225   5.865  0.7082 -1.3733  0.4757
 4427TIP3    H234773   6.353   6.231   5.730  0.4804 -1.9923  0.3336
 4428TIP3   OH234774   3.837   2.498  16.462 -0.1020  0.3509 -0.4492
 4428TIP3    H134775   3.920   2.524  16.502  1.2301 -0.2533 -2.6611
 4428TIP3    H234776   3.803   2.579  16.422  0.4631  0.2106 -1.2439
 4429TIP3   OH234777   3.698   2.913  11.708 -0.3952  0.3653 -0.0185
 4429TIP3    H134778   3.640   2.932  11.782 -2.1587  0.6061 -1.4062
 4429TIP3    H234779   3.778   2.960  11.728 -1.0372  0.8845  1.4718
 4430TIP3   OH234780   4.914   1.243   1.043  0.2453  0.5264  0.9027
 4430TIP3    H134781   4.867   1.299   1.105 -1.1853  0.3034  0.0771
 4430TIP3    H234782   4.957   1.304   0.984 -0.9740  0.7972  0.2521
 4431TIP3   OH234783   2.398   2.051  13.164  0.4542  0.2661  0.0969
 4431TIP3    H134784   2.340   1.978  13.144 -1.9569  1.7174  1.3393
 4431TIP3    H234785   2.399   2.057  13.259  2.1742  0.7240  0.1003
 4432TIP3   OH234786   6.112   0.730   1.405  0.1420 -0.0660  0.1479
 4432TIP3    H134787   6.183   0.726   1.341  1.1706 -0.6775  1.2790
 4432TIP3    H234788   6.155   0.711   1.489 -1.2562  0.1781  0.9406
 4433TIP3   OH234789   3.709   6.555   0.914 -0.1135 -0.2988 -0.1792
 4433TIP3    H134790   3.669   6.488   0.858  3.3572 -0.3646 -2.9665
 4433TIP3    H234791   3.759   6.505   0.979 -0.6788 -0.3340  0.2256
 4434TIP3   OH234792   2.367   1.176  11.992  0.6336 -0.3237  0.3016
 4434TIP3    H134793   2.315   1.254  12.013  0.9589 -0.3391  1.2389
 4434TIP3    H234794   2.352   1.117  12.067 -0.2944 -1.5377 -0.7780
 4435TIP3   OH234795   4.792   5.765  17.089  0.0850 -0.3259  0.1438
 4435TIP3    H134796   4.753   5.839  17.134 -0.2038 -0.4101  0.0408
 4435TIP3    H234797   4.884   5.766  17.114  0.1984  0.3836 -0.2815
 4436TIP3   OH234798   3.424   3.162  15.854  0.5091  0.5629  0.1107
 4436TIP3    H134799   3.343   3.152  15.905 -0.1083  2.2770 -0.4530
 4436TIP3    H234800   3.469   3.079  15.864 -0.5357  0.1557  1.8216
 4437TIP3   OH234801   5.426   2.787   3.303  0.1825  0.4395 -0.0725
 4437TIP3    H134802   5.448   2.695   3.319  1.0889  0.6834  0.1346
 4437TIP3    H234803   5.508   2.834   3.316  0.1224  1.0924 -1.7879
 4438TIP3   OH234804   5.222   2.483   0.730 -0.1383  0.5056 -0.4637
 4438TIP3    H134805   5.299   2.487   0.787  0.3082  0.8263 -1.0758
 4438TIP3    H234806   5.214   2.391   0.706  1.3280  0.7516 -2.0837
 4439TIP3   OH234807   4.704   3.522  11.866  0.2222 -0.0460  0.2470
 4439TIP3    H134808   4.609   3.532  11.859  0.2661  0.0611 -0.2785
 4439TIP3    H234809   4.728   3.469  11.789  0.8193  1.5500 -0.7125
 4440TIP3   OH234810   6.048   4.193  16.172  0.1421  0.5347  0.4895
 4440TIP3    H134811   6.092   4.126  16.120  2.5242  2.4007 -0.0779
 4440TIP3    H234812   6.004   4.144  16.242  1.6930 -1.6134  0.0626
 4441TIP3   OH234813   2.580   1.750   1.210  0.6310  0.2581  0.2751
 4441TIP3    H134814   2.617   1.718   1.292  0.9341  0.1846  0.1104
 4441TIP3    H234815   2.648   1.733   1.144  1.0851  1.8411  0.2858
 4442TIP3   OH234816   5.175   0.599   1.341 -0.6428 -0.1654  0.0192
 4442TIP3    H134817   5.100   0.623   1.396  0.2145  1.3689  0.5785
 4442TIP3    H234818   5.136   0.571   1.258 -1.8803 -0.8489  0.7952
 4443TIP3   OH234819   1.793   2.188   1.200  0.2732  0.4207  0.2173
 4443TIP3    H134820   1.836   2.273   1.215  1.3627  0.3568 -2.1076
 4443TIP3    H234821   1.840   2.150   1.126 -3.3016 -0.0267 -2.0728
 4444TIP3   OH234822   1.778   1.269  11.126  0.0526 -0.4290  0.1912
 4444TIP3    H134823   1.764   1.272  11.031  0.0708 -1.0777  0.1634
 4444TIP3    H234824   1.828   1.348  11.145 -0.6991  0.1576 -0.2103
 4445TIP3   OH234825   6.039   0.974  15.154 -0.0583  0.1861 -0.0956
 4445TIP3    H134826   6.086   1.014  15.227  0.1375  1.2976 -0.7979
 4445TIP3    H234827   5.952   0.954  15.190  0.5881 -0.9427  0.9183
 4446TIP3   OH234828   6.617   0.125   3.001  0.8456  0.3227  0.6536
 4446TIP3    H134829   6.600   0.215   3.029  0.7730  0.3113  0.6464
 4446TIP3    H234830   6.539   0.077   3.027  0.6398  0.3737  0.1569
 4447TIP3   OH234831   5.908   2.597  15.722 -0.6517 -0.0870  0.4781
 4447TIP3    H134832   5.940   2.605  15.632 -2.1662  0.4259 -0.0380
 4447TIP3    H234833   5.982   2.559  15.770  0.5251  0.5420 -0.7685
 4448TIP3   OH234834   3.628   5.116   5.635  0.5285  0.1289 -0.6740
 4448TIP3    H134835   3.684   5.048   5.596  1.1406 -0.1517  0.6284
 4448TIP3    H234836   3.551   5.069   5.665  0.3081  0.2553 -1.0326
 4449TIP3   OH234837   1.452   2.142  13.513  0.2141  0.1857 -0.0798
 4449TIP3    H134838   1.472   2.048  13.516 -0.5894 -0.1390 -2.6159
 4449TIP3    H234839   1.417   2.161  13.600  1.6454 -1.5352  0.9523
 4450TIP3   OH234840   4.602   4.772   4.939  0.2568  0.2859  0.2176
 4450TIP3    H134841   4.615   4.795   5.031 -1.3600 -0.9929  0.7979
 4450TIP3    H234842   4.616   4.855   4.892  0.8704  1.0103  1.6039
 4451TIP3   OH234843   0.496   2.402  16.663 -0.3041 -0.0335  0.5086
 4451TIP3    H134844   0.431   2.332  16.672  0.2338 -0.5190  0.6496
 4451TIP3    H234845   0.450   2.481  16.690 -0.8476 -0.3699  0.5777
 4452TIP3   OH234846   5.880   6.248   5.083  0.4978 -0.1839  0.4413
 4452TIP3    H134847   5.797   6.206   5.108  1.2770 -1.0533  1.7327
 4452TIP3    H234848   5.884   6.327   5.137  0.1546  0.2663 -0.1914
 4453TIP3   OH234849   6.613   6.426   2.162  0.3027  0.2878  0.2566
 4453TIP3    H134850   6.624   6.393   2.251  0.0449 -0.3386  0.0595
 4453TIP3    H234851   6.701   6.454   2.136  0.4504  0.1209  0.5682
 4454TIP3   OH234852   0.821   4.955  12.188  0.5106  0.3695 -0.3673
 4454TIP3    H134853   0.869   4.883  12.229 -2.5338 -0.3820  2.2519
 4454TIP3    H234854   0.861   5.034  12.224  1.0274 -0.1546  0.2256
 4455TIP3   OH234855   5.262   0.062   4.245 -0.8527  0.0450 -0.5422
 4455TIP3    H134856   5.219   0.101   4.321  0.7030 -0.4676  0.6462
 4455TIP3    H234857   5.314  -0.010   4.281  2.1087  1.4496 -1.6343
 4456TIP3   OH234858   1.967   0.345   0.703 -0.3709 -0.0964 -0.8211
 4456TIP3    H134859   1.879   0.361   0.737 -1.2685 -1.5865 -2.2948
 4456TIP3    H234860   1.953   0.303   0.618  1.7749  0.1678 -1.3675
 4457TIP3   OH234861   4.217   2.682   2.132 -0.3468  0.3918 -0.7364
 4457TIP3    H134862   4.269   2.616   2.086  0.3845 -0.1172  0.7377
 4457TIP3    H234863   4.272   2.760   2.133  0.1592  0.0445  0.2650
 4458TIP3   OH234864   2.279   4.234   2.222 -0.1284  0.0546 -0.0415
 4458TIP3    H134865   2.286   4.320   2.180  0.3492 -0.6105 -1.3846
 4458TIP3    H234866   2.360   4.225   2.272  0.7319 -0.3787 -1.4487
 4459TIP3   OH234867   2.483   5.840   2.477 -0.8144 -0.6360  0.4206
 4459TIP3    H134868   2.417   5.781   2.514 -1.7857  0.0541 -0.1454
 4459TIP3    H234869   2.442   5.875   2.398 -0.1296  0.5151  0.5450
 4460TIP3   OH234870   1.450   1.996   4.008 -0.2927  0.3638  0.2749
 4460TIP3    H134871   1.384   1.938   3.971 -0.4751  1.0942 -0.5942
 4460TIP3    H234872   1.442   2.076   3.956  1.6411  0.2777 -0.2038
 4461TIP3   OH234873   5.731   1.660   5.679  0.1915 -0.1618  0.2386
 4461TIP3    H134874   5.726   1.655   5.584  0.4746  1.3884  0.1017
 4461TIP3    H234875   5.762   1.574   5.707 -0.4244 -0.8130 -1.0187
 4462TIP3   OH234876   2.254   6.044   6.320 -0.1583  0.7610  0.0533
 4462TIP3    H134877   2.347   6.026   6.306 -0.2919  0.6509 -0.7481
 4462TIP3    H234878   2.244   6.137   6.300 -0.4780  0.4481 -1.3375
 4463TIP3   OH234879   3.780   5.824   6.211 -0.5712  0.0902 -0.3100
 4463TIP3    H134880   3.839   5.756   6.243  0.0654  0.2147 -1.1850
 4463TIP3    H234881   3.715   5.834   6.281  0.4928  0.0262  0.7222
 4464TIP3   OH234882   6.830   0.938   4.337  0.0002 -0.0321 -0.2266
 4464TIP3    H134883   6.780   0.949   4.418 -2.2489 -1.2502 -1.3621
 4464TIP3    H234884   6.773   0.886   4.281  1.2477  1.1979 -2.7996
 4465TIP3   OH234885   6.357   3.649  11.911 -0.2108 -0.1065  0.4018
 4465TIP3    H134886   6.342   3.561  11.876 -0.2086 -0.3687  1.0604
 4465TIP3    H234887   6.450   3.664  11.898 -0.3236  0.0526 -0.2815
 4466TIP3   OH234888   2.052   6.726  11.593  0.6743  0.5920 -0.6998
 4466TIP3    H134889   2.070   6.651  11.649  0.8714  2.3032  1.7313
 4466TIP3    H234890   2.120   6.724  11.526  0.6319 -1.3856 -0.7236
 4467TIP3   OH234891   0.361   5.838  11.330 -0.1903 -0.6086 -0.2468
 4467TIP3    H134892   0.284   5.830  11.274  0.1276  1.1209 -1.0002
 4467TIP3    H234893   0.336   5.900  11.398  0.2806 -0.6185 -0.0610
 4468TIP3   OH234894   2.147   5.903  10.667  0.1245 -0.4267 -0.4446
 4468TIP3    H134895   2.102   5.830  10.626 -1.7418  1.6463 -2.4110
 4468TIP3    H234896   2.099   5.919  10.748  0.4157 -1.2382 -0.1085
 4469TIP3   OH234897   2.317   5.980   4.547  0.5950  0.1502  0.7739
 4469TIP3    H134898   2.293   6.055   4.602 -0.5843 -0.0812  0.5871
 4469TIP3    H234899   2.372   5.926   4.604 -1.0888 -0.3857  1.9584
 4470TIP3   OH234900   3.490   2.486   4.711  0.3211  0.7555  1.0257
 4470TIP3    H134901   3.510   2.480   4.804 -2.0818 -0.3876  1.5625
 4470TIP3    H234902   3.441   2.406   4.692 -0.6625  1.7279 -0.8350
 4471TIP3   OH234903   3.325   0.068   2.189  0.2520  0.1896  0.0774
 4471TIP3    H134904   3.350   0.136   2.126  1.0372  0.0755  0.2600
 4471TIP3    H234905   3.385   0.079   2.263 -0.2183 -0.1127  0.5182
 4472TIP3   OH234906   2.399   6.727   4.100 -0.2251  0.2510 -0.2581
 4472TIP3    H134907   2.322   6.784   4.108  1.4414  2.5526  0.5100
 4472TIP3    H234908   2.397   6.699   4.008 -3.1300 -1.6323  0.2458
 4473TIP3   OH234909   1.908   4.501  10.366 -0.1766 -0.1697  0.0775
 4473TIP3    H134910   1.869   4.573  10.416  0.3262 -0.3478  0.7366
 4473TIP3    H234911   1.915   4.535  10.277 -1.4839  0.0038  0.0150
 4474TIP3   OH234912   1.036   0.973   5.563 -0.3657  0.4363 -0.2570
 4474TIP3    H134913   1.035   0.980   5.659  0.1999 -1.6494 -0.0616
 4474TIP3    H234914   1.121   1.009   5.538 -0.5325  1.0287  0.0043
 4475TIP3   OH234915   6.321   4.998  16.213 -0.2526  0.0068 -0.2525
 4475TIP3    H134916   6.340   5.080  16.257 -0.9853 -1.3747  2.9338
 4475TIP3    H234917   6.225   4.995  16.207 -0.2145 -0.3897 -0.8635
 4476TIP3   OH234918   3.488   1.146  12.095 -0.2336  0.4264  0.0717
 4476TIP3    H134919   3.491   1.131  12.189 -0.5682 -0.5537 -0.0595
 4476TIP3    H234920   3.452   1.065  12.059 -0.0351  0.7580 -0.9083
 4477TIP3   OH234921   4.281   3.696   3.178  0.2857 -0.1370 -0.2181
 4477TIP3    H134922   4.210   3.643   3.214  1.1435 -0.9158  0.3945
 4477TIP3    H234923   4.317   3.742   3.254  0.5435  0.1228 -0.4945
 4478TIP3   OH234924   6.559   4.422  11.029  0.1557  0.6528 -0.4116
 4478TIP3    H134925   6.553   4.334  11.068 -0.2864  1.4020  1.2884
 4478TIP3    H234926   6.560   4.406  10.935  0.1245 -1.1842 -0.1364
 4479TIP3   OH234927   0.028   2.295  14.428  0.8273  0.1487  0.5142
 4479TIP3    H134928   0.026   2.364  14.494 -0.5922  0.3995  0.2347
 4479TIP3    H234929   0.100   2.238  14.455  2.2414  1.8775  0.5784
 4480TIP3   OH234930   2.398   1.940   1.343 -0.4017  0.1630  0.6393
 4480TIP3    H134931   2.474   1.897   1.304  0.6286  2.4820 -0.1285
 4480TIP3    H234932   2.419   1.946   1.436 -1.0649 -1.8559  0.9673
 4481TIP3   OH234933   3.887   2.036  11.808  0.3516 -0.1366 -0.0335
 4481TIP3    H134934   3.928   2.093  11.743 -0.6146 -3.2046 -3.7162
 4481TIP3    H234935   3.953   1.969  11.825  0.0211 -0.2188  0.9494
 4482TIP3   OH234936   5.391   2.131   4.846 -0.1366 -0.2248 -0.4995
 4482TIP3    H134937   5.380   2.096   4.935  0.7939  0.1050 -0.2345
 4482TIP3    H234938   5.390   2.054   4.789  3.4226 -0.9911  0.2081
 4483TIP3   OH234939   3.516   6.375   2.363 -0.0814 -0.5291 -0.2728
 4483TIP3    H134940   3.503   6.325   2.444  2.6742 -1.4854 -0.3305
 4483TIP3    H234941   3.513   6.309   2.294  1.4901 -0.3591 -0.5385
 4484TIP3   OH234942   3.788   4.554  10.717 -0.1074 -0.2454 -0.2840
 4484TIP3    H134943   3.743   4.594  10.643 -1.1436  1.7484  1.2971
 4484TIP3    H234944   3.797   4.461  10.694  0.7888  0.5096 -3.3903
 4485TIP3   OH234945   6.405   3.918  12.077 -0.0914  0.9876  0.1280
 4485TIP3    H134946   6.421   3.829  12.107 -1.7809  0.6175 -0.0096
 4485TIP3    H234947   6.442   3.920  11.988  1.7606  1.0597  0.8489
 4486TIP3   OH234948   2.177   4.160  15.036 -0.0693 -0.8851 -0.1120
 4486TIP3    H134949   2.195   4.250  15.063 -2.0080 -0.8327  1.2684
 4486TIP3    H234950   2.110   4.168  14.969 -0.7242 -1.3051  0.4810
 4487TIP3   OH234951   0.111   6.519   1.849 -0.5227 -0.9142  0.0831
 4487TIP3    H134952   0.132   6.572   1.926 -0.6334  1.0361 -1.1871
 4487TIP3    H234953   0.090   6.432   1.885  1.9055 -0.7875  2.0383
 4488TIP3   OH234954   2.940   5.123   6.568 -0.0371  0.8426 -0.0640
 4488TIP3    H134955   2.988   5.041   6.577  0.7494  1.2174 -0.6280
 4488TIP3    H234956   2.848   5.098   6.567  0.2230 -0.2255 -1.9281
 4489TIP3   OH234957   5.956   3.729   5.636 -1.0497 -0.3374 -0.1173
 4489TIP3    H134958   6.041   3.768   5.613 -0.1785 -2.7417 -1.2922
 4489TIP3    H234959   5.965   3.705   5.728 -1.0290  0.7704  0.1795
 4490TIP3   OH234960   4.931   3.841   5.164 -0.2533 -0.1832  0.8522
 4490TIP3    H134961   4.950   3.796   5.247  1.4672 -1.0675  0.0300
 4490TIP3    H234962   4.865   3.787   5.122 -0.0461 -0.5551  0.9987
 4491TIP3   OH234963   5.746   5.994  15.164 -0.0761  0.3798 -0.2361
 4491TIP3    H134964   5.803   5.990  15.241  0.4134 -0.4626 -0.6211
 4491TIP3    H234965   5.657   5.996  15.200  0.1117 -0.8721  0.3716
 4492TIP3   OH234966   4.156   0.082  14.351 -0.1862 -0.0702  0.5522
 4492TIP3    H134967   4.204   0.160  14.325  0.9222 -1.4197 -1.8072
 4492TIP3    H234968   4.064   0.104  14.335  0.0339  1.0201  0.7243
 4493TIP3   OH234969   0.321   6.043   4.170  0.0423 -0.8764 -0.0595
 4493TIP3    H134970   0.287   6.090   4.094 -0.9996 -0.4330  0.6478
 4493TIP3    H234971   0.347   6.112   4.231 -1.4845 -1.1676  0.9811
 4494TIP3   OH234972   1.377   2.853  11.914  0.3423 -0.1115 -0.0448
 4494TIP3    H134973   1.294   2.900  11.906  0.3805 -0.3277 -2.2509
 4494TIP3    H234974   1.400   2.861  12.006 -1.8880  0.3628  0.5269
 4495TIP3   OH234975   0.787   6.841  15.750 -0.1961  0.1177  0.4817
 4495TIP3    H134976   0.755   6.926  15.781 -2.2974 -0.1046 -0.9011
 4495TIP3    H234977   0.879   6.840  15.776 -0.4013  2.3211  1.5477
 4496TIP3   OH234978   3.084   2.611  12.163  0.1154  0.0832  0.2653
 4496TIP3    H134979   3.151   2.573  12.219  0.7755 -0.7250 -1.0134
 4496TIP3    H234980   3.063   2.695  12.204  1.2334 -0.0658  1.1944
 4497TIP3   OH234981   2.735   4.237  12.017  0.4555  0.4096  0.1010
 4497TIP3    H134982   2.828   4.216  12.029 -0.0848 -1.4050  1.5034
 4497TIP3    H234983   2.714   4.295  12.090  0.5747  1.2615 -0.5195
 4498TIP3   OH234984   3.243   0.469  16.125  0.5269  0.3601  0.5130
 4498TIP3    H134985   3.237   0.409  16.199 -1.9397 -0.7280 -0.4776
 4498TIP3    H234986   3.239   0.556  16.165  1.7788 -0.1336  1.7964
 4499TIP3   OH234987   1.742   3.661  12.860 -0.8222  0.3362  0.2434
 4499TIP3    H134988   1.722   3.750  12.829  0.8200  1.1733  1.4298
 4499TIP3    H234989   1.762   3.672  12.953 -1.1637 -1.3844  0.5447
 4500TIP3   OH234990   6.455   0.197   0.595 -0.2749 -0.0399 -0.2998
 4500TIP3    H134991   6.438   0.103   0.590 -0.6724  0.0280 -0.2096
 4500TIP3    H234992   6.434   0.221   0.685 -0.3735  0.1749 -0.3785
 4501TIP3   OH234993   1.191   0.505  14.869 -0.3556  0.1293  0.4525
 4501TIP3    H134994   1.168   0.596  14.849 -2.1213 -0.2566  0.5136
 4501TIP3    H234995   1.283   0.508  14.893 -0.8296  2.2122  2.3393
 4502TIP3   OH234996   6.194   4.682   4.524  0.2287  0.7885 -0.4697
 4502TIP3    H134997   6.108   4.647   4.502  0.4979 -0.3507  0.2095
 4502TIP3    H234998   6.210   4.749   4.458  0.0582 -0.9751 -2.4025
 4503TIP3   OH234999   1.271   1.805  14.648  0.2980 -0.3097 -0.1730
 4503TIP3    H135000   1.293   1.789  14.740  1.3668 -0.8534 -0.5080
 4503TIP3    H235001   1.272   1.900  14.639 -1.0469 -0.1854  0.6463
 4504TIP3   OH235002   5.235   4.965   1.847  0.1156  0.0549 -0.0349
 4504TIP3    H135003   5.260   4.888   1.796  0.8762  0.4270 -0.2254
 4504TIP3    H235004   5.281   4.954   1.930 -0.8829 -0.3977  0.4801
 4505TIP3   OH235005   4.520   0.080  16.102 -0.7136  0.0407  0.2035
 4505TIP3    H135006   4.568   0.027  16.038  0.2112  0.2984  0.6612
 4505TIP3    H235007   4.536   0.170  16.074 -0.0550  0.1663  0.9530
 4506TIP3   OH235008   3.102   4.190   5.572 -0.3035 -0.2643  0.3529
 4506TIP3    H135009   3.076   4.123   5.634  0.7434  0.1756  1.3060
 4506TIP3    H235010   3.105   4.271   5.623 -3.3900  0.9493 -1.1627
 4507TIP3   OH235011   4.443   2.760  15.514  0.6243 -0.2331  0.5153
 4507TIP3    H135012   4.461   2.682  15.566 -0.4324 -1.3990 -0.7600
 4507TIP3    H235013   4.349   2.775  15.525  0.2697 -0.8117 -1.3791
 4508TIP3   OH235014   2.095   0.470  14.961 -0.3835 -0.5372  0.4987
 4508TIP3    H135015   2.129   0.529  15.028  1.4854 -1.7731  0.6949
 4508TIP3    H235016   2.112   0.516  14.878  1.5472 -0.9556  0.6155
 4509TIP3   OH235017   6.232   1.148   5.031  0.2707  0.0399  0.0535
 4509TIP3    H135018   6.278   1.215   4.982 -0.3814  0.7042  0.3341
 4509TIP3    H235019   6.301   1.094   5.071  0.8077 -0.3207 -1.3161
 4510TIP3   OH235020   5.456   5.501   2.735 -0.1687 -0.3706 -0.4588
 4510TIP3    H135021   5.455   5.498   2.831 -0.9521 -0.1961 -0.4553
 4510TIP3    H235022   5.461   5.595   2.715 -0.4300 -0.3884 -0.5944
 4511TIP3   OH235023   3.220   5.109  13.203 -0.0852  0.2216 -0.0590
 4511TIP3    H135024   3.225   5.077  13.113  0.8669  0.6864 -0.1906
 4511TIP3    H235025   3.309   5.141  13.221 -0.3558  0.4339  0.9299
 4512TIP3   OH235026   5.479   1.531   0.180 -0.3143 -0.5786  0.6196
 4512TIP3    H135027   5.466   1.624   0.195 -1.2610 -0.4532 -0.8276
 4512TIP3    H235028   5.497   1.495   0.267  0.0165  0.9353  1.1971
 4513TIP3   OH235029   6.365   3.202  16.433  0.1669  0.3996 -0.3093
 4513TIP3    H135030   6.323   3.218  16.348  1.3708  0.6627 -0.8714
 4513TIP3    H235031   6.420   3.125  16.419 -1.3043 -0.9496  0.8720
 4514TIP3   OH235032   0.104   2.145  13.641 -0.5919  0.3254 -0.0356
 4514TIP3    H135033   0.147   2.212  13.695 -0.4850  0.2230  0.0101
 4514TIP3    H235034   0.055   2.194  13.575 -1.6088  0.4796  0.8174
 4515TIP3   OH235035   0.185   0.978   4.753  0.4314 -0.0729 -0.1166
 4515TIP3    H135036   0.170   0.954   4.662  0.3746  0.1302 -0.1636
 4515TIP3    H235037   0.269   0.938   4.775  0.3149 -0.3512 -0.1743
 4516TIP3   OH235038   2.077   2.947   3.137  0.2341 -0.2795  0.1738
 4516TIP3    H135039   2.158   2.927   3.090 -0.0080 -1.8191  0.3488
 4516TIP3    H235040   2.025   2.999   3.076  0.8314 -0.3748 -0.4250
 4517TIP3   OH235041   2.029   1.449   4.927 -0.1030  0.3672  0.0218
 4517TIP3    H135042   1.972   1.415   4.858 -1.1191  2.4075 -0.2231
 4517TIP3    H235043   2.118   1.435   4.893 -0.4998 -0.7745 -0.6223
 4518TIP3   OH235044   3.231   3.577   3.783  0.2585 -0.3112 -0.3039
 4518TIP3    H135045   3.293   3.646   3.760 -1.4428  0.7558 -1.9234
 4518TIP3    H235046   3.272   3.497   3.750  0.8484  0.3438 -1.2147
 4519TIP3   OH235047   3.620   0.262  12.269  0.2840 -0.0150  0.1991
 4519TIP3    H135048   3.714   0.253  12.281  0.6412 -0.3976 -2.3803
 4519TIP3    H235049   3.582   0.205  12.337  1.9434 -1.0800  0.3005
 4520TIP3   OH235050   5.392   2.113  13.852 -0.2145 -0.5849 -0.0196
 4520TIP3    H135051   5.375   2.048  13.920  2.9782 -1.4203  0.1418
 4520TIP3    H235052   5.363   2.071  13.771  1.7820 -2.3487  0.0871
 4521TIP3   OH235053   4.621   3.937   1.088 -0.7098  0.4828  0.2421
 4521TIP3    H135054   4.627   3.889   1.171 -0.2239 -1.7382 -1.0064
 4521TIP3    H235055   4.670   3.884   1.026 -2.7171  1.0338 -1.9436
 4522TIP3   OH235056   2.011   6.332   2.784 -0.4376  0.1502  0.3413
 4522TIP3    H135057   1.927   6.303   2.819 -0.0570  0.2582  1.3874
 4522TIP3    H235058   2.074   6.309   2.852  0.2140  1.1437  0.0919
 4523TIP3   OH235059   0.904   6.719  11.648  0.0556  0.0293 -0.0554
 4523TIP3    H135060   0.859   6.802  11.668  0.5685  0.3666 -0.2881
 4523TIP3    H235061   0.987   6.725  11.694 -0.1432 -0.6190  0.4106
 4524TIP3   OH235062   1.797   1.449  15.524 -0.0211 -0.0956 -0.0737
 4524TIP3    H135063   1.785   1.368  15.572  0.8970  1.1380  2.3758
 4524TIP3    H235064   1.709   1.474  15.497 -0.3190 -1.8559 -0.8958
 4525TIP3   OH235065   3.646   1.538  11.308 -0.2394 -0.2277 -0.4821
 4525TIP3    H135066   3.620   1.540  11.400  0.9796 -2.6804 -0.0171
 4525TIP3    H235067   3.564   1.548  11.260 -1.3959 -2.4044  0.9107
 4526TIP3   OH235068   0.928   5.293  14.889 -0.6757 -0.0864 -0.0720
 4526TIP3    H135069   0.952   5.350  14.962 -1.3095  0.6307 -0.4076
 4526TIP3    H235070   0.927   5.205  14.926 -0.7747  0.2450  0.7306
 4527TIP3   OH235071   1.388   4.528   1.103  0.2979 -0.4060 -0.1710
 4527TIP3    H135072   1.336   4.536   1.183  2.6241 -0.7026  1.4625
 4527TIP3    H235073   1.401   4.434   1.093  1.2971 -0.2916 -0.0025
 4528TIP3   OH235074   2.560   0.090   4.095  0.3389 -0.1637 -0.4747
 4528TIP3    H135075   2.564   0.161   4.159 -0.1197  2.2732 -2.9527
 4528TIP3    H235076   2.494   0.031   4.130 -1.0413  1.8764  0.6142
 4529TIP3   OH235077   4.048   1.992   5.021  0.2545 -0.1046 -0.0786
 4529TIP3    H135078   4.049   1.900   4.995 -0.2644  0.0046 -0.5149
 4529TIP3    H235079   3.960   2.022   4.997 -0.3059 -0.0150  1.8791
 4530TIP3   OH235080   1.105   4.543  15.721  0.3070  0.1701  0.4839
 4530TIP3    H135081   1.116   4.463  15.774 -2.5945 -0.1124  0.8057
 4530TIP3    H235082   1.193   4.562  15.689  1.0901 -3.3810  0.0824
 4531TIP3   OH235083   6.797   3.498  11.232  0.6066 -0.0803  0.4468
 4531TIP3    H135084   6.822   3.566  11.169  1.3484 -0.9832 -0.2603
 4531TIP3    H235085   6.823   3.416  11.190 -2.0382 -0.9807  0.4271
 4532TIP3   OH235086   4.666   1.532   2.221 -0.4670  0.1480  0.4640
 4532TIP3    H135087   4.628   1.618   2.241  0.9336  0.6403  1.0927
 4532TIP3    H235088   4.753   1.535   2.260 -0.2408 -1.4121  0.1141
 4533TIP3   OH235089   1.010   5.434  15.436  0.6130  0.2443  0.0857
 4533TIP3    H135090   0.966   5.386  15.507  1.3685 -1.5274 -0.5787
 4533TIP3    H235091   1.020   5.523  15.470 -1.4978  0.1559  1.1010
 4534TIP3   OH235092   4.585   6.770   4.158 -0.1110 -0.7009 -0.0933
 4534TIP3    H135093   4.509   6.826   4.173 -0.5136 -0.7887 -1.7067
 4534TIP3    H235094   4.648   6.826   4.113 -0.8512 -1.6874 -2.5314
 4535TIP3   OH235095   1.581   2.832  15.323 -0.2460 -0.0582 -0.0632
 4535TIP3    H135096   1.585   2.740  15.349 -0.2802 -0.1119 -0.2519
 4535TIP3    H235097   1.543   2.831  15.236  0.6285  0.0702 -0.4549
 4536TIP3   OH235098   1.816   5.082   4.496 -0.1657 -0.1854 -0.2997
 4536TIP3    H135099   1.897   5.097   4.546 -0.8038 -1.6720  1.3031
 4536TIP3    H235100   1.844   5.082   4.404  0.9743  3.1282 -0.0930
 4537TIP3   OH235101   6.370   0.098   3.353  0.1441  0.3452  0.3284
 4537TIP3    H135102   6.464   0.086   3.366 -0.0818 -1.8451  0.2642
 4537TIP3    H235103   6.355   0.069   3.263 -0.8247 -0.9213  0.8834
 4538TIP3   OH235104   2.866   6.243   0.244 -0.3046 -0.7386 -0.1405
 4538TIP3    H135105   2.866   6.321   0.299 -1.4818 -0.9151  0.1406
 4538TIP3    H235106   2.926   6.183   0.287  0.8422  0.0950 -0.5128
 4539TIP3   OH235107   4.601   3.144   3.521  0.6743 -0.6253 -0.0331
 4539TIP3    H135108   4.634   3.112   3.437  0.0559  0.9300 -0.9076
 4539TIP3    H235109   4.560   3.068   3.561  0.7034 -1.3270 -1.2820
 4540TIP3   OH235110   1.946   1.488   5.188 -0.2694 -0.4432 -0.2130
 4540TIP3    H135111   1.914   1.578   5.181 -0.5563 -0.4685  0.6798
 4540TIP3    H235112   1.978   1.467   5.100  2.8697  1.6668  0.2681
 4541TIP3   OH235113   5.580   3.123   5.493 -0.3845 -0.5327 -0.1087
 4541TIP3    H135114   5.497   3.144   5.450 -0.8117 -0.9510  0.4970
 4541TIP3    H235115   5.611   3.044   5.448  1.1872  1.2146 -2.3391
 4542TIP3   OH235116   4.979   4.848   4.740 -0.1398 -0.0517  0.2023
 4542TIP3    H135117   4.995   4.758   4.768  1.0629 -0.4445 -1.6144
 4542TIP3    H235118   4.886   4.849   4.715  0.1983 -1.2370 -1.2158
 4543TIP3   OH235119   1.164   0.014   2.185 -0.0781 -0.1536  0.3252
 4543TIP3    H135120   1.073   0.035   2.207  0.2866  1.1963  0.5954
 4543TIP3    H235121   1.181  -0.068   2.232 -1.5454 -1.1393 -0.7794
 4544TIP3   OH235122   2.135   4.815  11.713 -0.5253 -0.0051 -0.4082
 4544TIP3    H135123   2.162   4.872  11.785  1.0174 -0.6729 -0.4318
 4544TIP3    H235124   2.098   4.738  11.756 -0.7155  0.1108 -0.3600
 4545TIP3   OH235125   3.051   5.028   5.927  0.6033 -0.4796 -0.0118
 4545TIP3    H135126   3.026   5.094   5.992  0.6999 -1.3634  0.9549
 4545TIP3    H235127   3.143   5.010   5.945  0.4816 -1.1392 -0.0242
 4546TIP3   OH235128   5.372   0.715   1.192 -0.4134  0.4933  0.1826
 4546TIP3    H135129   5.460   0.714   1.232 -0.1705  2.3545 -0.2137
 4546TIP3    H235130   5.314   0.686   1.263  0.4907 -0.6990  0.4760
 4547TIP3   OH235131   4.701   4.774  12.393 -0.2331 -0.1502 -0.4173
 4547TIP3    H135132   4.644   4.762  12.469 -0.6162  0.5950 -0.5784
 4547TIP3    H235133   4.697   4.691  12.347 -0.8301 -0.2571 -0.1811
 4548TIP3   OH235134   2.162   1.113  12.861 -0.1125 -0.2933 -0.2905
 4548TIP3    H135135   2.235   1.147  12.913 -0.1572 -1.4931  0.6020
 4548TIP3    H235136   2.088   1.113  12.922 -0.7870  0.5890 -1.0880
 4549TIP3   OH235137   6.030   1.320   6.460  0.4098 -0.0617 -0.0619
 4549TIP3    H135138   5.966   1.391   6.457 -0.8006 -0.9320  2.3408
 4549TIP3    H235139   6.056   1.307   6.369 -1.6713  1.3884 -0.9401
 4550TIP3   OH235140   0.524   0.468   5.287 -0.0927  0.2715 -0.1046
 4550TIP3    H135141   0.605   0.517   5.299 -0.9064  1.7913 -0.4993
 4550TIP3    H235142   0.499   0.441   5.375  0.3093  0.6994  0.1449
 4551TIP3   OH235143   3.002   0.597  14.304  0.2095  1.0914 -0.9784
 4551TIP3    H135144   3.046   0.604  14.389 -0.2948  0.0866 -0.6111
 4551TIP3    H235145   2.921   0.647  14.314 -1.3880 -1.5323  0.2400
 4552TIP3   OH235146   6.465   1.663   4.730  0.0098  0.0488 -0.0395
 4552TIP3    H135147   6.542   1.629   4.775 -0.6073  1.1808  1.9950
 4552TIP3    H235148   6.392   1.616   4.769 -0.5954  1.5510  0.7568
 4553TIP3   OH235149   5.600   0.701  12.712  0.1404  0.3967  0.1172
 4553TIP3    H135150   5.616   0.756  12.788  0.5701 -0.2795  0.5318
 4553TIP3    H235151   5.686   0.670  12.686 -0.0781  0.0460 -0.2023
 4554TIP3   OH235152   0.962   0.275  17.192  0.2287  0.4519 -0.3104
 4554TIP3    H135153   0.976   0.360  17.232 -0.9918 -0.0229  1.2342
 4554TIP3    H235154   0.998   0.283  17.104  1.5721  2.0396  0.3397
 4555TIP3   OH235155   4.313   0.028  12.252  0.0210 -0.2570  1.0174
 4555TIP3    H135156   4.405   0.050  12.266 -0.5572  2.1449  1.3163
 4555TIP3    H235157   4.309  -0.066  12.270  2.8474 -0.9866 -1.3249
 4556TIP3   OH235158   3.538   1.445  13.997  0.7811  0.0964 -0.1090
 4556TIP3    H135159   3.550   1.357  14.033 -0.0134 -0.6656 -1.6375
 4556TIP3    H235160   3.462   1.438  13.939 -0.5369  2.2536  1.2007
 4557TIP3   OH235161   3.728   1.612   3.921  0.8524 -0.4568 -0.1500
 4557TIP3    H135162   3.640   1.576   3.910 -0.3168  2.2621 -0.4552
 4557TIP3    H235163   3.725   1.699   3.880  2.7316  1.0383  2.5033
 4558TIP3   OH235164   2.141   3.294  15.717  0.3069 -0.4103  0.4010
 4558TIP3    H135165   2.121   3.238  15.792 -0.9700 -0.7635 -0.1767
 4558TIP3    H235166   2.096   3.253  15.643 -0.7392  1.3764 -0.0231
 4559TIP3   OH235167   0.430   1.916   5.218 -0.0147  0.2303 -0.2132
 4559TIP3    H135168   0.520   1.897   5.244 -0.5728 -2.9279 -0.2423
 4559TIP3    H235169   0.429   1.900   5.123 -0.1543  2.4087 -0.6205
 4560TIP3   OH235170   6.320   5.315   0.090 -0.1283  0.0662  0.8021
 4560TIP3    H135171   6.317   5.258   0.013  2.4771  1.0937 -0.1574
 4560TIP3    H235172   6.345   5.258   0.162 -1.6965 -0.7367  0.7479
 4561TIP3   OH235173   2.050   6.289  15.862 -1.2823 -0.4021  0.3187
 4561TIP3    H135174   1.960   6.274  15.834 -1.0163  0.5817 -1.1949
 4561TIP3    H235175   2.074   6.373  15.821 -0.6084  0.7959  2.9715
 4562TIP3   OH235176   4.396   2.601  13.489 -0.8504  0.5039 -0.1234
 4562TIP3    H135177   4.319   2.590  13.545 -0.7735 -0.3364 -0.1605
 4562TIP3    H235178   4.422   2.511  13.468  0.4346  0.7580  0.2906
 4563TIP3   OH235179   5.610   6.432   5.107 -0.1176  0.0486  0.2120
 4563TIP3    H135180   5.591   6.522   5.134 -2.5626 -0.2629 -0.1743
 4563TIP3    H235181   5.603   6.381   5.187 -1.6124 -0.1303 -0.0049
 4564TIP3   OH235182   0.484   5.990   4.849 -0.6177 -0.0878 -0.1623
 4564TIP3    H135183   0.566   5.962   4.890  0.8029  0.4999 -2.4746
 4564TIP3    H235184   0.431   6.023   4.922  1.0612 -0.7438  1.4285
 4565TIP3   OH235185   0.060   1.866  13.564  0.0525 -0.2924 -0.2089
 4565TIP3    H135186   0.103   1.936  13.613 -2.4176  0.0658  1.6383
 4565TIP3    H235187   0.127   1.798  13.556  1.8016  1.3019  0.0059
 4566TIP3   OH235188   2.792   6.529   1.766 -0.2654 -0.1626  0.5388
 4566TIP3    H135189   2.842   6.586   1.709 -1.4123  0.6068  0.2643
 4566TIP3    H235190   2.788   6.575   1.850  0.4066 -0.7340  0.8938
 4567TIP3   OH235191   6.712   4.282   0.832 -0.1375  0.6407  0.1781
 4567TIP3    H135192   6.735   4.258   0.742  0.3375 -1.3556  0.7773
 4567TIP3    H235193   6.790   4.262   0.883 -1.1514 -0.5012  1.3595
 4568TIP3   OH235194   0.416   6.070   1.742  0.2280  0.4124 -0.0876
 4568TIP3    H135195   0.353   6.008   1.705  0.5738  0.7651 -1.3096
 4568TIP3    H235196   0.367   6.115   1.811 -1.2923  1.5564 -1.8256
 4569TIP3   OH235197   5.069   1.526  17.010  0.1176  0.4610 -0.3732
 4569TIP3    H135198   5.049   1.436  17.036 -0.2963  0.4819 -0.6237
 4569TIP3    H235199   5.163   1.535  17.027  0.2007 -0.0784 -0.5220
 4570TIP3   OH235200   2.005   3.245   0.687 -0.3306  0.4421  0.2637
 4570TIP3    H135201   2.015   3.245   0.783 -0.0075  0.5602  0.2295
 4570TIP3    H235202   1.921   3.287   0.672 -1.0068 -0.7289  0.5653
 4571TIP3   OH235203   3.632   5.371  10.991  0.1430  0.1423 -0.1731
 4571TIP3    H135204   3.641   5.438  11.059  0.9279 -1.5588  1.5165
 4571TIP3    H235205   3.538   5.358  10.982  0.0273 -0.6427  1.7341
 4572TIP3   OH235206   0.079   5.469  13.926 -0.2077  0.4840 -0.2303
 4572TIP3    H135207   0.061   5.385  13.883  0.1041  0.5113 -0.4119
 4572TIP3    H235208   0.157   5.452  13.980 -0.3368  0.5695 -0.0142
 4573TIP3   OH235209   2.678   2.217   0.795  0.0490  0.0586 -0.3195
 4573TIP3    H135210   2.627   2.296   0.778 -0.8771 -0.2613  0.8064
 4573TIP3    H235211   2.759   2.248   0.835 -0.2135  0.4639 -0.0946
 4574TIP3   OH235212   6.371   4.105   0.294  0.2977 -0.2353 -0.0872
 4574TIP3    H135213   6.309   4.040   0.261  1.2430 -0.5091 -1.3599
 4574TIP3    H235214   6.383   4.166   0.222  1.0765  0.1467  0.3539
 4575TIP3   OH235215   5.731   3.091   2.033  0.2361  0.1876 -0.2874
 4575TIP3    H135216   5.791   3.122   1.966  0.5969 -2.2791 -1.2311
 4575TIP3    H235217   5.781   3.026   2.082 -0.3956  1.1161  1.6563
 4576TIP3   OH235218   5.948   0.959   0.887  0.2189 -0.2037 -0.0279
 4576TIP3    H135219   5.978   1.019   0.955  1.6249 -1.0047  0.0933
 4576TIP3    H235220   5.875   0.912   0.927  1.2775 -0.9490  1.1094
 4577TIP3   OH235221   2.674   2.672   2.008  0.3904 -0.2799 -0.4266
 4577TIP3    H135222   2.737   2.708   2.070  1.6943 -1.5871 -0.9072
 4577TIP3    H235223   2.722   2.666   1.926  0.4994 -3.4889 -0.2643
 4578TIP3   OH235224   4.050   2.257   0.240  0.0280 -0.5377 -0.2785
 4578TIP3    H135225   3.982   2.207   0.195 -1.4824  2.1189 -1.1492
 4578TIP3    H235226   4.033   2.240   0.333 -1.7446 -0.1396 -0.4775
 4579TIP3   OH235227   1.085   1.917   3.222 -0.1881 -0.3284  0.2966
 4579TIP3    H135228   1.019   1.985   3.214  0.7086  0.4705 -0.6401
 4579TIP3    H235229   1.159   1.959   3.266  0.1031 -0.8931  0.3683
 4580TIP3   OH235230   5.384   5.670  14.890 -0.3760 -0.1487  0.0563
 4580TIP3    H135231   5.401   5.590  14.940  1.4504 -0.9452 -1.6760
 4580TIP3    H235232   5.459   5.726  14.907 -1.8237  1.4430  1.5480
 4581TIP3   OH235233   1.453   3.594   5.388 -0.1735 -0.0271  0.3224
 4581TIP3    H135234   1.373   3.634   5.424 -1.5707  0.3135 -2.8095
 4581TIP3    H235235   1.498   3.666   5.344 -0.7390 -1.0441 -2.0928
 4582TIP3   OH235236   1.060   5.595   0.025  0.4602  0.0181  0.3351
 4582TIP3    H135237   1.103   5.558   0.102  2.4233 -1.1250 -1.2040
 4582TIP3    H235238   1.131   5.633  -0.027 -0.8866  1.4237 -0.5870
 4583TIP3   OH235239   0.003   4.528   5.329  0.2866 -1.1228  0.1008
 4583TIP3    H135240  -0.080   4.537   5.282 -0.1682 -2.7586  0.5445
 4583TIP3    H235241   0.061   4.484   5.266  0.8835  0.1089 -0.2479
 4584TIP3   OH235242   1.580   1.731   3.773  0.2266 -0.3693 -0.6818
 4584TIP3    H135243   1.512   1.784   3.732  0.8871  1.7206  0.7746
 4584TIP3    H235244   1.654   1.736   3.713 -0.0542 -0.4907 -1.0377
 4585TIP3   OH235245   0.506   3.673  14.855  0.4446 -0.2212  0.3862
 4585TIP3    H135246   0.577   3.610  14.873 -0.0850 -1.2234 -0.8782
 4585TIP3    H235247   0.443   3.623  14.804  0.3528  1.5551 -1.3251
 4586TIP3   OH235248   5.092   6.233   5.066 -0.4323 -0.2414  0.2741
 4586TIP3    H135249   5.054   6.309   5.108 -0.7336  0.1586 -0.6916
 4586TIP3    H235250   5.178   6.263   5.036 -0.4713 -0.3433  0.0614
 4587TIP3   OH235251   2.776   6.520  16.460  0.2007  0.9882 -0.2588
 4587TIP3    H135252   2.738   6.595  16.415  2.4783  1.8148 -0.9338
 4587TIP3    H235253   2.733   6.519  16.546 -0.0661  2.8851 -0.3378
 4588TIP3   OH235254   0.318   0.061   3.436  0.7378  0.2928  0.7896
 4588TIP3    H135255   0.258   0.014   3.494  1.4150  0.4641  1.6459
 4588TIP3    H235256   0.401   0.016   3.446  0.5376 -0.6093 -1.1979
 4589TIP3   OH235257   5.228   4.522   0.018  0.0077  0.4851 -0.1803
 4589TIP3    H135258   5.264   4.460   0.081  1.5644 -0.1281 -1.5669
 4589TIP3    H235259   5.277   4.603   0.033 -0.1440  0.5597 -0.0966
 4590TIP3   OH235260   6.033   0.950   6.103  0.3369 -0.0194 -0.4561
 4590TIP3    H135261   6.040   0.988   6.191 -2.3677  0.1500 -0.2349
 4590TIP3    H235262   6.024   0.856   6.118 -2.6703  0.1983 -0.2578
 4591TIP3   OH235263   4.584   6.545  17.077  0.1160  0.5653 -0.5113
 4591TIP3    H135264   4.499   6.520  17.041  0.8886  0.8106 -2.6415
 4591TIP3    H235265   4.564   6.616  17.138 -1.4074 -0.9068  0.8094
 4592TIP3   OH235266   0.275   0.502  15.075  0.3613  0.3862  0.1078
 4592TIP3    H135267   0.249   0.588  15.043  1.1213  0.8518  0.6934
 4592TIP3    H235268   0.218   0.486  15.151  2.5342  2.0078  2.2412
 4593TIP3   OH235269   4.105   3.382  13.662 -0.5660  0.8555  0.6031
 4593TIP3    H135270   4.151   3.426  13.733 -2.5793  0.3448  2.2958
 4593TIP3    H235271   4.167   3.315  13.631 -0.2662 -0.1382  3.1096
 4594TIP3   OH235272   4.573   1.913   5.873  0.3095  0.2580 -0.5543
 4594TIP3    H135273   4.545   1.938   5.961  0.1216 -0.1384 -0.4987
 4594TIP3    H235274   4.644   1.851   5.887 -0.0473 -0.1889 -0.6664
 4595TIP3   OH235275   0.370   5.176   1.393  0.1794  0.1738  0.5584
 4595TIP3    H135276   0.399   5.120   1.322  1.5475  1.8874 -0.3033
 4595TIP3    H235277   0.416   5.144   1.470  1.2576  0.3253 -0.0066
 4596TIP3   OH235278   6.738   5.212  12.403 -0.1846 -0.2598 -0.1643
 4596TIP3    H135279   6.716   5.132  12.356  0.9147  0.0452 -1.2462
 4596TIP3    H235280   6.806   5.186  12.465 -1.7067 -0.6836  1.3930
 4597TIP3   OH235281   2.319   4.726  15.040 -0.4511 -0.3248 -0.5604
 4597TIP3    H135282   2.277   4.752  15.122 -0.8527 -1.5484 -0.3706
 4597TIP3    H235283   2.393   4.787  15.032 -0.0972 -0.5009  0.9640
 4598TIP3   OH235284   3.359   6.272  11.364 -0.3680  0.1210 -0.5884
 4598TIP3    H135285   3.343   6.366  11.354 -1.6966 -0.1229 -0.9782
 4598TIP3    H235286   3.317   6.249  11.447 -0.1350 -0.1506 -0.5432
 4599TIP3   OH235287   2.424   1.211  14.772  0.2349  0.4005  0.9683
 4599TIP3    H135288   2.379   1.295  14.768 -2.0339 -0.7772  0.2149
 4599TIP3    H235289   2.355   1.146  14.785  1.4608 -1.7045 -1.9290
 4600TIP3   OH235290   2.015   2.186  11.543 -0.2673  0.3309 -0.2353
 4600TIP3    H135291   1.983   2.199  11.453  1.0678  1.3268 -0.5901
 4600TIP3    H235292   2.030   2.091  11.550 -2.4087 -0.0772 -0.3163
 4601TIP3   OH235293   3.098   0.769  16.624 -0.3957  0.6373  0.1697
 4601TIP3    H135294   3.039   0.694  16.621  0.6745 -0.2214 -0.1517
 4601TIP3    H235295   3.040   0.845  16.631 -1.4895 -0.2546  1.5057
 4602TIP3   OH235296   2.926   5.765  12.041 -0.0205 -0.1424  0.5596
 4602TIP3    H135297   2.927   5.706  11.965 -0.2762  0.4543  0.0935
 4602TIP3    H235298   3.015   5.801  12.045 -0.0721 -0.0022  0.4137
 4603TIP3   OH235299   3.729   2.372  15.976 -0.8336  0.3202  0.1405
 4603TIP3    H135300   3.784   2.451  15.980  0.4663 -0.3876 -2.0104
 4603TIP3    H235301   3.790   2.300  15.990 -1.4157 -0.4348 -1.0651
 4604TIP3   OH235302   5.052   4.754   0.021  0.2551  0.4861  0.0816
 4604TIP3    H135303   5.036   4.661   0.040 -0.6279  0.2923 -1.4651
 4604TIP3    H235304   4.971   4.784  -0.021  0.9092  1.7149 -0.3456
 4605TIP3   OH235305   3.964   6.776  15.224  0.0437  0.1227 -0.0962
 4605TIP3    H135306   3.992   6.737  15.141  0.8954 -0.2498  0.3509
 4605TIP3    H235307   4.041   6.823  15.256  0.2313 -1.0150  1.2299
 4606TIP3   OH235308   5.319   2.438   2.994  0.3962  0.1873  0.0373
 4606TIP3    H135309   5.389   2.415   2.933  0.1597  0.3734 -0.3050
 4606TIP3    H235310   5.326   2.533   3.004  0.2998  0.1852  0.1342
 4607TIP3   OH235311   2.770   5.314  10.733  0.2821  0.1508  0.1348
 4607TIP3    H135312   2.703   5.379  10.754  0.9259  0.9562 -0.2814
 4607TIP3    H235313   2.783   5.266  10.815 -0.5658  0.2014  0.3032
 4608TIP3   OH235314   4.761   2.240  11.708  0.2701  0.5592 -0.2539
 4608TIP3    H135315   4.695   2.218  11.642  1.3858  1.3306 -1.7023
 4608TIP3    H235316   4.749   2.175  11.777 -2.0748  0.7626 -0.3796
 4609TIP3   OH235317   1.173   5.012   6.497 -0.3838 -0.1718 -0.2574
 4609TIP3    H135318   1.268   5.022   6.492 -0.3359 -0.1375  0.6459
 4609TIP3    H235319   1.140   5.102   6.506 -0.3895 -0.2858  1.0162
 4610TIP3   OH235320   5.190   1.670   4.498  0.2619  0.0885  0.0657
 4610TIP3    H135321   5.233   1.636   4.577 -2.3652 -1.0353  1.1324
 4610TIP3    H235322   5.129   1.601   4.472 -3.3134  2.7182  0.6682
 4611TIP3   OH235323   5.617   4.184   6.041  0.5354 -0.2871  0.0341
 4611TIP3    H135324   5.573   4.104   6.071 -0.9729  0.7154  0.6361
 4611TIP3    H235325   5.647   4.227   6.121 -1.3292  1.1859  0.0170
 4612TIP3   OH235326   0.272   3.066  16.554  0.2294 -0.2134 -0.1842
 4612TIP3    H135327   0.265   3.129  16.626  2.1595 -0.3743  0.2004
 4612TIP3    H235328   0.338   3.003  16.583  1.3263 -0.0918 -2.1924
 4613TIP3   OH235329   3.920   6.123   5.070  0.0710 -0.3854 -0.1236
 4613TIP3    H135330   3.828   6.099   5.085  0.5767 -1.8322  0.8631
 4613TIP3    H235331   3.947   6.070   4.996  0.5283 -1.1271  0.5605
 4614TIP3   OH235332   6.245   5.188  13.354  0.5043  0.3558  0.6817
 4614TIP3    H135333   6.202   5.239  13.285  0.5597  0.2573  0.5743
 4614TIP3    H235334   6.322   5.239  13.377  0.3571  0.5087  0.8401
 4615TIP3   OH235335   2.714   2.879  10.766 -0.3723  0.4189 -0.2668
 4615TIP3    H135336   2.678   2.793  10.790  0.7511  0.7195  2.9977
 4615TIP3    H235337   2.786   2.859  10.707 -0.6130 -0.8158 -0.1763
 4616TIP3   OH235338   3.328   1.862   0.152 -0.0309  0.2235  0.3417
 4616TIP3    H135339   3.307   1.771   0.176  1.7130 -0.1098  0.7532
 4616TIP3    H235340   3.264   1.914   0.201  0.3994 -0.6956  1.9894
 4617TIP3   OH235341   3.945   0.133  12.120 -0.1620  0.0953  0.2281
 4617TIP3    H135342   3.995   0.191  12.178 -0.4148  1.7395 -1.1090
 4617TIP3    H235343   4.011   0.096  12.061 -0.0825 -0.4795  0.6766
 4618TIP3   OH235344   0.220   2.898   0.202  0.3520 -0.1872 -0.0759
 4618TIP3    H135345   0.144   2.841   0.202  0.4889 -0.3741 -1.1338
 4618TIP3    H235346   0.224   2.932   0.292 -1.5650  0.6272 -0.2674
 4619TIP3   OH235347   6.529   5.423   4.447  0.0169  0.0115 -0.1613
 4619TIP3    H135348   6.615   5.465   4.444 -0.0536  0.1194 -1.2535
 4619TIP3    H235349   6.545   5.337   4.484  0.4757  0.2955  0.3198
 4620TIP3   OH235350   1.544   1.809  14.085  0.3169 -0.8268 -0.1484
 4620TIP3    H135351   1.540   1.724  14.041  0.8497 -0.7404 -0.3748
 4620TIP3    H235352   1.483   1.801  14.158  1.0090 -1.7113  0.3512
 4621TIP3   OH235353   5.052   2.000   4.278 -0.0307 -0.0772 -0.1467
 4621TIP3    H135354   5.054   1.906   4.256 -0.7314 -0.3768  0.9660
 4621TIP3    H235355   5.104   2.006   4.359  0.2250  0.5375 -0.3538
 4622TIP3   OH235356   0.847   0.149  11.768 -0.5112 -0.2610 -0.2636
 4622TIP3    H135357   0.753   0.156  11.750 -0.0976  1.1963 -2.0866
 4622TIP3    H235358   0.855   0.170  11.861 -1.8676  0.8102 -0.3603
 4623TIP3   OH235359   6.212   5.474   5.074  0.1782  0.3176  0.5257
 4623TIP3    H135360   6.177   5.531   5.143 -1.9792 -1.7181  1.1954
 4623TIP3    H235361   6.223   5.389   5.116  1.3319 -0.3366 -1.0095
 4624TIP3   OH235362   5.484   4.748  13.049 -0.1564  0.0654 -0.4077
 4624TIP3    H135363   5.471   4.825  12.994  1.2513 -0.4498 -1.5110
 4624TIP3    H235364   5.536   4.689  12.996 -1.3583 -1.7598  0.3385
 4625TIP3   OH235365   5.201   6.495   1.728  0.1939  0.0125 -0.2494
 4625TIP3    H135366   5.241   6.410   1.707  2.1736  0.7516  0.3183
 4625TIP3    H235367   5.264   6.537   1.786 -1.1483  1.5508  0.1686
 4626TIP3   OH235368   0.009   5.058  13.991 -0.0050  0.4217 -0.6257
 4626TIP3    H135369   0.037   5.092  14.076 -0.9397  0.2216 -0.2323
 4626TIP3    H235370  -0.046   5.128  13.955  1.0250  0.8398 -1.4225
 4627TIP3   OH235371   2.930   0.669   2.750 -0.0939 -0.1981 -0.4739
 4627TIP3    H135372   2.958   0.595   2.805  0.7568 -0.3065 -1.0234
 4627TIP3    H235373   3.012   0.707   2.718 -0.5405  0.6766 -0.6106
 4628TIP3   OH235374   2.589   0.951   0.085 -0.2323  0.1939  0.0969
 4628TIP3    H135375   2.600   1.004   0.006  1.3558 -0.5344 -0.2238
 4628TIP3    H235376   2.526   0.884   0.061 -0.6867  0.6962 -0.1457
 4629TIP3   OH235377   3.404   4.627  15.940 -0.6858 -0.1533  0.7986
 4629TIP3    H135378   3.386   4.690  16.010  0.9663  0.8859  0.3417
 4629TIP3    H235379   3.427   4.680  15.865  0.8679 -1.2882  0.4252
 4630TIP3   OH235380   3.489   1.091   2.726  0.8534  0.2205 -0.5059
 4630TIP3    H135381   3.407   1.057   2.690  1.5773 -1.0960 -0.9476
 4630TIP3    H235382   3.521   1.022   2.784  1.1462  1.1539  0.4961
 4631TIP3   OH235383   2.968   5.044  16.840 -0.3428 -0.6149 -0.0161
 4631TIP3    H135384   3.048   5.060  16.890  0.6283 -2.1988 -0.9575
 4631TIP3    H235385   2.902   5.026  16.906  0.4973 -0.9510  0.7616
 4632TIP3   OH235386   5.287   6.590  13.001 -0.2232 -0.1133  0.5023
 4632TIP3    H135387   5.270   6.512  12.948  0.0390  0.2139 -0.0839
 4632TIP3    H235388   5.210   6.645  12.988 -0.3188 -0.1915  0.7505
 4633TIP3   OH235389   4.687   2.345  15.350  0.6354  0.3612 -0.6766
 4633TIP3    H135390   4.707   2.364  15.441 -0.1167 -2.1378  0.1029
 4633TIP3    H235391   4.596   2.373  15.339  0.9914  1.4627 -0.9516
 4634TIP3   OH235392   3.420   0.714  14.908  0.3515 -0.3603  0.9234
 4634TIP3    H135393   3.428   0.706  14.813  0.8095  1.3836  0.7885
 4634TIP3    H235394   3.458   0.633  14.942 -0.3258 -1.2639 -0.3780
 4635TIP3   OH235395   1.908   6.831  13.011  0.2795 -0.4706 -0.2077
 4635TIP3    H135396   1.908   6.830  12.915 -0.4932  0.0398 -0.2225
 4635TIP3    H235397   2.000   6.841  13.035  0.2112  2.7815 -0.9518
 4636TIP3   OH235398   4.320   1.542  12.666  0.4275 -0.1837 -0.1996
 4636TIP3    H135399   4.359   1.487  12.599 -0.5663 -2.7852  1.2065
 4636TIP3    H235400   4.228   1.550  12.641  0.2310 -0.4805  0.3938
 4637TIP3   OH235401   3.555   5.623  14.174 -0.8809 -0.0914 -0.6236
 4637TIP3    H135402   3.496   5.547  14.178 -0.5382 -0.3299  0.1064
 4637TIP3    H235403   3.514   5.689  14.230 -1.4611  0.4790 -1.6958
 4638TIP3   OH235404   2.181   0.258   2.607 -0.7115 -0.4738 -0.5833
 4638TIP3    H135405   2.203   0.202   2.532 -2.0554 -0.7130 -0.8247
 4638TIP3    H235406   2.107   0.214   2.648 -0.8915  0.4104  0.0466
 4639TIP3   OH235407   2.175   4.010   5.524  0.4996 -0.0081 -0.0284
 4639TIP3    H135408   2.108   3.966   5.576  0.7394 -0.4342 -0.0681
 4639TIP3    H235409   2.251   3.952   5.530  1.4198  1.2772  1.3940
 4640TIP3   OH235410   2.358   0.555  14.190 -0.2459 -0.1697  0.3161
 4640TIP3    H135411   2.374   0.486  14.125  2.2893  1.3683 -0.8420
 4640TIP3    H235412   2.419   0.534  14.261 -1.6907 -0.7952  1.4201
 4641TIP3   OH235413   1.877   6.629   4.159  0.3780 -0.1371  0.2767
 4641TIP3    H135414   1.823   6.644   4.237 -0.2010  0.9267 -0.3000
 4641TIP3    H235415   1.867   6.536   4.140  0.1777 -0.3187  1.2070
 4642TIP3   OH235416   5.185   1.113  16.602 -0.2100  0.1626  1.0685
 4642TIP3    H135417   5.150   1.111  16.513 -1.4187 -1.3019  1.5395
 4642TIP3    H235418   5.162   1.200  16.634  3.8667  2.4544 -1.3275
 4643TIP3   OH235419   1.433   5.330   5.435  0.0272  0.4099 -0.1651
 4643TIP3    H135420   1.375   5.367   5.368 -3.0606 -1.1249  1.4404
 4643TIP3    H235421   1.413   5.380   5.514 -1.2822 -1.9101  1.0776
 4644TIP3   OH235422   4.463   4.497  11.535 -0.5067  0.1742 -0.8569
 4644TIP3    H135423   4.538   4.510  11.477  1.3625 -1.1902  1.0797
 4644TIP3    H235424   4.430   4.410  11.512 -0.6415  0.2081 -0.7899
 4645TIP3   OH235425   5.877   6.021  16.018 -0.4708  0.4080 -0.2460
 4645TIP3    H135426   5.960   5.991  16.055 -1.1633 -1.1202  0.1578
 4645TIP3    H235427   5.818   6.027  16.093 -1.7681 -2.2840 -0.9186
 4646TIP3   OH235428   2.442   0.683   2.771  0.1864  0.0667 -0.0308
 4646TIP3    H135429   2.414   0.600   2.732  2.4628  0.1125 -1.9125
 4646TIP3    H235430   2.506   0.719   2.710 -2.1231  4.2796 -0.3991
 4647TIP3   OH235431   2.254   0.401   3.660  0.0767  0.2140 -0.1183
 4647TIP3    H135432   2.201   0.474   3.692 -1.2815  0.1274 -2.0068
 4647TIP3    H235433   2.264   0.343   3.735 -1.6253  0.7559  0.5598
 4648TIP3   OH235434   5.162   3.755  12.711 -0.6245 -0.4312 -0.4858
 4648TIP3    H135435   5.230   3.688  12.713 -0.5085 -0.3589 -1.5472
 4648TIP3    H235436   5.209   3.838  12.704 -0.7905 -0.4557 -2.7387
 4649TIP3   OH235437   5.423   6.229  14.988 -0.3541 -0.4904  0.7514
 4649TIP3    H135438   5.504   6.198  15.029  1.2448  2.6145  0.2480
 4649TIP3    H235439   5.436   6.323  14.977 -3.2818 -0.1735 -1.1613
 4650TIP3   OH235440   6.818   0.248   4.153 -0.4643  0.6181 -0.1605
 4650TIP3    H135441   6.902   0.272   4.112  0.2301  0.9320  1.3629
 4650TIP3    H235442   6.841   0.229   4.244 -2.1404  1.2657  0.4330
 4651TIP3   OH235443   5.077   6.058   0.115  0.1388 -0.2891  0.6582
 4651TIP3    H135444   5.047   6.066   0.206  0.7562  0.0161  0.8448
 4651TIP3    H235445   5.171   6.074   0.120  0.0840  0.3415 -0.1182
 4652TIP3   OH235446   2.257   1.904  16.453 -0.0844  0.4498  0.6180
 4652TIP3    H135447   2.335   1.849  16.460  0.6888  1.1419 -1.6089
 4652TIP3    H235448   2.287   1.992  16.476 -0.8156  0.3384  2.1018
 4653TIP3   OH235449   1.771   5.251   5.296  0.5579 -0.1409  0.6707
 4653TIP3    H135450   1.841   5.202   5.253  0.7757 -0.1614  1.0455
 4653TIP3    H235451   1.732   5.190   5.357 -1.0095 -0.7036 -0.8207
 4654TIP3   OH235452   0.757   0.991  16.094 -0.4127  0.3021  0.7856
 4654TIP3    H135453   0.765   0.904  16.133 -1.5591  0.3187  1.0832
 4654TIP3    H235454   0.726   0.974  16.005 -0.1696  0.3875  0.6840
 4655TIP3   OH235455   1.603   1.415   2.216 -0.1608 -0.6346  0.1479
 4655TIP3    H135456   1.656   1.381   2.144 -1.1284  0.7962 -1.3168
 4655TIP3    H235457   1.574   1.337   2.263  1.3998 -1.5514 -0.3174
 4656TIP3   OH235458   0.359   4.963  14.119 -0.3467 -0.2348 -0.5402
 4656TIP3    H135459   0.454   4.966  14.130 -0.0787 -0.9083 -2.2995
 4656TIP3    H235460   0.325   5.030  14.179  1.0923 -1.0537  1.2568
 4657TIP3   OH235461   4.561   3.269  11.805 -0.0481 -0.6253  0.3814
 4657TIP3    H135462   4.499   3.306  11.868  0.1686  0.5565 -0.0648
 4657TIP3    H235463   4.625   3.222  11.859  0.0905  0.3011  1.0493
 4658TIP3   OH235464   5.258   5.877   6.625  0.3488 -0.0658 -0.0058
 4658TIP3    H135465   5.210   5.959   6.637  0.1296 -0.2843  0.6611
 4658TIP3    H235466   5.256   5.835   6.711  1.1311 -0.4088 -0.1484
 4659TIP3   OH235467   0.577   5.027   0.465 -0.4234  0.5383  0.5305
 4659TIP3    H135468   0.483   5.010   0.461 -0.7945  2.0775  1.5087
 4659TIP3    H235469   0.593   5.088   0.392 -0.4116  1.1179  1.0091
 4660TIP3   OH235470   3.684   6.591  13.405  0.0058 -0.3948 -0.1624
 4660TIP3    H135471   3.614   6.656  13.403 -1.0128 -1.4559 -0.1899
 4660TIP3    H235472   3.732   6.605  13.323 -0.3156  0.1829 -0.2613
 4661TIP3   OH235473   5.855   2.550   1.525  0.4835  0.3769  0.6189
 4661TIP3    H135474   5.897   2.565   1.610  0.2703 -1.0403  1.0035
 4661TIP3    H235475   5.777   2.499   1.547 -1.3653  2.6844 -0.0876
 4662TIP3   OH235476   3.189   1.727   0.691 -0.1968  0.2295  0.3477
 4662TIP3    H135477   3.194   1.635   0.715  1.4742  0.5381  1.3232
 4662TIP3    H235478   3.161   1.771   0.772  2.2682  0.9061  0.9146
 4663TIP3   OH235479   6.184   3.505   1.744  0.0403 -0.0251 -0.6414
 4663TIP3    H135480   6.243   3.474   1.675 -1.0860 -2.3330 -0.6450
 4663TIP3    H235481   6.101   3.461   1.727 -2.4381  4.4049 -1.7026
 4664TIP3   OH235482   1.033   3.930   0.734  0.6845  0.3251  0.2030
 4664TIP3    H135483   1.121   3.959   0.756 -0.3296  1.8468  2.7697
 4664TIP3    H235484   1.026   3.842   0.772  0.5290  0.9994  1.8293
 4665TIP3   OH235485   3.436   5.954   1.762  0.0897 -0.0320  0.0950
 4665TIP3    H135486   3.422   5.955   1.667  0.3631  0.8982  0.0523
 4665TIP3    H235487   3.349   5.964   1.799 -0.1600 -1.5274 -0.0198
 4666TIP3   OH235488   1.750   3.401   1.542  0.6872  0.1024  0.0681
 4666TIP3    H135489   1.721   3.491   1.528  0.4069  0.1137  0.6964
 4666TIP3    H235490   1.804   3.381   1.465 -1.7347 -0.2284 -1.6588
 4667TIP3   OH235491   1.126   5.104   2.498 -0.5387  0.0029  0.0483
 4667TIP3    H135492   1.039   5.071   2.520 -0.5294  0.0128  0.0997
 4667TIP3    H235493   1.112   5.155   2.418 -0.6061  0.1277  0.1382
 4668TIP3   OH235494   0.826   0.936   2.182  0.2002  0.7922 -0.7082
 4668TIP3    H135495   0.815   1.029   2.201 -2.3556  1.1900 -3.4717
 4668TIP3    H235496   0.767   0.892   2.243  0.2527  1.0843 -0.4418
 4669TIP3   OH235497   0.665   0.545  17.192 -0.4213  0.3818  0.3851
 4669TIP3    H135498   0.724   0.480  17.228  0.5621  1.2508  0.3981
 4669TIP3    H235499   0.723   0.610  17.151 -1.3890  0.9789 -0.0704
 4670TIP3   OH235500   0.367   6.478  16.282 -0.2171  0.1159 -0.3729
 4670TIP3    H135501   0.308   6.416  16.240 -1.3634  1.7029 -1.1978
 4670TIP3    H235502   0.455   6.445  16.264 -0.6770  0.3888 -3.5360
 4671TIP3   OH235503   2.758   5.839  15.442  0.8945 -0.1890 -0.1684
 4671TIP3    H135504   2.850   5.843  15.468  0.7259 -0.8861  0.5620
 4671TIP3    H235505   2.730   5.751  15.466  0.6614 -0.8289 -2.5648
 4672TIP3   OH235506   4.280   5.932   4.973 -0.0619 -0.3961 -0.7016
 4672TIP3    H135507   4.281   5.836   4.977  0.9975 -0.3694  0.6217
 4672TIP3    H235508   4.319   5.953   4.889  0.2610 -1.1286 -0.7446
 4673TIP3   OH235509   1.301   0.959  11.574 -0.4998 -0.0279 -0.0114
 4673TIP3    H135510   1.229   0.897  11.565 -1.3206  1.2274 -3.3802
 4673TIP3    H235511   1.263   1.033  11.621 -1.7632  0.9673 -2.4584
 4674TIP3   OH235512   2.029   6.219  12.492  0.0244 -0.8668  0.4588
 4674TIP3    H135513   2.063   6.287  12.550 -0.0477 -1.7082  1.5159
 4674TIP3    H235514   2.023   6.141  12.547 -1.2619 -1.3713 -0.3478
 4675TIP3   OH235515   0.892   2.992  16.422  0.1510 -0.1903 -0.3111
 4675TIP3    H135516   0.959   3.032  16.477 -0.6522 -0.9882  1.3237
 4675TIP3    H235517   0.819   3.054  16.424 -0.9716 -1.4631  1.9610
 4676TIP3   OH235518   2.520   2.040   0.975  0.1263 -0.2824 -0.0317
 4676TIP3    H135519   2.568   2.087   0.907 -0.6157  0.2870 -0.1668
 4676TIP3    H235520   2.430   2.072   0.968 -0.1997 -1.0734  0.4566
 4677TIP3   OH235521   4.081   3.067   3.265  0.6129  0.4394 -0.7375
 4677TIP3    H135522   3.993   3.082   3.230 -0.8500 -1.5803  1.7346
 4677TIP3    H235523   4.093   2.972   3.259  2.1019  0.5403  0.1612
 4678TIP3   OH235524   6.419   0.085  16.075 -0.5889  0.3864 -0.0633
 4678TIP3    H135525   6.425   0.105  16.169  1.1247 -1.0723  0.1974
 4678TIP3    H235526   6.505   0.051  16.053 -0.4879  2.0377 -2.5520
 4679TIP3   OH235527   4.249   6.458   4.217 -0.2035  0.2952  0.0860
 4679TIP3    H135528   4.245   6.512   4.296 -0.1986  1.7054 -0.8389
 4679TIP3    H235529   4.280   6.373   4.248 -1.2960  0.4625  1.7676
 4680TIP3   OH235530   6.388   2.793  11.196  0.4678  0.4639 -0.3507
 4680TIP3    H135531   6.396   2.790  11.101 -0.2384 -0.1672 -0.4009
 4680TIP3    H235532   6.410   2.704  11.225 -0.4336  0.3399 -0.0219
 4681TIP3   OH235533   4.220   6.517   0.637 -0.2082 -0.2456 -0.1001
 4681TIP3    H135534   4.130   6.528   0.667 -0.4448  2.3627 -1.5122
 4681TIP3    H235535   4.260   6.459   0.702 -2.1314  0.7589  2.1164
 4682TIP3   OH235536   5.956   2.441   4.023  0.2538  0.2640  0.5663
 4682TIP3    H135537   6.003   2.500   3.965  0.3634 -0.2346  0.1422
 4682TIP3    H235538   5.868   2.435   3.987  0.3323 -0.0756  0.4214
 4683TIP3   OH235539   0.622   6.644  13.213 -0.0215 -0.1826  0.3410
 4683TIP3    H135540   0.623   6.626  13.307  1.5400 -1.7074  0.0817
 4683TIP3    H235541   0.628   6.739  13.206 -0.5272 -0.0200  1.7640
 4684TIP3   OH235542   2.720   3.237  11.886 -0.2549  0.0725  0.4756
 4684TIP3    H135543   2.767   3.162  11.922 -0.1377 -0.4303 -0.6798
 4684TIP3    H235544   2.667   3.200  11.814 -0.7342  0.9806  0.3443
 4685TIP3   OH235545   2.210   2.946  15.175 -0.5938  0.1293  0.3461
 4685TIP3    H135546   2.130   2.987  15.144 -1.1717 -0.4950  0.9630
 4685TIP3    H235547   2.203   2.950  15.271  0.0867  0.0289  0.4034
 4686TIP3   OH235548   5.786   1.172  11.283 -0.0289 -0.5770 -0.7759
 4686TIP3    H135549   5.692   1.180  11.297 -0.0292  2.2808 -1.8888
 4686TIP3    H235550   5.795   1.102  11.219 -0.9407 -4.0469  2.4937
 4687TIP3   OH235551   3.319   3.754  14.768  0.5087  0.1437  0.4320
 4687TIP3    H135552   3.399   3.779  14.723 -0.0350  1.3527  0.1048
 4687TIP3    H235553   3.265   3.713  14.700  0.2473  0.7099  0.2921
 4688TIP3   OH235554   0.631   5.160   3.402 -0.6532 -0.7677  0.1876
 4688TIP3    H135555   0.558   5.155   3.465 -1.0205  0.8140 -0.0672
 4688TIP3    H235556   0.616   5.243   3.355  2.0627  0.3366  1.0754
 4689TIP3   OH235557   5.642   4.093   1.009 -0.5884  0.2485 -0.1238
 4689TIP3    H135558   5.727   4.135   1.019  0.1246 -1.3155  0.8152
 4689TIP3    H235559   5.612   4.077   1.099 -1.1866 -0.5025 -0.4371
 4690TIP3   OH235560   6.832   2.270  13.985 -0.0338 -0.4348  0.1131
 4690TIP3    H135561   6.907   2.329  13.998  1.2401 -1.9990  0.0718
 4690TIP3    H235562   6.807   2.284  13.893  0.1438  0.1684  0.1518
 4691TIP3   OH235563   1.817   6.201   3.013 -0.0072  0.5309  0.6132
 4691TIP3    H135564   1.757   6.146   2.962  0.8306  0.0331  0.1279
 4691TIP3    H235565   1.775   6.210   3.098 -0.4120 -0.4533  0.5317
 4692TIP3   OH235566   1.620   2.685  16.521 -0.2078 -0.4346  0.1962
 4692TIP3    H135567   1.660   2.726  16.598  0.8741  0.0494 -0.6040
 4692TIP3    H235568   1.580   2.605  16.556 -1.2184  0.6132  1.5403
 4693TIP3   OH235569   5.397   1.846   1.595 -0.3059 -0.3098  0.3004
 4693TIP3    H135570   5.420   1.771   1.650  0.1151 -0.7254 -0.4230
 4693TIP3    H235571   5.472   1.856   1.536 -1.7738 -1.4536 -1.8762
 4694TIP3   OH235572   1.233   2.643   0.114 -0.2296 -0.0674 -0.4455
 4694TIP3    H135573   1.178   2.642   0.192 -0.2421  0.8608 -0.4227
 4694TIP3    H235574   1.171   2.641   0.041 -0.4794  2.7578 -0.4484
 4695TIP3   OH235575   1.394   2.842   5.704 -1.0738 -0.2470  0.2825
 4695TIP3    H135576   1.382   2.817   5.613 -0.4226 -0.5766  0.2859
 4695TIP3    H235577   1.419   2.761   5.749  0.8557  0.3217  0.3254
 4696TIP3   OH235578   2.802   6.499   4.604 -0.1545 -0.2645 -0.2583
 4696TIP3    H135579   2.812   6.512   4.698  1.1472  0.7743 -0.5005
 4696TIP3    H235580   2.729   6.556   4.580 -0.2495 -0.2487  0.0632
 4697TIP3   OH235581   1.674   1.603   2.410  0.4223 -0.0996 -0.2650
 4697TIP3    H135582   1.719   1.533   2.459 -1.5564 -0.4998  1.0925
 4697TIP3    H235583   1.636   1.558   2.334  0.2179 -0.2465 -0.0761
 4698TIP3   OH235584   1.318   4.452  11.669 -0.0671 -0.0228  0.2507
 4698TIP3    H135585   1.406   4.444  11.634  0.1471 -0.8824  0.9280
 4698TIP3    H235586   1.330   4.464  11.763 -0.5889  3.4031  0.0176
 4699TIP3   OH235587   0.272   1.323  12.859  0.3053 -0.5119  0.3641
 4699TIP3    H135588   0.342   1.379  12.827 -0.8149  0.1520 -1.0137
 4699TIP3    H235589   0.316   1.241  12.884  1.6144  0.0629 -0.0028
 4700TIP3   OH235590   0.416   2.431   1.882 -0.0603 -0.0897  0.2071
 4700TIP3    H135591   0.382   2.521   1.893 -0.9096 -0.1627 -1.4999
 4700TIP3    H235592   0.448   2.428   1.792  1.5585 -1.0292  0.7697
 4701TIP3   OH235593   3.028   1.250  12.012 -0.5610 -0.0529  0.1832
 4701TIP3    H135594   2.996   1.253  11.922  0.6514 -0.4449 -0.2867
 4701TIP3    H235595   2.949   1.251  12.066 -1.3102  0.0503 -0.8829
 4702TIP3   OH235596   6.159   0.080  11.042  0.4162 -0.3517  0.0232
 4702TIP3    H135597   6.173  -0.008  11.006 -2.5231 -1.3299  1.0412
 4702TIP3    H235598   6.105   0.124  10.976 -1.4280 -0.7026  1.2522
 4703TIP3   OH235599   6.455   3.759  14.771  0.5283 -0.2919  0.0140
 4703TIP3    H135600   6.419   3.674  14.795 -1.6368  0.1522 -1.3708
 4703TIP3    H235601   6.423   3.774  14.682  0.4134  2.1977  0.4004
 4704TIP3   OH235602   2.223   3.898   4.071  0.1657 -0.0747 -0.2759
 4704TIP3    H135603   2.238   3.921   3.980 -0.2160 -0.7318 -0.5110
 4704TIP3    H235604   2.308   3.869   4.104  0.3737  0.4635 -0.3236
 4705TIP3   OH235605   6.298   5.767   2.544  0.9750 -0.0647  0.0167
 4705TIP3    H135606   6.244   5.772   2.623  1.6480  1.5487  0.4096
 4705TIP3    H235607   6.353   5.845   2.547  2.2629 -0.8727 -1.1531
 4706TIP3   OH235608   5.674   2.965  16.207 -0.1162 -0.2980 -0.3208
 4706TIP3    H135609   5.677   2.901  16.136 -0.1209 -1.8192  0.9982
 4706TIP3    H235610   5.735   2.931  16.273 -1.6695 -0.1027  1.3024
 4707TIP3   OH235611   2.287   3.615   0.699 -0.2069  0.1061  0.4486
 4707TIP3    H135612   2.271   3.527   0.665 -0.4687  0.2860  0.1065
 4707TIP3    H235613   2.256   3.611   0.790 -0.7733  0.0108  0.2570
 4708TIP3   OH235614   1.880   2.048  16.615  0.6052  0.2590 -0.5192
 4708TIP3    H135615   1.894   2.097  16.534  0.1145  0.0376 -0.7382
 4708TIP3    H235616   1.946   1.978  16.612  2.3052  1.7280  0.4826
 4709TIP3   OH235617   4.142   0.373  14.140 -0.5564  0.1516 -0.2244
 4709TIP3    H135618   4.103   0.286  14.137 -1.4658  0.4480  1.6899
 4709TIP3    H235619   4.237   0.357  14.135 -0.7224 -0.9261 -0.2108
 4710TIP3   OH235620   6.599   6.040   1.638 -0.3795  0.1341 -0.3930
 4710TIP3    H135621   6.520   6.043   1.692  0.0617  1.7983  0.2227
 4710TIP3    H235622   6.572   6.077   1.554 -0.1816  1.1103 -0.0418
 4711TIP3   OH235623   1.879   5.092   2.804  0.1522  0.3670  0.2380
 4711TIP3    H135624   1.936   5.042   2.745  0.4688  1.8476 -0.7529
 4711TIP3    H235625   1.939   5.134   2.865  0.1107  1.5317 -0.5016
 4712TIP3   OH235626   5.279   0.226  14.785 -0.1604  0.1987 -0.2408
 4712TIP3    H135627   5.261   0.166  14.712  0.0006 -0.2606  0.0929
 4712TIP3    H235628   5.373   0.218  14.799 -0.1690  0.3980 -0.0777
 4713TIP3   OH235629   6.090   3.757  11.371 -0.1456 -0.5718  0.4177
 4713TIP3    H135630   6.142   3.709  11.307 -0.8020 -0.9968  0.1994
 4713TIP3    H235631   6.127   3.733  11.456  0.3219 -0.4961  0.2349
 4714TIP3   OH235632   5.331   3.861  10.720 -0.2758 -0.2666 -0.1531
 4714TIP3    H135633   5.332   3.786  10.661 -0.7559 -0.5869  0.2427
 4714TIP3    H235634   5.420   3.866  10.754  0.3349  0.6060 -1.7490
 4715TIP3   OH235635   1.970   5.522   0.765  0.1516  0.0025 -0.4946
 4715TIP3    H135636   1.970   5.526   0.861  0.5109 -0.0443 -0.4928
 4715TIP3    H235637   1.920   5.599   0.738  0.1161  0.0587 -0.2714
 4716TIP3   OH235638   0.424   6.334  11.174  0.3966 -0.2954 -0.3945
 4716TIP3    H135639   0.512   6.368  11.158  0.1045  0.8123  0.2369
 4716TIP3    H235640   0.439   6.251  11.219  1.1287  0.1014  0.1174
 4717TIP3   OH235641   5.064   2.657   0.095  0.0691  0.1402 -0.2426
 4717TIP3    H135642   5.108   2.730   0.051 -1.5540  0.2382 -1.8631
 4717TIP3    H235643   5.134   2.599   0.124  1.2926  1.0705 -1.2685
 4718TIP3   OH235644   1.096   6.017  14.885 -0.4216 -0.6871  0.1148
 4718TIP3    H135645   1.036   6.087  14.859  0.5959 -0.5702 -2.1577
 4718TIP3    H235646   1.086   5.949  14.819  1.2081 -1.0889  0.2181
 4719TIP3   OH235647   2.790   4.451  14.192 -0.4352 -0.1828  0.7398
 4719TIP3    H135648   2.871   4.470  14.241 -0.6990  2.0267  0.4049
 4719TIP3    H235649   2.720   4.459  14.257 -0.5402 -0.2783  0.6383
 4720TIP3   OH235650   1.828   5.825   3.614 -0.2565  0.6293 -1.0136
 4720TIP3    H135651   1.883   5.835   3.692  0.9585 -0.6842 -1.6381
 4720TIP3    H235652   1.739   5.844   3.644  0.3303  1.3160  0.3956
 4721TIP3   OH235653   1.566   1.159  13.654  0.3483 -0.8978  0.8557
 4721TIP3    H135654   1.557   1.180  13.561 -0.2735 -2.4484  0.5279
 4721TIP3    H235655   1.648   1.111  13.660  0.6676 -0.3144  1.2105
 4722TIP3   OH235656   3.684   0.616   5.458  0.0483  0.2533 -0.6263
 4722TIP3    H135657   3.592   0.621   5.484 -0.2476  0.9850 -1.7285
 4722TIP3    H235658   3.682   0.597   5.364  0.9736  1.7294 -0.9877
 4723TIP3   OH235659   2.782   0.612  12.557 -0.1239  0.5195  0.1974
 4723TIP3    H135660   2.687   0.611  12.568 -0.0864 -0.6887  0.5434
 4723TIP3    H235661   2.801   0.697  12.517 -1.0749  1.9237  2.5403
 4724TIP3   OH235662   1.799   5.526  14.600 -0.0295 -0.1644 -0.0793
 4724TIP3    H135663   1.755   5.455  14.554 -0.2224 -0.7345  0.9441
 4724TIP3    H235664   1.808   5.494  14.690  0.4345  0.8630  0.2554
 4725TIP3   OH235665   2.535   2.674   5.412  0.0620 -0.3596  0.0127
 4725TIP3    H135666   2.451   2.721   5.410 -0.2522 -0.8932  0.5568
 4725TIP3    H235667   2.592   2.725   5.354 -0.9574 -0.5972 -1.2475
 4726TIP3   OH235668   3.452   5.955  12.176  0.1079 -0.2345 -0.2267
 4726TIP3    H135669   3.423   5.990  12.092 -2.6913 -0.4069  0.5906
 4726TIP3    H235670   3.438   5.860  12.168  1.8388 -0.5196 -0.2581
 4727TIP3   OH235671   0.934   1.154  14.018 -1.0173 -0.4378  0.4224
 4727TIP3    H135672   0.994   1.107  13.961  0.2532  0.8818  0.5961
 4727TIP3    H235673   0.964   1.245  14.014 -2.1286  0.0155  1.6445
 4728TIP3   OH235674   3.690   1.259  14.167 -0.2067 -0.1639 -0.4679
 4728TIP3    H135675   3.781   1.233  14.177  0.0502  0.9282  0.2488
 4728TIP3    H235676   3.651   1.241  14.253 -0.1800  1.1403 -0.1678
 4729TIP3   OH235677   6.500   2.775   1.588 -0.4028 -0.0431 -0.0569
 4729TIP3    H135678   6.536   2.751   1.503  0.7770  2.2634 -0.2709
 4729TIP3    H235679   6.571   2.822   1.632 -1.6907  0.6705  1.3391
 4730TIP3   OH235680   1.655   4.971  14.648  0.0648 -0.1492  0.3221
 4730TIP3    H135681   1.594   5.039  14.678  0.8357  0.6791  0.0562
 4730TIP3    H235682   1.599   4.895  14.632 -1.3752  1.3555 -2.6104
 4731TIP3   OH235683   4.410   5.555  15.984 -0.1338 -0.1894  0.1876
 4731TIP3    H135684   4.342   5.489  15.970  0.3479 -1.1764  2.0724
 4731TIP3    H235685   4.475   5.536  15.916  0.7110 -2.7370  1.5633
 4732TIP3   OH235686   0.282   3.639  12.733  0.4827  0.0047 -0.6871
 4732TIP3    H135687   0.332   3.720  12.738 -0.3980  0.5140  0.2055
 4732TIP3    H235688   0.348   3.570  12.727  1.3718  0.5285  1.7912
 4733TIP3   OH235689   4.945   4.623  11.057 -0.0071  0.5718 -0.2090
 4733TIP3    H135690   5.020   4.584  11.012 -1.2408 -2.8853  0.4139
 4733TIP3    H235691   4.883   4.643  10.987  0.4060  0.8925 -0.4947
 4734TIP3   OH235692   2.340   5.390   2.131 -0.2582  0.1687 -0.3618
 4734TIP3    H135693   2.338   5.484   2.113 -4.3641  0.0579 -1.6647
 4734TIP3    H235694   2.347   5.384   2.226 -0.7803  1.8751 -0.1724
 4735TIP3   OH235695   0.042   2.352  10.834  0.0427  0.8669 -0.5072
 4735TIP3    H135696   0.089   2.423  10.877  1.6638 -0.9060  0.7949
 4735TIP3    H235697   0.092   2.273  10.855 -1.9695 -0.7582 -1.4540
 4736TIP3   OH235698   0.069   5.856  14.630  0.2662 -0.4100 -0.2197
 4736TIP3    H135699   0.145   5.820  14.676 -0.4864 -0.8299  0.7313
 4736TIP3    H235700  -0.006   5.814  14.672 -0.6767  2.1175  0.8365
 4737TIP3   OH235701   1.181   2.094  11.517  0.0335 -0.3135 -0.3089
 4737TIP3    H135702   1.232   2.141  11.584 -1.0549 -1.8147  1.6916
 4737TIP3    H235703   1.242   2.080  11.445  1.1389  1.7590  0.1357
 4738TIP3   OH235704   1.575   1.092   0.590 -0.5429  0.4331  0.0757
 4738TIP3    H135705   1.661   1.061   0.562 -0.0575  0.1478  1.7359
 4738TIP3    H235706   1.512   1.036   0.544  0.2475 -1.3125  1.0086
 4739TIP3   OH235707   6.065   1.434   3.656 -0.0980 -0.6760 -0.2805
 4739TIP3    H135708   6.051   1.342   3.632 -0.4141 -0.4781 -0.8676
 4739TIP3    H235709   6.160   1.441   3.668 -0.0256 -0.9775 -0.6604
 4740TIP3   OH235710   3.688   4.936   0.935 -0.3294 -0.1187 -0.6752
 4740TIP3    H135711   3.690   4.958   1.028 -3.1105  1.2745 -0.8628
 4740TIP3    H235712   3.781   4.935   0.909  0.5187 -0.4193  2.0212
 4741TIP3   OH235713   5.119   6.088   3.738 -0.0412  0.1594 -0.3540
 4741TIP3    H135714   5.157   6.160   3.789 -2.2144  0.6557  0.7194
 4741TIP3    H235715   5.146   6.009   3.784 -2.3072  0.6133  2.0107
 4742TIP3   OH235716   4.676   6.610   0.129  0.1454 -0.0599 -0.9470
 4742TIP3    H135717   4.741   6.663   0.083 -1.6620  0.5942 -2.9264
 4742TIP3    H235718   4.696   6.520   0.103  1.0993 -0.0364 -0.3611
 4743TIP3   OH235719   5.823   4.812  11.007  0.1259 -0.4646  0.1171
 4743TIP3    H135720   5.813   4.839  10.916  0.1530  0.7551  0.4608
 4743TIP3    H235721   5.854   4.721  11.002 -2.1368 -1.2402 -1.0487
 4744TIP3   OH235722   1.509   2.990  10.987  0.0828 -0.5993  0.1083
 4744TIP3    H135723   1.451   3.048  10.938  0.5031 -1.8547 -1.9851
 4744TIP3    H235724   1.565   3.050  11.037 -2.3373  0.6498  1.4885
 4745TIP3   OH235725   0.953   4.693   0.087  0.1100  0.2372  0.0034
 4745TIP3    H135726   0.870   4.649   0.072  1.5039 -2.7232  0.2099
 4745TIP3    H235727   0.937   4.785   0.064 -2.6388 -0.6054 -1.8651
 4746TIP3   OH235728   1.554   1.522   6.018  0.1464  0.3410 -0.1623
 4746TIP3    H135729   1.609   1.511   6.096  0.8604  0.7570 -0.5991
 4746TIP3    H235730   1.491   1.590   6.043  0.0312  0.0963  0.2290
 4747TIP3   OH235731   5.845   3.534   1.901 -1.2724  0.5884  0.1859
 4747TIP3    H135732   5.809   3.494   1.822  0.0408 -1.3839  0.5161
 4747TIP3    H235733   5.776   3.524   1.966 -0.7126 -2.0713  0.4962
 4748TIP3   OH235734   4.144   6.506   1.428 -0.4592  0.0007 -0.4913
 4748TIP3    H135735   4.148   6.529   1.521 -0.2889  0.6364 -0.6515
 4748TIP3    H235736   4.193   6.575   1.384 -1.9983  0.6836 -1.2177
 4749TIP3   OH235737   3.931   0.974   2.073 -0.1717 -0.1293  0.1047
 4749TIP3    H135738   3.987   0.973   2.151 -0.4270  0.1544  0.2962
 4749TIP3    H235739   3.979   1.025   2.009 -0.6466  0.9770  0.6076
 4750TIP3   OH235740   5.111   1.725   2.919  0.2113  0.6302  0.2127
 4750TIP3    H135741   5.151   1.771   2.992 -2.2091  0.8106  1.5180
 4750TIP3    H235742   5.160   1.643   2.913  0.7215  0.7854  1.7905
 4751TIP3   OH235743   1.441   4.836   6.356 -0.5572  0.4473  0.1841
 4751TIP3    H135744   1.377   4.907   6.346  0.8946  1.7301 -0.4111
 4751TIP3    H235745   1.503   4.850   6.285  1.9909  1.0023  2.3584
 4752TIP3   OH235746   3.211   4.213  14.994 -0.7015  0.8349  0.1170
 4752TIP3    H135747   3.140   4.155  15.020 -0.1061 -0.1163 -0.2865
 4752TIP3    H235748   3.281   4.153  14.965 -0.0122  1.7542 -0.1743
 4753TIP3   OH235749   0.640   1.958  13.199  0.2623  0.0357 -0.1107
 4753TIP3    H135750   0.693   1.880  13.217 -1.4327 -0.9527  0.9468
 4753TIP3    H235751   0.562   1.924  13.155  0.0643  1.3099 -0.7803
 4754TIP3   OH235752   6.423   0.724   5.184 -0.4254  0.2629  0.3728
 4754TIP3    H135753   6.426   0.816   5.155 -0.0268  0.3043  0.5536
 4754TIP3    H235754   6.344   0.689   5.141 -0.0781  0.4403 -0.4271
 4755TIP3   OH235755   0.319   2.746   0.492 -0.3867  0.2482 -0.5993
 4755TIP3    H135756   0.246   2.707   0.444  1.2796 -1.8187 -1.6510
 4755TIP3    H235757   0.297   2.734   0.584 -2.8220  2.6706 -0.7406
 4756TIP3   OH235758   1.184   1.921  13.730  0.2204 -0.5442 -0.6716
 4756TIP3    H135759   1.231   2.004  13.742 -0.0485 -0.5121  0.2681
 4756TIP3    H235760   1.228   1.860  13.789 -1.2351 -0.3761  0.6360
 4757TIP3   OH235761   5.783   1.650   1.168  0.1928 -0.0535  0.3654
 4757TIP3    H135762   5.803   1.741   1.144  2.7245 -0.1613  1.7178
 4757TIP3    H235763   5.805   1.644   1.261 -0.3510 -1.9584  0.4104
 4758TIP3   OH235764   0.860   4.111  17.147  0.4315  0.3549  0.2227
 4758TIP3    H135765   0.896   4.132  17.060  0.5246  0.4269  0.2794
 4758TIP3    H235766   0.765   4.117  17.135  0.4007 -0.6967 -0.1520
 4759TIP3   OH235767   0.022   1.195   4.754  0.8410  0.8711 -0.3058
 4759TIP3    H135768  -0.025   1.224   4.676 -0.1980  0.6781  0.2246
 4759TIP3    H235769   0.072   1.119   4.726 -0.2808  0.2068 -0.5870
 4760TIP3   OH235770   6.380   3.943   4.908 -0.2350 -0.4705  0.0563
 4760TIP3    H135771   6.287   3.925   4.922 -0.1609 -0.6993  0.2639
 4760TIP3    H235772   6.404   3.998   4.982 -0.0145 -1.0794  0.4440
 4761TIP3   OH235773   1.333   1.058  13.358  0.1007 -0.0225  0.2432
 4761TIP3    H135774   1.391   1.123  13.397  0.1691 -0.2779  0.5758
 4761TIP3    H235775   1.326   0.989  13.424 -0.6156  0.0247  0.2264
 4762TIP3   OH235776   2.598   0.769   3.742 -0.2573  1.1714  0.1006
 4762TIP3    H135777   2.587   0.829   3.816 -0.8472  1.8778 -0.5441
 4762TIP3    H235778   2.567   0.818   3.667  2.7206  1.4555 -1.0803
 4763TIP3   OH235779   0.252   3.779   4.807 -0.1703  0.4864 -0.4669
 4763TIP3    H135780   0.184   3.766   4.873  1.8195  0.5810  1.7399
 4763TIP3    H235781   0.279   3.690   4.782 -0.9175  0.4509 -1.1848
 4764TIP3   OH235782   6.199   2.598  14.622  0.0480  0.1689  0.0420
 4764TIP3    H135783   6.195   2.681  14.668 -0.5091  0.6120 -0.7803
 4764TIP3    H235784   6.125   2.600  14.561  0.1497 -0.8357 -0.1424
 4765TIP3   OH235785   2.941   4.095  15.475  0.0469  0.0137  0.6343
 4765TIP3    H135786   2.990   4.072  15.554  0.5995 -0.5939  0.1256
 4765TIP3    H235787   2.897   4.013  15.450 -0.3352  0.2703  0.4595
 4766TIP3   OH235788   0.543   5.799  14.850  0.4703  0.4018 -0.1066
 4766TIP3    H135789   0.546   5.709  14.882  0.5944  0.2210 -0.6136
 4766TIP3    H235790   0.634   5.821  14.831  0.2025 -0.2825 -2.4485
 4767TIP3   OH235791   0.531   4.081  13.627  0.2353  0.3270 -0.0087
 4767TIP3    H135792   0.539   4.103  13.720 -1.0508  0.3762  0.1105
 4767TIP3    H235793   0.560   3.990  13.621 -0.4204  0.0777  0.5760
 4768TIP3   OH235794   6.498   0.972  12.460 -0.1426  0.2149  0.3321
 4768TIP3    H135795   6.587   0.945  12.438 -0.3002 -1.3245  1.3781
 4768TIP3    H235796   6.509   1.052  12.511  0.7467 -0.4742  1.2718
 4769TIP3   OH235797   3.753   5.192  11.200  0.0265  0.2203 -0.5610
 4769TIP3    H135798   3.704   5.246  11.138  0.7179  1.9334  0.3029
 4769TIP3    H235799   3.695   5.184  11.276  0.2552  0.4808 -0.3557
 4770TIP3   OH235800   0.164   3.889   4.404  0.2714 -0.3435 -0.4018
 4770TIP3    H135801   0.074   3.877   4.435  0.5154  0.1664  0.5365
 4770TIP3    H235802   0.163   3.857   4.314 -0.3682 -2.2334  0.2348
 4771TIP3   OH235803   5.961   0.417   4.988 -0.3725 -0.2763  0.0614
 4771TIP3    H135804   5.907   0.452   5.059  1.0555  1.5374  0.3297
 4771TIP3    H235805   5.980   0.327   5.015 -0.3708  0.1777  1.6887
 4772TIP3   OH235806   3.326   6.115  15.105 -0.2659  0.3185 -0.0361
 4772TIP3    H135807   3.352   6.139  15.016 -0.9739 -1.0118 -0.6369
 4772TIP3    H235808   3.405   6.129  15.158  0.6506 -0.3665 -1.1702
 4773TIP3   OH235809   1.322   4.596   5.363 -0.5354  0.1951 -0.4774
 4773TIP3    H135810   1.315   4.630   5.452 -0.8749  2.9627 -1.4653
 4773TIP3    H235811   1.233   4.572   5.338 -0.7889  1.3714 -0.7469
 4774TIP3   OH235812   6.724   4.878  16.176  0.4582 -0.2903 -0.2490
 4774TIP3    H135813   6.639   4.834  16.187  0.3899 -0.1302 -0.1236
 4774TIP3    H235814   6.768   4.866  16.260  0.8066 -0.8875 -0.5135
 4775TIP3   OH235815   3.086   4.301  12.255  0.4181  0.6174 -0.0068
 4775TIP3    H135816   3.129   4.384  12.231 -0.0588  0.5706 -1.0757
 4775TIP3    H235817   3.055   4.315  12.344  0.4820  1.5432 -0.1198
 4776TIP3   OH235818   3.279   0.140  13.318 -0.3681  0.1968  0.0637
 4776TIP3    H135819   3.328   0.215  13.284 -3.7847  2.5785 -0.2028
 4776TIP3    H235820   3.294   0.070  13.256 -0.1294  1.9636 -1.9728
 4777TIP3   OH235821   5.314   5.866  16.416 -0.5700 -0.0894  0.2843
 4777TIP3    H135822   5.318   5.796  16.481  3.0970  0.4563  0.8820
 4777TIP3    H235823   5.377   5.931  16.447  1.3258  0.2800 -3.6693
 4778TIP3   OH235824   5.380   5.859  12.235  0.2973 -0.3837 -0.3064
 4778TIP3    H135825   5.360   5.780  12.185  0.7826 -0.4886 -0.3404
 4778TIP3    H235826   5.409   5.826  12.320 -0.5750 -0.2067  0.0655
 4779TIP3   OH235827   4.608   0.167   5.011  0.4034 -0.7766  0.0655
 4779TIP3    H135828   4.612   0.166   4.915 -0.4843  0.0292  0.0003
 4779TIP3    H235829   4.689   0.211   5.038 -0.2749  0.8667 -0.4286
 4780TIP3   OH235830   3.991   3.268   5.225  0.2670 -0.0331  0.2423
 4780TIP3    H135831   3.957   3.262   5.315  0.3534 -0.5099  0.2458
 4780TIP3    H235832   3.914   3.258   5.170  0.1410  0.7548  0.2607
 4781TIP3   OH235833   1.196   0.135   3.312 -0.6893  0.0075  0.8319
 4781TIP3    H135834   1.178   0.060   3.255  0.2681  1.9543 -2.3317
 4781TIP3    H235835   1.120   0.141   3.369 -2.1689 -1.6438 -0.8281
 4782TIP3   OH235836   3.087   1.861   2.085 -0.4907  0.0841  0.2107
 4782TIP3    H135837   3.120   1.844   1.997 -1.5714 -0.6896 -0.0640
 4782TIP3    H235838   3.100   1.779   2.133 -3.1695 -0.7459 -0.3092
 4783TIP3   OH235839   3.930   2.636   5.187  0.3398 -0.0571  0.1684
 4783TIP3    H135840   3.899   2.613   5.275  0.5312  0.0107  0.2538
 4783TIP3    H235841   3.914   2.730   5.181  1.1100  0.1008  0.4516
 4784TIP3   OH235842   4.487   0.571   5.849  0.1689  1.0172  0.0895
 4784TIP3    H135843   4.527   0.510   5.911  0.0746  1.3264  0.4624
 4784TIP3    H235844   4.510   0.658   5.884 -2.1547  1.2429  1.2203
 4785TIP3   OH235845   1.723   5.010  13.476 -0.8529 -0.5093 -0.6130
 4785TIP3    H135846   1.690   5.049  13.394  0.6181  0.5598 -0.7305
 4785TIP3    H235847   1.814   5.039  13.481 -0.1242 -2.7677  0.0627
 4786TIP3   OH235848   5.636   4.871  12.647 -0.4589  0.3868  0.0748
 4786TIP3    H135849   5.694   4.936  12.689  0.9823 -0.0013 -1.2245
 4786TIP3    H235850   5.628   4.901  12.557 -0.1140 -0.9975 -0.4371
 4787TIP3   OH235851   1.874   0.668   6.090 -0.7811  0.1510 -0.0424
 4787TIP3    H135852   1.923   0.654   6.171  0.4385  0.8662 -0.6203
 4787TIP3    H235853   1.828   0.586   6.075  0.1583 -0.5112  0.5864
 4788TIP3   OH235854   0.250   1.673  13.536  0.4005  0.0683  0.1809
 4788TIP3    H135855   0.284   1.651  13.622  0.3072 -0.0049  0.1990
 4788TIP3    H235856   0.316   1.731  13.498  0.9221 -0.6957 -0.1029
 4789TIP3   OH235857   3.362   5.002  13.996 -0.1869 -0.2928 -0.4429
 4789TIP3    H135858   3.420   5.073  13.967  0.6312 -1.4383 -1.6905
 4789TIP3    H235859   3.322   4.970  13.915 -2.0403 -0.0128  0.3170
 4790TIP3   OH235860   4.737   3.561   5.469 -0.8113  0.0379 -0.3369
 4790TIP3    H135861   4.699   3.497   5.529  0.8781 -0.8873 -0.2095
 4790TIP3    H235862   4.669   3.574   5.402 -1.2993 -1.6930 -0.2227
 4791TIP3   OH235863   1.037   2.598   0.576 -0.2827  0.0003 -0.0202
 4791TIP3    H135864   0.949   2.619   0.543 -0.0284  0.8884 -0.1681
 4791TIP3    H235865   1.059   2.516   0.533 -0.6661  0.2535 -0.7262
 4792TIP3   OH235866   1.372   1.572   4.975 -0.2488  0.4415 -0.3943
 4792TIP3    H135867   1.382   1.581   5.069  1.4981  1.0078 -0.5880
 4792TIP3    H235868   1.332   1.486   4.962  1.1433 -0.4197  0.8083
 4793TIP3   OH235869   6.188   2.583   5.974 -0.2876 -0.3795 -0.7872
 4793TIP3    H135870   6.194   2.503   6.027 -1.4413 -0.1077 -0.2049
 4793TIP3    H235871   6.133   2.559   5.900  0.1874 -0.3856 -1.1418
 4794TIP3   OH235872   2.452   4.809  14.209 -0.1680 -0.4261  0.7048
 4794TIP3    H135873   2.537   4.764  14.214 -0.1220 -0.3418  0.6695
 4794TIP3    H235874   2.427   4.802  14.117  0.6404  1.1137  0.3430
 4795TIP3   OH235875   3.558   5.885   2.781 -0.0451  0.4165 -0.0690
 4795TIP3    H135876   3.610   5.807   2.797  0.4907  0.6375 -0.6632
 4795TIP3    H235877   3.617   5.958   2.801 -0.1513  0.6715 -0.6678
 4796TIP3   OH235878   1.689   6.251   0.578 -0.3463  0.0597 -0.3965
 4796TIP3    H135879   1.754   6.316   0.553  1.1579 -0.7347  1.2161
 4796TIP3    H235880   1.724   6.168   0.545 -1.8538 -0.0885 -1.7488
 4797TIP3   OH235881   4.204   6.376  14.168 -0.0814  0.2192 -0.4091
 4797TIP3    H135882   4.187   6.333  14.085  1.5191 -1.2264 -0.0335
 4797TIP3    H235883   4.261   6.450  14.146  2.0954 -1.3749 -0.4330
 4798TIP3   OH235884   1.108   5.392  16.656  0.3580  0.2286 -0.0515
 4798TIP3    H135885   1.111   5.456  16.728 -0.9204  0.6325 -0.3269
 4798TIP3    H235886   1.192   5.347  16.661  1.2610  1.8578  0.2205
 4799TIP3   OH235887   2.440   0.501   1.188  0.1719 -0.6602  0.3870
 4799TIP3    H135888   2.432   0.580   1.241  1.0751 -1.2157  1.3943
 4799TIP3    H235889   2.351   0.466   1.183 -0.1423  0.1237  0.3944
 4800TIP3   OH235890   2.901   4.276  13.378 -0.1286  0.0096 -0.2612
 4800TIP3    H135891   2.919   4.335  13.304 -2.6554  0.8085 -0.3247
 4800TIP3    H235892   2.877   4.334  13.450 -1.9122 -0.8553 -0.0928
 4801TIP3   OH235893   1.391   5.051   1.742  0.2691 -0.5759 -0.2511
 4801TIP3    H135894   1.432   4.968   1.767 -1.2879 -1.1948  0.3965
 4801TIP3    H235895   1.405   5.057   1.648  0.0052 -1.8279 -0.3969
 4802TIP3   OH235896   0.389   4.353   1.606  0.4027 -0.1703  0.2678
 4802TIP3    H135897   0.478   4.342   1.572  1.7828  0.9546  3.1414
 4802TIP3    H235898   0.338   4.383   1.531  2.9230  1.1857 -1.0513
 4803TIP3   OH235899   5.277   1.591  11.062  0.3368 -0.6022  0.5148
 4803TIP3    H135900   5.230   1.617  10.982 -1.0248  0.8053  1.7139
 4803TIP3    H235901   5.319   1.672  11.091 -0.4072 -0.7200  2.0063
 4804TIP3   OH235902   4.851   2.898   5.258  0.8169  0.3207  0.2300
 4804TIP3    H135903   4.849   2.989   5.226 -0.5053  0.0750 -0.4235
 4804TIP3    H235904   4.918   2.856   5.204  2.2072  1.1357  1.2470
 4805TIP3   OH235905   6.241   6.633   3.210  0.2469 -0.1545 -0.3442
 4805TIP3    H135906   6.281   6.550   3.182  1.1418 -0.0221  0.4741
 4805TIP3    H235907   6.305   6.700   3.185  0.2042  0.1384  0.2993
 4806TIP3   OH235908   2.994   3.539  15.600  0.1146  0.2476  0.1401
 4806TIP3    H135909   3.050   3.548  15.677  0.8720  1.2009 -0.4944
 4806TIP3    H235910   3.048   3.494  15.535 -1.0463 -2.0253  0.6388
 4807TIP3   OH235911   3.388   3.695   4.663  0.4014 -0.1614 -0.3054
 4807TIP3    H135912   3.321   3.634   4.695  1.0581 -0.0737  1.3809
 4807TIP3    H235913   3.408   3.665   4.575  0.3695 -2.1160  0.2920
 4808TIP3   OH235914   6.463   0.524   5.960  0.0649  0.2035  0.3749
 4808TIP3    H135915   6.376   0.520   5.999  0.3365 -0.4769  0.9425
 4808TIP3    H235916   6.458   0.595   5.896 -0.3014  1.6597  1.9291
 4809TIP3   OH235917   6.289   3.491  15.122  0.3486 -0.3386  1.1131
 4809TIP3    H135918   6.362   3.553  15.109 -0.4375  0.6232  1.1818
 4809TIP3    H235919   6.309   3.448  15.205  0.6340  0.2212  1.3400
 4810TIP3   OH235920   2.649   5.826  13.417  0.0701 -0.2595 -0.6571
 4810TIP3    H135921   2.553   5.822  13.420  0.0319  0.6198 -0.5738
 4810TIP3    H235922   2.668   5.913  13.383  0.8615  0.1913  0.8763
 4811TIP3   OH235923   1.099   5.935  14.053 -0.1016  0.1183  0.3871
 4811TIP3    H135924   1.165   5.990  14.094  0.0682 -0.6053  1.1144
 4811TIP3    H235925   1.140   5.848  14.048 -0.7608 -0.1938  0.2734
 4812TIP3   OH235926   1.838   0.763  16.432  0.2174 -0.6646  0.0604
 4812TIP3    H135927   1.886   0.723  16.505  0.3376  0.1753  0.4510
 4812TIP3    H235928   1.857   0.856  16.439 -0.8888 -0.4071 -0.2245
 4813TIP3   OH235929   3.569   0.977  15.385 -0.0706 -0.2421 -0.0062
 4813TIP3    H135930   3.552   0.918  15.458  0.3416 -0.6629 -0.2448
 4813TIP3    H235931   3.615   0.924  15.321  0.8953  0.5060  0.0476
 4814TIP3   OH235932   4.664   3.633  12.187 -0.2315  0.8271 -0.0646
 4814TIP3    H135933   4.695   3.549  12.153 -1.1653 -1.1285  3.4599
 4814TIP3    H235934   4.742   3.687  12.193  0.9807 -0.8865  0.4091
 4815TIP3   OH235935   1.377   6.665  11.471 -0.2303  0.2395  0.3854
 4815TIP3    H135936   1.368   6.726  11.399  2.7577  0.8380  0.4135
 4815TIP3    H235937   1.340   6.711  11.546  0.6303  1.4415  0.1009
 4816TIP3   OH235938   5.288   6.264  17.113  0.1326 -0.3668 -1.0011
 4816TIP3    H135939   5.351   6.193  17.097  0.3336 -0.8165  1.3958
 4816TIP3    H235940   5.306   6.292  17.203 -0.2673  2.4445 -1.7034
 4817TIP3   OH235941   4.317   3.757   1.524  0.3337 -0.3324 -0.3043
 4817TIP3    H135942   4.244   3.745   1.584  1.8066  3.2059  2.5739
 4817TIP3    H235943   4.395   3.756   1.580  2.0394  0.8151 -2.4768
 4818TIP3   OH235944   6.006   0.494   1.617  0.0282 -0.1209 -0.4746
 4818TIP3    H135945   6.065   0.447   1.559  0.9893  0.7140 -0.2173
 4818TIP3    H235946   6.038   0.474   1.705 -0.0140  0.3879 -0.3345
 4819TIP3   OH235947   3.841   6.381  15.672 -0.3642  0.4667  0.4607
 4819TIP3    H135948   3.756   6.356  15.635  0.6733 -1.3464 -0.8878
 4819TIP3    H235949   3.849   6.329  15.752  0.1598 -0.6971 -0.3190
 4820TIP3   OH235950   4.144   1.575  15.525  0.3519  0.3173  0.3840
 4820TIP3    H135951   4.050   1.569  15.505  0.6448  2.6783 -2.3752
 4820TIP3    H235952   4.148   1.627  15.604 -0.6871  1.6660 -0.3961
 4821TIP3   OH235953   2.831   6.547   1.188  0.4260 -0.0346 -0.2214
 4821TIP3    H135954   2.866   6.573   1.103 -1.0145  1.0194 -0.5318
 4821TIP3    H235955   2.909   6.530   1.242  1.3938  0.9285 -1.2536
 4822TIP3   OH235956   2.807   0.728   4.943 -0.3409  0.0865  0.1286
 4822TIP3    H135957   2.732   0.775   4.908 -0.9815  0.1741  1.5400
 4822TIP3    H235958   2.820   0.655   4.882 -2.4092 -0.6957  0.5326
 4823TIP3   OH235959   1.523   4.538   0.005 -0.6877 -0.0155  0.1621
 4823TIP3    H135960   1.610   4.498  -0.002 -1.3880 -1.6010  0.3013
 4823TIP3    H235961   1.541   4.632   0.008  1.1218 -0.3407  1.5770
 4824TIP3   OH235962   5.762   1.359  14.009 -0.1908 -0.2468  0.1456
 4824TIP3    H135963   5.703   1.433  13.998 -0.4912 -0.3463  1.0204
 4824TIP3    H235964   5.733   1.295  13.944  0.9962  0.9443 -1.6412
 4825TIP3   OH235965   4.354   2.732   1.290  0.1704 -0.3980  0.0234
 4825TIP3    H135966   4.261   2.718   1.274  0.0010 -0.4486  0.9863
 4825TIP3    H235967   4.386   2.647   1.322  0.7329 -0.6142 -1.0537
 4826TIP3   OH235968   3.358   4.943   4.269 -0.4618 -0.2183  0.1242
 4826TIP3    H135969   3.290   4.882   4.296  0.0695 -0.7752  0.2218
 4826TIP3    H235970   3.310   5.022   4.242 -1.1966 -0.9667 -0.8183
 4827TIP3   OH235971   1.583   0.025  16.116  0.1704  0.1333  0.8762
 4827TIP3    H135972   1.533   0.026  16.035  0.4058 -3.7151  0.4550
 4827TIP3    H235973   1.675   0.018  16.088  0.1426 -3.5049  1.1976
 4828TIP3   OH235974   1.259   4.827   5.532 -0.0488  0.5219 -0.0101
 4828TIP3    H135975   1.211   4.908   5.512  0.2449  0.8208  0.4796
 4828TIP3    H235976   1.348   4.844   5.502 -0.0041  0.3588  0.0332
 4829TIP3   OH235977   4.776   3.759  14.365 -0.3459 -0.3024 -0.5754
 4829TIP3    H135978   4.777   3.728  14.455 -0.4612  0.8783 -0.1457
 4829TIP3    H235979   4.820   3.844  14.368  2.0842 -1.3817 -2.1067
 4830TIP3   OH235980   0.423   0.800  12.760  0.3361  0.0261 -0.2428
 4830TIP3    H135981   0.518   0.796  12.771  0.5339  1.2853 -1.2826
 4830TIP3    H235982   0.388   0.793  12.848  1.3828 -0.4997  0.1531
 4831TIP3   OH235983   2.046   0.654   3.670 -0.4315 -0.0617 -0.2391
 4831TIP3    H135984   1.953   0.675   3.667 -0.0663  1.7144  0.0319
 4831TIP3    H235985   2.079   0.675   3.582 -0.2029 -0.2330 -0.1966
 4832TIP3   OH235986   3.796   3.602  10.515  0.1614  0.0046  0.1767
 4832TIP3    H135987   3.885   3.629  10.538  1.1714 -2.1806 -0.9173
 4832TIP3    H235988   3.763   3.559  10.594  0.4329 -0.0275  0.2749
 4833TIP3   OH235989   1.118   6.420  13.417 -0.3447  0.0719  0.3525
 4833TIP3    H135990   1.123   6.443  13.324 -0.0402  1.2748  0.6471
 4833TIP3    H235991   1.143   6.328  13.420 -1.8568 -0.4328 -0.9291
 4834TIP3   OH235992   3.256   2.524  10.779  0.4547 -0.3091 -0.4480
 4834TIP3    H135993   3.179   2.492  10.732  0.1932  1.4180 -1.2736
 4834TIP3    H235994   3.313   2.560  10.711  0.1688  2.0366  0.4428
 4835TIP3   OH235995   5.222   5.024  16.320  0.3215 -0.4017  0.3338
 4835TIP3    H135996   5.253   4.997  16.406  0.4069 -0.1953  0.3674
 4835TIP3    H235997   5.302   5.041  16.270  0.2865  2.0426  1.0149
 4836TIP3   OH235998   4.953   3.707   3.118  0.9447 -0.0962 -0.2350
 4836TIP3    H135999   4.873   3.759   3.110  0.1752 -1.2501 -0.2970
 4836TIP3    H236000   4.979   3.716   3.210  0.7080  0.2535 -0.2031
 4837TIP3   OH236001   1.250   6.641  15.332  0.1882  0.0878  0.0360
 4837TIP3    H136002   1.276   6.662  15.243  0.5357  1.2481  0.3906
 4837TIP3    H236003   1.159   6.668  15.338 -0.3336 -1.4566 -0.4061
 4838TIP3   OH236004   6.300   6.079  12.735 -0.0664 -0.1606 -0.3619
 4838TIP3    H136005   6.287   5.990  12.704  0.4399 -0.2530 -0.3060
 4838TIP3    H236006   6.367   6.072  12.802  0.6648  0.3882 -1.0152
 4839TIP3   OH236007   3.739   0.241   3.681 -0.3102 -0.0882 -0.2174
 4839TIP3    H136008   3.749   0.151   3.652  0.7834 -0.0397 -0.0451
 4839TIP3    H236009   3.647   0.262   3.664  0.0068 -0.4178 -2.6251
 4840TIP3   OH236010   1.282   4.099   3.607  0.1602  0.3138 -0.5304
 4840TIP3    H136011   1.225   4.156   3.555  0.2917 -0.1111 -1.1593
 4840TIP3    H236012   1.266   4.125   3.698 -0.3652  0.8091 -0.7572
 4841TIP3   OH236013   0.699   0.327  16.702 -0.2956  0.5978 -0.2282
 4841TIP3    H136014   0.714   0.348  16.610 -0.1511  0.9119 -0.1354
 4841TIP3    H236015   0.775   0.273  16.726  0.1126  1.2362 -0.0628
 4842TIP3   OH236016   5.907   6.625  16.173  0.4188  0.4430 -0.2093
 4842TIP3    H136017   5.985   6.678  16.157  0.9005 -0.0980  0.2846
 4842TIP3    H236018   5.842   6.656  16.109  1.1950  0.5771 -0.9482
 4843TIP3   OH236019   4.408   6.460  15.114  0.5056 -0.3348  0.2263
 4843TIP3    H136020   4.426   6.520  15.041  1.0724 -0.8600 -0.0812
 4843TIP3    H236021   4.359   6.388  15.075 -1.8228  0.7648  0.9403
 4844TIP3   OH236022   4.190   0.621  15.497  0.4117  0.3767 -0.7387
 4844TIP3    H136023   4.222   0.618  15.587 -0.4914 -0.4603 -0.4214
 4844TIP3    H236024   4.244   0.558  15.450 -0.9199 -1.3058 -0.1259
 4845TIP3   OH236025   1.377   0.306  14.759 -0.1423 -0.1885 -0.4013
 4845TIP3    H136026   1.448   0.370  14.761  0.1329 -0.4956  1.4540
 4845TIP3    H236027   1.403   0.242  14.693  0.6700  0.4015 -0.6620
 4846TIP3   OH236028   3.398   4.420  16.175 -0.1213 -0.0658  0.0083
 4846TIP3    H136029   3.431   4.330  16.175 -1.5112 -0.6389  1.8842
 4846TIP3    H236030   3.318   4.415  16.123 -0.2946  0.0485  0.2660
 4847TIP3   OH236031   3.778   4.273  16.090  0.3793 -0.4863  0.7760
 4847TIP3    H136032   3.849   4.255  16.029  1.0548 -1.0604  1.7121
 4847TIP3    H236033   3.741   4.356  16.059  0.1013 -1.2094 -0.9430
 4848TIP3   OH236034   6.352   5.991   6.066 -0.0645  0.1523  0.1075
 4848TIP3    H136035   6.324   6.025   6.150 -0.0453  0.6452 -0.0826
 4848TIP3    H236036   6.417   6.054   6.035 -0.2577  0.1125 -0.3887
 4849TIP3   OH236037   0.161   1.803  15.741  0.6591 -0.4515 -0.4808
 4849TIP3    H136038   0.235   1.743  15.732  1.2775  0.3184 -0.7124
 4849TIP3    H236039   0.124   1.808  15.653  0.2562 -0.9338 -0.3374
 4850TIP3   OH236040   5.778   4.001  15.676  0.0969 -0.0115 -0.3010
 4850TIP3    H136041   5.690   3.963  15.681 -0.2575  0.9346  1.0744
 4850TIP3    H236042   5.763   4.091  15.647  0.3727  0.8515  2.0816
 4851TIP3   OH236043   2.993   5.681   1.465  0.3871  0.1315  0.1832
 4851TIP3    H136044   2.977   5.598   1.509 -2.2171  1.4561  1.9977
 4851TIP3    H236045   2.954   5.671   1.378 -0.8233 -0.2276  0.7570
 4852TIP3   OH236046   3.503   2.847  15.747 -0.1409  0.2216 -0.3442
 4852TIP3    H136047   3.579   2.886  15.791 -1.1357  1.2218  0.5492
 4852TIP3    H236048   3.502   2.757  15.778 -1.6889  1.2405  3.0946
 4853TIP3   OH236049   5.169   1.110   2.765 -0.4662  0.6428  0.2491
 4853TIP3    H136050   5.140   1.022   2.742  0.3499  0.6820 -1.0321
 4853TIP3    H236051   5.249   1.096   2.816 -0.6500  0.6396  0.5422
 4854TIP3   OH236052   6.698   1.026   1.585 -0.3416  0.1244  0.5424
 4854TIP3    H136053   6.759   1.069   1.645  0.0380 -0.1705  0.3700
 4854TIP3    H236054   6.720   1.062   1.499  0.3645 -0.8277  0.3102
 4855TIP3   OH236055   1.987   0.516   1.355 -0.0205 -0.0877 -0.0697
 4855TIP3    H136056   1.922   0.487   1.419  0.7488  0.3726  0.9670
 4855TIP3    H236057   1.939   0.523   1.273 -0.7837 -1.8647  0.1726
 4856TIP3   OH236058   5.586   1.767  15.554  0.5584  0.3269  0.0394
 4856TIP3    H136059   5.641   1.839  15.582  2.7989 -0.2177 -2.5165
 4856TIP3    H236060   5.499   1.806  15.543  1.5415  2.5077 -0.5886
 4857TIP3   OH236061   2.772   4.934   3.778 -0.5462  0.6037 -0.7708
 4857TIP3    H136062   2.817   4.942   3.694 -0.4788 -0.1281 -0.8150
 4857TIP3    H236063   2.768   4.839   3.794 -0.8067  0.7230 -0.0851
 4858TIP3   OH236064   5.198   2.141   0.911  0.3567  0.2612  0.9373
 4858TIP3    H136065   5.230   2.162   0.824  2.3344 -1.2552  1.2320
 4858TIP3    H236066   5.254   2.191   0.970 -0.6458  0.8920  1.3928
 4859TIP3   OH236067   6.167   5.011  15.423  0.2746 -0.0696  0.0365
 4859TIP3    H136068   6.150   4.926  15.463  1.5488  0.3535  1.5734
 4859TIP3    H236069   6.194   4.991  15.334  0.0878 -1.2344  0.2319
 4860TIP3   OH236070   2.106   3.175  14.013  0.3535 -0.2322  0.2582
 4860TIP3    H136071   2.138   3.239  13.949 -0.0637 -1.5828 -1.3721
 4860TIP3    H236072   2.011   3.181  14.009  0.3138  0.1899  1.3405
 4861TIP3   OH236073   3.439   4.149   0.861  0.1684  0.2703 -0.2986
 4861TIP3    H136074   3.447   4.241   0.834  1.7525  0.7753  1.6167
 4861TIP3    H236075   3.426   4.154   0.956 -0.1590 -1.5054 -0.2212
 4862TIP3   OH236076   2.358   2.773   2.480 -0.1722  0.4815 -0.0758
 4862TIP3    H136077   2.411   2.761   2.401 -0.5322 -0.0663 -0.2410
 4862TIP3    H236078   2.318   2.687   2.496 -0.7446  0.7976  0.2351
 4863TIP3   OH236079   6.814   1.487  10.757 -0.3764 -0.4915  0.1263
 4863TIP3    H136080   6.816   1.583  10.755 -0.6398 -0.4532 -2.6859
 4863TIP3    H236081   6.721   1.465  10.762 -0.4201 -0.5630 -0.8900
 4864TIP3   OH236082   2.212   5.827   4.859 -0.0684  0.9243 -0.0266
 4864TIP3    H136083   2.206   5.759   4.792  0.7595 -0.2453  1.0457
 4864TIP3    H236084   2.282   5.885   4.828  0.3728  0.3373 -0.1569
 4865TIP3   OH236085   1.040   1.233   4.100  0.2721  0.7320 -0.5967
 4865TIP3    H136086   1.003   1.257   4.185 -1.6392  2.0625 -1.7422
 4865TIP3    H236087   1.131   1.260   4.106  0.9162 -1.4572  1.8500
 4866TIP3   OH236088   0.196   4.841   1.790  0.2758  0.0517 -0.2932
 4866TIP3    H136089   0.240   4.885   1.863 -0.9175 -2.0695  1.8662
 4866TIP3    H236090   0.267   4.797   1.742  1.1421  1.9677 -0.8520
 4867TIP3   OH236091   2.792   1.307   4.555 -0.0789  0.3590 -0.2782
 4867TIP3    H136092   2.781   1.306   4.460 -0.7673 -2.4567 -0.2396
 4867TIP3    H236093   2.802   1.400   4.576  0.7623  1.0232 -3.1365
 4868TIP3   OH236094   6.057   6.592   4.753  0.7309  0.0291  0.3171
 4868TIP3    H136095   6.040   6.541   4.674 -1.0176  0.9546  0.0424
 4868TIP3    H236096   5.974   6.589   4.802  0.7146  2.2009  0.4971
 4869TIP3   OH236097   0.925   0.769   2.445 -0.0758 -0.0711  0.3061
 4869TIP3    H136098   0.829   0.770   2.441 -0.0464 -0.4283 -0.7921
 4869TIP3    H236099   0.945   0.717   2.523 -0.7716 -1.0245 -0.1295
 4870TIP3   OH236100   3.489   5.115  11.328 -0.6236  0.0876 -0.5051
 4870TIP3    H136101   3.421   5.174  11.360  0.5745  0.1520  2.1826
 4870TIP3    H236102   3.497   5.048  11.396  0.9016 -0.8108 -1.5145
 4871TIP3   OH236103   0.238   3.198   4.567  0.4369  0.0979 -0.6917
 4871TIP3    H136104   0.205   3.285   4.545  0.8778  1.2591  2.7407
 4871TIP3    H236105   0.174   3.138   4.529 -1.8756  2.0507 -0.1278
 4872TIP3   OH236106   6.057   0.702  16.098 -0.2701  0.1008  0.3337
 4872TIP3    H136107   6.064   0.615  16.138 -0.3183  0.5932  1.4402
 4872TIP3    H236108   6.004   0.688  16.019  0.9290 -1.1189 -0.2847
 4873TIP3   OH236109   5.229   1.260   3.305  0.2649 -0.0984  0.0165
 4873TIP3    H136110   5.232   1.351   3.276 -0.9560 -0.4761 -1.4235
 4873TIP3    H236111   5.183   1.263   3.388 -0.5669  0.5272 -0.4460
 4874TIP3   OH236112   5.016   6.031   0.371  0.0564 -0.0482 -0.2324
 4874TIP3    H136113   5.062   5.964   0.421  2.7286  0.7003 -1.5053
 4874TIP3    H236114   5.025   6.110   0.424 -1.7816 -0.3041  0.5463
 4875TIP3   OH236115   0.178   2.645   1.947  0.2679  0.3414  0.0274
 4875TIP3    H136116   0.111   2.577   1.956  1.0473 -0.3609  0.7398
 4875TIP3    H236117   0.129   2.727   1.942 -0.6564 -0.1917  0.1340
 4876TIP3   OH236118   5.221   2.842  16.573  0.2983 -0.2964  0.4700
 4876TIP3    H136119   5.269   2.861  16.492  0.9946  0.2701  1.0045
 4876TIP3    H236120   5.129   2.849  16.548  0.5047  0.7371 -0.0813
 4877TIP3   OH236121   4.495   6.023   2.546 -0.2877 -0.0503  0.4006
 4877TIP3    H136122   4.466   5.956   2.486 -0.6245  0.7389 -0.3374
 4877TIP3    H236123   4.577   5.989   2.583 -0.2283 -0.6611 -0.2849
 4878TIP3   OH236124   0.921   5.649   5.152 -0.2446 -0.6726  0.4660
 4878TIP3    H136125   0.926   5.710   5.226 -0.1504 -0.8710  0.6244
 4878TIP3    H236126   0.985   5.683   5.089  0.4148 -1.0786  0.9065
 4879TIP3   OH236127   1.722   3.102   3.201  0.5723 -0.6223 -0.0156
 4879TIP3    H136128   1.781   3.155   3.254  1.3615 -0.7320 -0.7595
 4879TIP3    H236129   1.759   3.014   3.206  0.2531 -0.7667 -0.1848
 4880TIP3   OH236130   3.681   1.461   5.721  0.7664 -0.8090 -0.0208
 4880TIP3    H136131   3.661   1.393   5.656 -0.0496  0.7637 -1.5023
 4880TIP3    H236132   3.771   1.488   5.699 -0.0924  0.8916 -1.6778
 4881TIP3   OH236133   5.469   1.139   4.607 -0.7285 -0.1643 -0.1125
 4881TIP3    H136134   5.426   1.056   4.586  1.2314 -1.3430  0.1644
 4881TIP3    H236135   5.411   1.181   4.670 -0.8332 -2.3305  1.3534
 4882TIP3   OH236136   0.252   3.537  15.700  0.0518  0.3944  0.4875
 4882TIP3    H136137   0.265   3.626  15.731  0.4061 -0.0299  1.5960
 4882TIP3    H236138   0.181   3.503  15.754  0.5052 -0.2759  0.6694
 4883TIP3   OH236139   3.062   1.585  14.191 -0.0921 -0.6652  0.1235
 4883TIP3    H136140   3.106   1.565  14.273 -0.6137 -0.2406  0.5181
 4883TIP3    H236141   3.082   1.677  14.174 -0.8846 -0.4365  0.3616
 4884TIP3   OH236142   6.403   0.056   1.127  0.2132  0.3140 -0.2176
 4884TIP3    H136143   6.393   0.090   1.216 -0.2045 -1.4544  0.4497
 4884TIP3    H236144   6.489   0.014   1.127 -0.1113 -0.3572 -0.4086
 4885TIP3   OH236145   6.448   6.394  16.959  0.2937 -0.3772 -0.1996
 4885TIP3    H136146   6.522   6.355  17.006  0.1103  0.2951  0.6793
 4885TIP3    H236147   6.372   6.342  16.986  0.3884 -0.8492 -0.8301
 4886TIP3   OH236148   3.055   4.022   2.155 -0.0165  0.6918  0.6507
 4886TIP3    H136149   2.972   3.974   2.152  0.7042 -0.5690 -1.4641
 4886TIP3    H236150   3.120   3.956   2.179  0.6903  1.1030 -0.0816
 4887TIP3   OH236151   3.241   1.665   3.263  0.5562 -0.8570  0.3442
 4887TIP3    H136152   3.223   1.581   3.306  0.6987 -0.6370  0.8382
 4887TIP3    H236153   3.282   1.718   3.331  1.1401 -0.6340 -0.1807
 4888TIP3   OH236154   3.232   4.796  13.362 -0.5174 -0.7365  0.6443
 4888TIP3    H136155   3.156   4.840  13.325  0.2030 -0.5062 -0.6442
 4888TIP3    H236156   3.295   4.793  13.290  0.3767 -1.6743  1.4308
 4889TIP3   OH236157   2.474   4.179  14.773  0.2678 -0.1567  0.1706
 4889TIP3    H136158   2.434   4.172  14.860  0.1143 -0.9436  0.0484
 4889TIP3    H236159   2.403   4.208  14.716 -0.2284 -1.7536 -0.0847
 4890TIP3   OH236160   5.608   1.781  12.524 -0.3940  0.3254  0.5457
 4890TIP3    H136161   5.528   1.797  12.576 -1.4893  0.5924 -1.1335
 4890TIP3    H236162   5.618   1.860  12.472 -0.2003 -0.5291 -0.7465
 4891TIP3   OH236163   6.016   5.986   1.583 -0.0928 -0.0168 -0.2632
 4891TIP3    H136164   5.952   5.950   1.522 -0.8498  0.9708 -0.0819
 4891TIP3    H236165   6.037   6.072   1.546  0.0679  0.2387  0.4212
 4892TIP3   OH236166   6.211   5.064   5.933 -0.8107 -0.6763  0.6155
 4892TIP3    H136167   6.199   5.019   6.017 -1.1407 -1.7701  0.0040
 4892TIP3    H236168   6.255   5.146   5.956  0.0208 -1.4026  1.7597
 4893TIP3   OH236169   1.970   2.874  10.682 -0.3514  0.0508  0.3565
 4893TIP3    H136170   2.031   2.945  10.660 -0.7570 -0.1274 -1.5062
 4893TIP3    H236171   1.990   2.805  10.619 -2.2467 -0.1313 -0.0884
 4894TIP3   OH236172   1.441   3.985   1.224  0.3577 -0.1749 -0.3201
 4894TIP3    H136173   1.405   3.980   1.312  0.6074  0.3297 -0.1831
 4894TIP3    H236174   1.371   3.954   1.167 -0.0279  0.1006  0.0016
 4895TIP3   OH236175   5.047   6.713  13.367  0.0203 -0.1503  0.2658
 4895TIP3    H136176   5.039   6.619  13.353 -1.6133  0.0301 -0.1871
 4895TIP3    H236177   4.988   6.732  13.439  1.7667  0.2795  1.6632
 4896TIP3   OH236178   3.970   2.978   1.688  0.0751  0.2947 -0.0987
 4896TIP3    H136179   3.907   3.016   1.627  1.1227  1.1106 -0.7067
 4896TIP3    H236180   4.046   3.036   1.683  1.3971 -1.4002 -0.3852
 4897TIP3   OH236181   4.666   4.411   1.400  0.0676 -0.2448  0.3883
 4897TIP3    H136182   4.583   4.435   1.441  0.0115 -0.1920  0.2440
 4897TIP3    H236183   4.641   4.376   1.314  0.1975 -0.1585  0.3145
 4898TIP3   OH236184   0.702   2.466  16.044 -0.5260  0.3398  0.0462
 4898TIP3    H136185   0.656   2.438  16.124 -1.1070  2.0700  0.3505
 4898TIP3    H236186   0.760   2.536  16.072  0.4178 -0.0681 -0.8119
 4899TIP3   OH236187   4.611   0.884   3.688  0.2838  0.2529 -0.7896
 4899TIP3    H136188   4.537   0.858   3.633 -0.2239 -0.6598  0.2985
 4899TIP3    H236189   4.688   0.858   3.638 -0.0907  1.4154 -2.0390
 4900TIP3   OH236190   2.004   4.217   5.365 -0.0130 -0.5096 -0.1300
 4900TIP3    H136191   2.066   4.290   5.356 -1.0443  0.3719 -0.3530
 4900TIP3    H236192   2.043   4.161   5.431 -0.9844  2.2335  3.0294
 4901TIP3   OH236193   2.957   2.511  13.323  0.5569  0.3897  0.0660
 4901TIP3    H136194   3.050   2.523  13.337  0.6967 -0.3100 -0.2170
 4901TIP3    H236195   2.922   2.487  13.408  0.4695  1.5580  0.3784
 4902TIP3   OH236196   4.172   2.951   0.994  0.6086  0.3144 -0.3489
 4902TIP3    H136197   4.122   2.973   0.916  2.2464  0.8118 -1.3206
 4902TIP3    H236198   4.120   2.884   1.039 -0.7644  0.6302 -1.4235
 4903TIP3   OH236199   6.216   2.008   5.349 -0.1473 -0.2642 -0.2254
 4903TIP3    H136200   6.303   2.007   5.387  0.8273  0.5250 -2.2830
 4903TIP3    H236201   6.230   2.034   5.258 -2.1372 -3.4916 -1.6447
 4904TIP3   OH236202   6.820   3.423  15.674 -0.1297 -0.0751 -0.2851
 4904TIP3    H136203   6.858   3.383  15.752  0.1718 -1.3688 -1.0673
 4904TIP3    H236204   6.805   3.350  15.614 -2.1873  0.6307 -0.7133
 4905TIP3   OH236205   5.724   3.616  16.508 -0.2249  0.0294 -0.1434
 4905TIP3    H136206   5.813   3.581  16.504  0.2558  0.9951  1.3023
 4905TIP3    H236207   5.724   3.674  16.584 -2.0560  0.1780 -0.2039
 4906TIP3   OH236208   5.504   4.525   2.488  0.2476  0.2730 -0.1753
 4906TIP3    H136209   5.468   4.537   2.400 -3.3949 -0.2435  1.0687
 4906TIP3    H236210   5.488   4.608   2.532  0.5267 -0.0120  0.4771
 4907TIP3   OH236211   3.489   1.175  15.771 -0.3243  0.1193 -0.1105
 4907TIP3    H136212   3.439   1.195  15.692 -2.7015 -0.8159  1.0507
 4907TIP3    H236213   3.469   1.247  15.831  1.6119  0.9258 -0.3497
 4908TIP3   OH236214   5.498   5.135  17.029 -0.3405  0.5353 -0.0247
 4908TIP3    H136215   5.415   5.171  17.060  0.0601  1.0365  0.4807
 4908TIP3    H236216   5.473   5.069  16.964 -1.2169 -0.9098  1.6921
 4909TIP3   OH236217   1.248   4.356   6.000 -0.0986  0.0458 -0.5591
 4909TIP3    H136218   1.203   4.337   6.083 -0.2140  1.2855 -0.3190
 4909TIP3    H236219   1.323   4.409   6.025 -0.5728  1.1117 -1.3002
 4910TIP3   OH236220   0.687   2.157  14.332  0.2876  0.6204  0.0322
 4910TIP3    H136221   0.702   2.112  14.415  0.3910 -0.3797 -0.5141
 4910TIP3    H236222   0.672   2.248  14.357  2.0236  0.6886  1.0305
 4911TIP3   OH236223   5.954   0.042  11.497 -0.0211  0.0639 -0.3713
 4911TIP3    H136224   5.906   0.062  11.578  1.3880 -0.6048  0.6699
 4911TIP3    H236225   5.914  -0.040  11.466 -0.5672  0.3221 -0.3582
 4912TIP3   OH236226   6.384   4.807  12.749  0.1647  0.1588  0.3785
 4912TIP3    H136227   6.420   4.724  12.779  0.3197 -1.0330 -2.7345
 4912TIP3    H236228   6.331   4.784  12.672 -0.3340  2.8495 -0.1910
 4913TIP3   OH236229   6.073   6.746   6.775  0.0441 -0.0367  0.6789
 4913TIP3    H136230   6.084   6.735   6.680  1.0803 -0.2788  0.8087
 4913TIP3    H236231   6.056   6.839   6.786  0.1333  0.0326  0.2616
 4914TIP3   OH236232   5.600   1.060  10.856 -0.6055 -0.0292  0.1274
 4914TIP3    H136233   5.599   0.984  10.799  1.6869 -0.3902  0.4461
 4914TIP3    H236234   5.648   1.127  10.806 -2.2162  1.0915  0.0187
 4915TIP3   OH236235   3.605   4.299   1.953 -0.7795 -0.0340  0.0863
 4915TIP3    H136236   3.682   4.353   1.966 -1.0207  0.3666 -0.1410
 4915TIP3    H236237   3.552   4.313   2.032 -0.1021 -1.1917  0.7730
 4916TIP3   OH236238   5.383   1.895  12.292  0.6059  0.2762 -0.2264
 4916TIP3    H136239   5.439   1.825  12.258  0.9829  0.6732 -0.4344
 4916TIP3    H236240   5.297   1.854  12.301  0.7793 -0.1662 -0.5153
 4917TIP3   OH236241   4.381   0.389   1.939 -0.2707 -0.4735  0.1466
 4917TIP3    H136242   4.385   0.446   2.015  3.7863  1.5564 -1.3216
 4917TIP3    H236243   4.395   0.301   1.974 -0.0705  0.2124  1.8644
 4918TIP3   OH236244   2.684   3.963   0.911 -0.1432  0.6832 -0.3662
 4918TIP3    H136245   2.628   3.888   0.889  0.2327  0.7116 -1.5077
 4918TIP3    H236246   2.653   4.034   0.854  1.1487  0.6450 -1.1685
 4919TIP3   OH236247   1.217   2.009   1.565  0.5277 -0.2964  0.0117
 4919TIP3    H136248   1.235   2.002   1.659  0.5369 -1.6549 -0.0646
 4919TIP3    H236249   1.128   1.974   1.555  0.6148 -0.3806 -0.5058
 4920TIP3   OH236250   0.335   3.959   3.667  0.1603 -0.1352  0.0193
 4920TIP3    H136251   0.254   4.004   3.690  0.3931 -0.7070  2.1672
 4920TIP3    H236252   0.399   4.029   3.653 -0.3452  0.2697 -0.3059
 4921TIP3   OH236253   5.727   4.295   2.135  0.4633  0.2948 -0.2905
 4921TIP3    H136254   5.822   4.306   2.129  0.3722  1.8141  0.4466
 4921TIP3    H236255   5.708   4.218   2.081  2.3465 -1.4047  1.2977
 4922TIP3   OH236256   3.902   4.575   4.471  0.8122 -0.1679  0.0556
 4922TIP3    H136257   3.961   4.603   4.401 -0.1796  0.7688 -0.4374
 4922TIP3    H236258   3.878   4.486   4.447 -1.1928  0.8307 -2.0394
 4923TIP3   OH236259   5.737   5.179  16.205 -0.3920 -0.2859  0.6959
 4923TIP3    H136260   5.697   5.226  16.132 -0.3625 -1.6026 -0.2104
 4923TIP3    H236261   5.808   5.236  16.234 -0.0412  0.0273 -0.6834
 4924TIP3   OH236262   2.330   0.694  12.667 -0.1177 -0.1425  0.6453
 4924TIP3    H136263   2.234   0.690  12.675 -0.6509 -0.6662 -3.6436
 4924TIP3    H236264   2.358   0.603  12.667  0.3269 -0.0132  1.1212
 4925TIP3   OH236265   2.470   1.348   2.091  0.1858  0.0652  0.1184
 4925TIP3    H136266   2.474   1.346   1.995  1.1775  1.0834  0.1347
 4925TIP3    H236267   2.526   1.275   2.118  1.0951  0.6847 -0.0602
 4926TIP3   OH236268   3.126   2.676   1.545 -0.6665  0.4145  0.1565
 4926TIP3    H136269   3.188   2.730   1.594 -2.0200  1.0006  1.2971
 4926TIP3    H236270   3.162   2.672   1.457  2.1834 -1.1860  1.2816
 4927TIP3   OH236271   4.091   6.360   4.860 -0.0636  0.0600  0.1835
 4927TIP3    H136272   4.023   6.370   4.793  1.4597 -0.0360 -1.4546
 4927TIP3    H236273   4.073   6.430   4.923 -1.2460  0.4935 -0.5912
 4928TIP3   OH236274   2.639   4.706   5.507 -0.4768 -0.1687 -0.6810
 4928TIP3    H136275   2.629   4.645   5.580 -2.2998  0.9180  0.0555
 4928TIP3    H236276   2.727   4.742   5.518  0.2889 -1.9660 -0.6235
 4929TIP3   OH236277   0.554   5.778   2.406  0.5756  0.7034 -0.1127
 4929TIP3    H136278   0.472   5.732   2.423  1.0142  0.0302  0.2732
 4929TIP3    H236279   0.533   5.844   2.340  0.1551 -0.7937 -1.5229
 4930TIP3   OH236280   4.482   1.057   2.514 -0.0148  0.5501  0.1468
 4930TIP3    H136281   4.432   1.089   2.439 -1.3380  0.2372  0.8590
 4930TIP3    H236282   4.559   1.015   2.475 -1.0442 -0.2744 -1.0911
 4931TIP3   OH236283   5.559   1.480  12.466 -0.0861  0.1717  0.3055
 4931TIP3    H136284   5.557   1.455  12.558  1.5038 -0.5845  0.1843
 4931TIP3    H236285   5.586   1.572  12.466  2.2240 -0.4213  0.6038
 4932TIP3   OH236286   6.048   2.645  16.766 -0.1893 -0.2189 -0.6935
 4932TIP3    H136287   5.987   2.707  16.727 -0.1001 -1.0980 -2.3364
 4932TIP3    H236288   6.088   2.600  16.691 -0.6889 -2.6520  0.3937
 4933TIP3   OH236289   0.802   6.368  12.673 -0.0364  0.4580  0.0616
 4933TIP3    H136290   0.737   6.407  12.731  0.5697  2.6134 -0.6362
 4933TIP3    H236291   0.777   6.397  12.585  1.0636  0.1642 -0.3683
 4934TIP3   OH236292   0.929   4.468  10.579 -0.1877  0.5748 -0.2891
 4934TIP3    H136293   0.998   4.401  10.583 -1.6277 -0.9295  0.5797
 4934TIP3    H236294   0.940   4.507  10.492  0.1583 -1.4234 -1.2193
 4935TIP3   OH236295   5.895   5.996  15.748  1.1583 -0.9587 -0.6978
 4935TIP3    H136296   5.882   5.985  15.842  0.9367 -1.5419 -0.7919
 4935TIP3    H236297   5.808   6.016  15.714  1.4385  0.4613 -0.6251
 4936TIP3   OH236298   0.866   6.547   4.232 -0.4461  0.3275  0.0618
 4936TIP3    H136299   0.822   6.553   4.147  0.3321 -0.2526 -0.3948
 4936TIP3    H236300   0.938   6.609   4.226 -0.9734  1.0221  0.6814
 4937TIP3   OH236301   6.271   4.618  15.995 -0.5079 -0.5877  0.6443
 4937TIP3    H136302   6.239   4.620  15.905  0.5733  0.8871  0.2529
 4937TIP3    H236303   6.254   4.529  16.025 -2.9791 -0.4915 -0.2230
 4938TIP3   OH236304   0.150   6.291  12.046  0.4597 -0.1065 -0.1913
 4938TIP3    H136305   0.134   6.219  12.106  0.1335  1.1234  1.2662
 4938TIP3    H236306   0.116   6.368  12.091  0.6476  0.9476 -1.7583
 4939TIP3   OH236307   6.714   6.440   3.170 -0.1374  0.1771  0.4736
 4939TIP3    H136308   6.726   6.346   3.158 -0.1791  0.0466  1.3985
 4939TIP3    H236309   6.723   6.454   3.264 -2.3275  0.7616  0.6653
 4940TIP3   OH236310   1.830   0.635  12.639 -0.2899  0.1652  0.1231
 4940TIP3    H136311   1.841   0.720  12.597 -1.2823  1.6799  2.6676
 4940TIP3    H236312   1.751   0.599  12.598  0.3404  0.2646 -1.2361
 4941TIP3   OH236313   6.428   3.255  12.303 -0.2326 -0.0792  0.4681
 4941TIP3    H136314   6.449   3.327  12.363 -1.3146  1.3849 -0.8152
 4941TIP3    H236315   6.438   3.176  12.355  0.7397  1.0147  2.0169
 4942TIP3   OH236316   5.664   0.828   4.267 -0.2802 -0.2442 -0.4789
 4942TIP3    H136317   5.680   0.923   4.271  0.4530 -0.3029 -1.6942
 4942TIP3    H236318   5.748   0.791   4.242 -0.4734 -1.2693  0.3289
 4943TIP3   OH236319   4.787   1.315  11.590 -0.9935 -0.2727  0.1335
 4943TIP3    H136320   4.707   1.300  11.538 -0.6897  0.5687 -0.6012
 4943TIP3    H236321   4.858   1.289  11.532 -0.6692  0.2525  0.2906
 4944TIP3   OH236322   4.131   3.594  12.959  0.2482  0.4917  0.2992
 4944TIP3    H136323   4.126   3.645  13.039 -1.7503  1.3163 -0.2816
 4944TIP3    H236324   4.040   3.582  12.932  0.8365 -0.0291 -1.6695
 4945TIP3   OH236325   2.737   1.047   1.329  0.2580  0.4666 -0.0020
 4945TIP3    H136326   2.709   1.033   1.419  0.1726  0.5109 -0.0216
 4945TIP3    H236327   2.823   1.090   1.337  0.0108  0.9539  0.0604
 4946TIP3   OH236328   6.497   0.899  15.970  0.8620  0.9802 -0.6556
 4946TIP3    H136329   6.473   0.891  16.063  0.9182 -0.6459 -0.7665
 4946TIP3    H236330   6.580   0.853  15.963  0.4395  0.3612 -1.6874
 4947TIP3   OH236331   0.911   2.682  15.519 -0.0395  0.2309  0.0422
 4947TIP3    H136332   1.005   2.697  15.528 -0.1147  0.2328  0.8790
 4947TIP3    H236333   0.880   2.671  15.608 -0.9035  0.6524 -0.1950
 4948TIP3   OH236334   5.518   4.997   1.280 -0.4351 -0.1061  0.1272
 4948TIP3    H136335   5.589   4.984   1.217 -2.5192  2.2996 -3.0807
 4948TIP3    H236336   5.444   4.948   1.242 -1.2568 -0.3009  1.8864
 4949TIP3   OH236337   0.547   6.717  16.183  0.3811  0.6455  1.0782
 4949TIP3    H136338   0.518   6.796  16.229  1.7305  1.6132  0.3185
 4949TIP3    H236339   0.640   6.708  16.205  0.9849  0.9396 -1.1426
 4950TIP3   OH236340   0.250   2.975   0.839 -0.0594 -0.4295 -0.3794
 4950TIP3    H136341   0.294   3.006   0.918 -0.1166 -1.4590  0.0807
 4950TIP3    H236342   0.268   2.881   0.838 -0.7173 -0.5525 -1.1710
 4951TIP3   OH236343   5.696   2.070   5.001 -0.5440 -0.0213  0.1627
 4951TIP3    H136344   5.627   2.004   4.993 -2.4974  1.8479  0.3902
 4951TIP3    H236345   5.664   2.129   5.069  2.1688 -0.0016  1.5268
 4952TIP3   OH236346   3.519   0.244   5.183  0.2461  0.3562  0.1437
 4952TIP3    H136347   3.489   0.261   5.093 -0.4255  2.6694  0.7257
 4952TIP3    H236348   3.512   0.329   5.226  0.6390 -0.6841  2.3790
 4953TIP3   OH236349   2.848   4.015   4.847 -0.1687  0.3559 -0.2148
 4953TIP3    H136350   2.932   4.011   4.801  0.3714 -2.4576  0.8291
 4953TIP3    H236351   2.787   3.967   4.790  0.1904 -1.9852  1.2798
 4954TIP3   OH236352   0.157   4.484   2.787 -0.5275 -0.3615  0.4310
 4954TIP3    H136353   0.085   4.514   2.843 -0.5198  0.9929 -0.2474
 4954TIP3    H236354   0.222   4.555   2.793  0.1437 -0.9296 -0.0651
 4955TIP3   OH236355   4.531   6.252  17.056 -0.3296 -0.2240  0.2642
 4955TIP3    H136356   4.538   6.309  16.979 -1.3253 -0.2326  0.1469
 4955TIP3    H236357   4.453   6.199  17.038 -1.7387  1.0981  2.1276
 4956TIP3   OH236358   6.360   1.016   6.325 -0.1631 -0.6237  0.1835
 4956TIP3    H136359   6.451   1.015   6.352  0.0794  1.4047 -0.3585
 4956TIP3    H236360   6.310   1.030   6.405  0.2485  1.0440  0.1973
 4957TIP3   OH236361   2.404   5.188   4.991  0.4162 -0.1174 -0.2179
 4957TIP3    H136362   2.488   5.232   4.975  2.5004 -3.6376  0.0092
 4957TIP3    H236363   2.362   5.185   4.905 -0.4200  3.1532 -0.0576
 4958TIP3   OH236364   5.402   6.077  14.513 -0.4155 -0.1992 -0.0322
 4958TIP3    H136365   5.309   6.059  14.514 -0.7376  1.2826 -0.5225
 4958TIP3    H236366   5.412   6.157  14.564  0.3446  0.6052 -1.3620
 4959TIP3   OH236367   4.902   4.154   3.366  0.0449 -0.0055  0.0668
 4959TIP3    H136368   4.894   4.074   3.418 -0.7355  0.2717  0.3994
 4959TIP3    H236369   4.821   4.202   3.385 -1.0841 -0.6365 -2.6239
 4960TIP3   OH236370   3.243   5.757   2.783 -0.1622  0.7016  0.0621
 4960TIP3    H136371   3.302   5.823   2.817  1.2469  0.0065 -0.9423
 4960TIP3    H236372   3.225   5.784   2.693 -0.1814  0.1276 -0.1117
 4961TIP3   OH236373   4.453   2.904  15.767  0.0886 -0.7216 -0.2320
 4961TIP3    H136374   4.467   2.879  15.675  0.8506  0.0746 -0.3458
 4961TIP3    H236375   4.380   2.849  15.796 -0.0178 -1.1402 -1.2506
 4962TIP3   OH236376   2.780   1.998   3.170  0.5051  0.6401 -0.0534
 4962TIP3    H136377   2.873   1.998   3.192  0.7551  0.4434 -1.0419
 4962TIP3    H236378   2.770   1.923   3.111 -0.2438  0.7640 -0.0880
 4963TIP3   OH236379   6.747   5.289  14.877 -0.0672  0.2139 -0.0588
 4963TIP3    H136380   6.764   5.382  14.895 -0.6940  0.2698  0.2894
 4963TIP3    H236381   6.832   5.254  14.849  0.0294  1.0532 -0.9101
 4964TIP3   OH236382   4.631   0.623  14.557 -0.1166  1.1041 -0.3938
 4964TIP3    H136383   4.660   0.706  14.519 -0.0259  0.7951 -1.0011
 4964TIP3    H236384   4.576   0.583  14.490  1.7249 -0.4059 -1.0831
 4965TIP3   OH236385   3.228   1.822  13.127  0.5419  0.1446 -0.3281
 4965TIP3    H136386   3.152   1.765  13.124  1.5874 -1.5663  2.1502
 4965TIP3    H236387   3.299   1.771  13.088  1.6858 -0.7685  2.6460
 4966TIP3   OH236388   2.690   5.243  15.757 -0.7331  0.4548 -0.5330
 4966TIP3    H136389   2.761   5.265  15.818 -0.4250 -1.3474 -0.1934
 4966TIP3    H236390   2.649   5.166  15.795 -2.1207  0.7624 -1.3561
 4967TIP3   OH236391   5.249   2.956   1.986 -0.2332  0.4342 -0.0506
 4967TIP3    H136392   5.176   3.013   2.010 -0.4509  0.3979 -0.5975
 4967TIP3    H236393   5.290   2.932   2.069 -0.3914  1.0556  0.2121
 4968TIP3   OH236394   0.171   5.940  12.402 -0.5938  0.7038  0.1996
 4968TIP3    H136395   0.133   5.853  12.405  1.8800 -0.5209 -0.8465
 4968TIP3    H236396   0.231   5.943  12.476 -0.0674  1.2010 -0.2330
 4969TIP3   OH236397   2.315   0.019   3.116  0.4356  0.1624  0.2493
 4969TIP3    H136398   2.349  -0.033   3.043 -1.5827  0.1822 -0.8024
 4969TIP3    H236399   2.239  -0.030   3.146 -0.4880  1.6118  0.3757
 4970TIP3   OH236400   6.390   3.679  12.898  0.2302 -0.0882  0.1355
 4970TIP3    H136401   6.460   3.652  12.838  0.1055 -0.7883  0.2973
 4970TIP3    H236402   6.326   3.723  12.842 -0.5371 -1.9163 -0.5017
 4971TIP3   OH236403   0.792   6.574  13.931  0.2568  0.4606 -0.3299
 4971TIP3    H136404   0.811   6.482  13.914  0.5351  0.4221  0.1873
 4971TIP3    H236405   0.778   6.580  14.025 -0.8524  0.7578 -0.5008
 4972TIP3   OH236406   4.630   3.422   3.586 -0.1574 -0.5438  0.1238
 4972TIP3    H136407   4.620   3.348   3.526 -0.7960 -0.8421  0.5858
 4972TIP3    H236408   4.632   3.383   3.673  0.8864 -0.1219  0.3045
 4973TIP3   OH236409   3.573   5.100   1.389 -0.3276  0.2715 -0.0282
 4973TIP3    H136410   3.603   5.123   1.301 -2.3659  1.0383 -0.5765
 4973TIP3    H236411   3.609   5.168   1.446  3.4017 -1.7259  0.3295
 4974TIP3   OH236412   3.600   3.185  12.190  0.9298 -0.2262 -0.3706
 4974TIP3    H136413   3.693   3.184  12.213  0.5833  1.0103  1.2936
 4974TIP3    H236414   3.558   3.130  12.257  0.1727  1.5654  0.7232
 4975TIP3   OH236415   6.517   2.451   2.521  0.2917  0.4646 -0.3196
 4975TIP3    H136416   6.551   2.361   2.517  2.3625  1.2387 -1.5264
 4975TIP3    H236417   6.592   2.506   2.501 -0.4861  2.6280  2.2084
 4976TIP3   OH236418   5.119   0.816  15.133  0.4869  0.4972  0.0687
 4976TIP3    H136419   5.119   0.743  15.071 -0.1621  0.5477  0.0084
 4976TIP3    H236420   5.037   0.861  15.118  2.0097  2.8890 -1.7712
 4977TIP3   OH236421   1.715   5.893   1.363 -0.0177 -0.5110 -0.1552
 4977TIP3    H136422   1.786   5.957   1.364  0.4945 -0.9816  2.2803
 4977TIP3    H236423   1.711   5.862   1.273  0.2059  2.3442 -1.2576
 4978TIP3   OH236424   5.003   0.217  10.769 -0.1732 -0.6361  0.2758
 4978TIP3    H136425   5.094   0.246  10.774 -0.5736  0.4309  2.0282
 4978TIP3    H236426   4.954   0.296  10.746 -0.7489 -1.0596  0.0047
 4979TIP3   OH236427   2.662   1.920  13.293 -0.1709  0.0728 -0.1392
 4979TIP3    H136428   2.577   1.959  13.312 -0.6042 -1.2205  0.7698
 4979TIP3    H236429   2.718   1.993  13.269 -1.7423  0.8687 -1.5887
 4980TIP3   OH236430   2.286   1.870  11.444  0.6927  0.0631  0.5320
 4980TIP3    H136431   2.364   1.871  11.388  0.1665  1.5832 -0.2277
 4980TIP3    H236432   2.319   1.897  11.530  0.9683  1.0458  0.1318
 4981TIP3   OH236433   1.304   0.299   2.716  0.1827  0.2943 -0.4610
 4981TIP3    H136434   1.228   0.249   2.746 -0.9847  1.2801 -1.6581
 4981TIP3    H236435   1.328   0.258   2.633 -0.1255  1.0494 -0.9284
 4982TIP3   OH236436   0.454   1.424   3.654 -0.6534  0.3586  0.3782
 4982TIP3    H136437   0.429   1.455   3.741 -0.7570  0.0381  0.4631
 4982TIP3    H236438   0.374   1.386   3.618 -0.2806 -0.7990  0.7046
 4983TIP3   OH236439   2.114   3.586  11.141 -0.7821  0.5594  0.0548
 4983TIP3    H136440   2.085   3.673  11.167  0.6231  1.2042 -0.4865
 4983TIP3    H236441   2.111   3.586  11.046  3.8541  1.7909 -0.3029
 4984TIP3   OH236442   4.566   2.309   0.337  0.1439 -0.3790  0.0222
 4984TIP3    H136443   4.484   2.349   0.364 -0.2920 -0.6385 -0.8940
 4984TIP3    H236444   4.568   2.225   0.384  1.7436  1.2100  3.1034
 4985TIP3   OH236445   2.775   3.977  16.625  0.1525 -0.2987  0.8117
 4985TIP3    H136446   2.817   4.030  16.557  1.2300  0.7790  2.2653
 4985TIP3    H236447   2.804   3.887  16.606 -0.2104 -0.1395 -0.5987
 4986TIP3   OH236448   2.549   3.787  15.078 -0.8676  0.0599 -0.1787
 4986TIP3    H136449   2.485   3.716  15.071  0.1933 -0.7963 -1.9830
 4986TIP3    H236450   2.613   3.755  15.142  0.1106 -1.0940 -1.6685
 4987TIP3   OH236451   5.051   3.838   5.983  0.3673 -0.2825  0.2562
 4987TIP3    H136452   5.146   3.830   5.989  0.2241 -1.7318  1.2849
 4987TIP3    H236453   5.027   3.903   6.049  0.7098  0.9336 -0.7806
 4988TIP3   OH236454   3.913   6.382   0.217  0.4274  0.5919 -0.1500
 4988TIP3    H136455   3.896   6.291   0.239  1.0767  0.6775  0.7526
 4988TIP3    H236456   4.005   6.396   0.241  0.1516  1.6481  0.3383
 4989TIP3   OH236457   3.530   3.101   0.361  0.2676  0.0155 -0.1037
 4989TIP3    H136458   3.591   3.039   0.321  0.5146  0.9513 -1.2310
 4989TIP3    H236459   3.583   3.147   0.427 -0.3411 -2.0759  1.9631
 4990TIP3   OH236460   1.558   4.488   3.134  0.4248 -0.4716 -0.3791
 4990TIP3    H136461   1.534   4.579   3.117  0.9740 -0.2497  0.0052
 4990TIP3    H236462   1.493   4.436   3.086  0.4014  0.1216 -0.9869
 4991TIP3   OH236463   1.975   5.236  16.703  0.1292 -1.0807  0.2929
 4991TIP3    H136464   1.896   5.200  16.743  0.3824 -1.0463  0.8306
 4991TIP3    H236465   1.942   5.297  16.636 -0.2960 -1.4307  0.1783
 4992TIP3   OH236466   5.454   4.692   4.712  0.3173 -0.5790  0.1572
 4992TIP3    H136467   5.447   4.770   4.768  2.2295  0.7095 -1.2607
 4992TIP3    H236468   5.384   4.703   4.648  0.2025 -0.3234  0.3247
 4993TIP3   OH236469   5.115   3.282   1.873 -0.1369 -0.2686  0.3629
 4993TIP3    H136470   5.106   3.234   1.791 -0.9952 -1.1618  0.9449
 4993TIP3    H236471   5.028   3.278   1.912  0.4484 -0.5759  1.6920
 4994TIP3   OH236472   0.539   6.530   2.785  0.2645 -0.5365  0.1005
 4994TIP3    H136473   0.459   6.563   2.743  0.2675  0.6512  0.9971
 4994TIP3    H236474   0.508   6.475   2.857  0.2697 -1.6222 -0.6957
 4995TIP3   OH236475   2.498   0.331  12.019 -0.2704 -0.0831  0.0076
 4995TIP3    H136476   2.511   0.402  11.956  0.0401 -0.1939 -0.0557
 4995TIP3    H236477   2.587   0.306  12.045 -0.3523 -0.8306 -0.4001
 4996TIP3   OH236478   0.484   3.633  13.024  0.2171 -0.3241  0.2868
 4996TIP3    H136479   0.570   3.590  13.019  0.4932  0.2969 -0.5508
 4996TIP3    H236480   0.503   3.721  13.056  0.1202  0.3691 -1.4418
 4997TIP3   OH236481   5.331   0.282   3.973  0.1169 -0.1096 -0.5672
 4997TIP3    H136482   5.408   0.290   4.030  0.9889  0.2419 -1.7493
 4997TIP3    H236483   5.359   0.320   3.890 -2.2934  2.8482 -0.1923
 4998TIP3   OH236484   2.792   1.401   0.596 -0.1705  0.1577 -0.3611
 4998TIP3    H136485   2.800   1.370   0.506 -1.8739 -0.0793 -0.4619
 4998TIP3    H236486   2.724   1.468   0.592  0.3707  0.7991  0.6146
 4999TIP3   OH236487   3.595   6.443   2.877 -0.6908 -0.6287  0.2616
 4999TIP3    H136488   3.635   6.437   2.963  0.8470 -1.0306 -0.4408
 4999TIP3    H236489   3.666   6.469   2.819 -1.7668 -0.0302 -0.8426
 5000TIP3   OH236490   6.200   0.286   6.679 -0.1341  0.0570 -0.2930
 5000TIP3    H136491   6.237   0.269   6.765  1.4237 -1.4496 -1.2003
 5000TIP3    H236492   6.105   0.279   6.691  0.1040 -1.1686  1.0670
 5001TIP3   OH236493   2.007   4.271   2.369 -0.2121 -0.4055  0.1916
 5001TIP3    H136494   2.004   4.293   2.462  0.1143 -0.3106  0.1791
 5001TIP3    H236495   2.068   4.198   2.364  1.1499  0.7298 -0.1791
 5002TIP3   OH236496   0.089   5.271  11.305  0.2645  0.4203 -0.2177
 5002TIP3    H136497   0.017   5.293  11.364 -1.1779 -0.9378 -1.3687
 5002TIP3    H236498   0.104   5.351  11.255  0.7421  1.2333  1.1585
 5003TIP3   OH236499   0.032   0.699   4.075  0.2711 -0.2035  0.2701
 5003TIP3    H136500  -0.052   0.720   4.115  1.0442  0.6954  1.4974
 5003TIP3    H236501   0.009   0.652   3.994 -1.3478 -1.2141  1.2650
 5004TIP3   OH236502   2.169   5.942  11.368  0.1948  0.3870  0.5145
 5004TIP3    H136503   2.085   5.976  11.397 -1.4045 -2.6436 -0.1124
 5004TIP3    H236504   2.204   5.896  11.445  0.3303  0.0285  0.2419
 5005TIP3   OH236505   2.889   1.453   5.136 -0.4769  0.3624 -0.7747
 5005TIP3    H136506   2.961   1.446   5.199  0.7692  1.2301 -2.0420
 5005TIP3    H236507   2.822   1.391   5.169  0.4223  0.2386  0.9534
 5006TIP3   OH236508   3.495   4.148  13.968  0.0769 -0.0349 -0.2362
 5006TIP3    H136509   3.460   4.087  13.903 -0.8788  1.1544 -0.8808
 5006TIP3    H236510   3.519   4.226  13.918  0.5963  0.4101  0.6671
 5007TIP3   OH236511   3.179   2.562   5.604  0.7074  0.2892  0.5893
 5007TIP3    H136512   3.173   2.632   5.540  1.9657 -1.5569 -1.6781
 5007TIP3    H236513   3.093   2.560   5.646 -1.5209 -0.6151 -3.5026
 5008TIP3   OH236514   3.660   2.938  13.755 -0.0317 -0.6607  0.2350
 5008TIP3    H136515   3.709   2.890  13.822 -0.8149 -0.6951  0.7884
 5008TIP3    H236516   3.569   2.933  13.783 -0.2778  0.0054 -0.4163
 5009TIP3   OH236517   0.702   2.796  10.526  0.1167  0.1654  0.1625
 5009TIP3    H136518   0.646   2.775  10.451 -1.2252 -0.5395  1.3188
 5009TIP3    H236519   0.710   2.713  10.574 -1.3436  1.1569  2.2724
 5010TIP3   OH236520   4.718   2.855  10.232  0.4009  0.1087  0.7951
 5010TIP3    H136521   4.638   2.871  10.183  1.4522  0.0575 -1.0267
 5010TIP3    H236522   4.699   2.887  10.320 -1.4006  0.6570  0.2474
 5011TIP3   OH236523   4.871   2.116   1.948  0.0342  0.7461  0.5151
 5011TIP3    H136524   4.901   2.176   2.017 -1.5981  0.8208  1.2081
 5011TIP3    H236525   4.925   2.138   1.872  1.5054  1.0382  1.6063
 5012TIP3   OH236526   0.749   6.627   2.633  0.7937 -0.0827 -0.2257
 5012TIP3    H136527   0.676   6.596   2.687  0.1184 -1.0569 -1.6184
 5012TIP3    H236528   0.827   6.593   2.677  0.4715  1.1676  1.4137
 5013TIP3   OH236529   3.365   4.646  16.891  0.1163  0.1890  0.4778
 5013TIP3    H136530   3.313   4.653  16.971 -0.0595  0.3500  0.3501
 5013TIP3    H236531   3.322   4.704  16.828  1.0600  1.1792  0.7020
 5014TIP3   OH236532   4.749   1.762   5.175 -0.1284 -0.2479 -0.5699
 5014TIP3    H136533   4.725   1.674   5.148  0.7521 -0.8165  0.4423
 5014TIP3    H236534   4.740   1.762   5.270 -1.8750  1.3153 -0.6665
 5015TIP3   OH236535   5.108   5.551   0.189  0.4139 -0.6524  0.5277
 5015TIP3    H136536   5.201   5.572   0.194  0.1327  0.7601  0.1367
 5015TIP3    H236537   5.097   5.513   0.101  0.8261 -2.0392  1.0437
 5016TIP3   OH236538   2.352   4.538  11.738 -0.9917  0.3486 -0.1193
 5016TIP3    H136539   2.435   4.586  11.728 -1.5561  1.5685  0.7625
 5016TIP3    H236540   2.309   4.548  11.653  0.1591 -1.1205 -0.9081
 5017TIP3   OH236541   0.975   0.897   1.949  0.2200  0.0430 -0.2361
 5017TIP3    H136542   0.929   0.923   2.029 -0.8090  0.5493 -0.9561
 5017TIP3    H236543   0.907   0.899   1.881  1.1291 -0.0648 -1.1808
 5018TIP3   OH236544   4.776   4.641   3.752  0.2569  0.7550 -0.0289
 5018TIP3    H136545   4.755   4.688   3.833  0.3066  0.2087  0.3075
 5018TIP3    H236546   4.712   4.571   3.748 -1.2702  2.1339 -1.6884
 5019TIP3   OH236547   1.291   3.658  15.704 -0.2650 -0.2263 -0.3783
 5019TIP3    H136548   1.309   3.613  15.622 -1.2209  0.6797 -1.1157
 5019TIP3    H236549   1.321   3.747  15.690 -1.7553  0.3225 -0.3054
 5020TIP3   OH236550   1.400   2.543   2.701  0.6709 -0.3497  0.6839
 5020TIP3    H136551   1.447   2.577   2.625 -0.2699 -0.3496  0.0897
 5020TIP3    H236552   1.393   2.618   2.761  1.0918 -0.2532  0.6125
 5021TIP3   OH236553   4.712   5.804  14.638 -0.0716  0.2402  0.1772
 5021TIP3    H136554   4.799   5.776  14.611 -0.2360  0.2577 -0.4008
 5021TIP3    H236555   4.699   5.887  14.592  0.5012  1.4153  2.0445
 5022TIP3   OH236556   2.981   0.360   0.752 -0.4592 -0.4970  0.7201
 5022TIP3    H136557   3.027   0.357   0.668 -1.3639 -0.8597  0.2175
 5022TIP3    H236558   2.898   0.316   0.734 -0.0328 -2.0024  2.2000
 5023TIP3   OH236559   6.171   5.898   2.771  0.2535  0.1607  0.4578
 5023TIP3    H136560   6.151   5.969   2.709 -0.7426 -0.1853  0.3678
 5023TIP3    H236561   6.209   5.943   2.847 -1.9515  1.0249  1.1158
 5024TIP3   OH236562   0.898   4.195  16.889 -0.6564 -0.5055 -0.6620
 5024TIP3    H136563   0.817   4.195  16.838 -0.4152 -0.6657 -1.0450
 5024TIP3    H236564   0.967   4.180  16.825 -0.2511  0.3509 -0.4492
 5025TIP3   OH236565   4.019   0.680  14.930 -0.2707 -0.9941  0.7049
 5025TIP3    H136566   4.073   0.693  14.851 -0.4659 -1.0423  0.5641
 5025TIP3    H236567   4.009   0.585  14.937 -2.7204 -0.9334 -0.8928
 5026TIP3   OH236568   4.942   0.063  15.817 -0.2198  0.3232 -0.0183
 5026TIP3    H136569   4.924   0.075  15.724 -2.5764  0.2086  0.3556
 5026TIP3    H236570   5.021   0.114  15.833  0.2841  0.2754 -2.0860
 5027TIP3   OH236571   0.167   4.450  15.951 -0.5489 -0.1821  0.7369
 5027TIP3    H136572   0.138   4.537  15.924 -2.3899 -0.8459  0.4213
 5027TIP3    H236573   0.122   4.434  16.034  1.8667  0.1894  2.2061
 5028TIP3   OH236574   6.190   6.140  13.508 -0.1023 -0.1655 -0.2041
 5028TIP3    H136575   6.218   6.119  13.597 -0.7044 -0.4499 -0.0741
 5028TIP3    H236576   6.165   6.232  13.512 -1.9857 -0.6545  0.4350
 5029TIP3   OH236577   2.017   5.169  15.478  0.3430 -0.0403  0.1817
 5029TIP3    H136578   1.921   5.162  15.481  0.4277 -2.8886 -0.6334
 5029TIP3    H236579   2.039   5.154  15.386  1.6233 -1.4292  0.6689
 5030TIP3   OH236580   0.621   2.070  15.763  0.2571 -0.1683  0.2053
 5030TIP3    H136581   0.604   2.161  15.788  2.7562  1.4431 -3.1319
 5030TIP3    H236582   0.714   2.057  15.786 -0.3205 -2.3360  1.5914
 5031TIP3   OH236583   3.578   0.809  17.164 -0.2243 -0.3100 -0.1142
 5031TIP3    H136584   3.550   0.742  17.102  0.8340 -1.2026  0.3475
 5031TIP3    H236585   3.669   0.789  17.182 -0.6821 -0.5486  2.3142
 5032TIP3   OH236586   5.603   0.038   5.695  0.7897  0.0898 -0.3304
 5032TIP3    H136587   5.602  -0.052   5.729 -3.3096  0.8951  2.3993
 5032TIP3    H236588   5.559   0.032   5.610 -1.2086 -0.3931  0.6687
 5033TIP3   OH236589   6.436   0.039   6.064  0.3504  0.2532 -0.5987
 5033TIP3    H136590   6.439   0.130   6.092 -0.4665  0.6020 -1.5742
 5033TIP3    H236591   6.387   0.041   5.982 -1.6438 -1.2991  0.4433
 5034TIP3   OH236592   4.582   1.548  14.028 -0.2033 -0.0852 -0.0157
 5034TIP3    H136593   4.661   1.568  13.978 -1.0405  1.8650 -0.6649
 5034TIP3    H236594   4.559   1.459  14.003  1.1954 -0.2960 -0.6117
 5035TIP3   OH236595   0.034   3.233  14.917  0.3720  0.5503 -0.0247
 5035TIP3    H136596  -0.046   3.222  14.866  0.3762 -0.2664  0.1382
 5035TIP3    H236597   0.004   3.259  15.004  0.0322 -2.8630  1.0229
 5036TIP3   OH236598   1.876   2.475  17.023  0.7253 -0.0810 -0.1027
 5036TIP3    H136599   1.835   2.424  17.093  0.8432 -1.0659 -0.7278
 5036TIP3    H236600   1.963   2.495  17.056  0.3801  0.4749  0.5000
 5037TIP3   OH236601   3.030   3.750  15.440 -0.1118  0.0113 -0.2119
 5037TIP3    H136602   2.946   3.775  15.401  0.9049 -1.0331 -3.3699
 5037TIP3    H236603   3.006   3.690  15.511 -2.0801  1.9594  0.9079
 5038TIP3   OH236604   3.114   0.386  15.900  0.0610 -0.7375  0.1330
 5038TIP3    H136605   3.116   0.469  15.853  0.2246 -1.4279 -1.1290
 5038TIP3    H236606   3.149   0.406  15.987  1.5387  0.2169 -0.6390
 5039TIP3   OH236607   1.649   5.569   0.946 -0.0914 -0.9671 -0.2642
 5039TIP3    H136608   1.655   5.585   1.041 -1.3808  0.0466 -0.3234
 5039TIP3    H236609   1.601   5.487   0.939  0.3639 -1.2581 -0.0411
 5040TIP3   OH236610   0.568   4.127  14.291 -0.0827 -0.1129 -0.0009
 5040TIP3    H136611   0.631   4.199  14.295 -2.1238  1.7588  0.3493
 5040TIP3    H236612   0.618   4.051  14.320  2.2568  1.0648 -0.6493
 5041TIP3   OH236613   6.679   2.893  13.082  0.3273 -0.0672 -0.2997
 5041TIP3    H136614   6.748   2.845  13.036  1.1547  0.3345  0.4695
 5041TIP3    H236615   6.641   2.951  13.016  3.1524  2.3201 -0.0411
 5042TIP3   OH236616   1.625   2.076   1.492  0.4564  0.3123  0.0213
 5042TIP3    H136617   1.556   2.019   1.457  0.2215  0.7413 -0.2189
 5042TIP3    H236618   1.704   2.022   1.489  0.2109 -0.0456 -0.0813
 5043TIP3   OH236619   1.415   3.499  13.358 -0.3100  0.3238 -0.2347
 5043TIP3    H136620   1.442   3.414  13.392  2.0744  1.6176  1.3509
 5043TIP3    H236621   1.450   3.501  13.269  1.1435  0.2810  0.3154
 5044TIP3   OH236622   6.188   2.259   3.345  0.5311  0.3180  0.0951
 5044TIP3    H136623   6.190   2.168   3.373 -0.3426 -0.2674 -1.5816
 5044TIP3    H236624   6.276   2.292   3.364 -0.2768  0.4335  4.5117
 5045TIP3   OH236625   5.966   2.717  14.483 -0.5256 -0.0058 -0.4700
 5045TIP3    H136626   5.948   2.793  14.428 -2.4217  0.3545  0.5441
 5045TIP3    H236627   5.936   2.642  14.431 -1.1505  0.2155 -0.4414
 5046TIP3   OH236628   2.636   2.423  11.376 -0.6287 -0.2436 -0.3459
 5046TIP3    H136629   2.676   2.504  11.406 -1.0013 -0.7085  1.5578
 5046TIP3    H236630   2.544   2.445  11.363 -0.6299 -0.2307 -0.3159
 5047TIP3   OH236631   6.759   6.253  12.526  0.1444 -0.2103 -0.5791
 5047TIP3    H136632   6.765   6.302  12.608  0.4069  0.8636 -1.2216
 5047TIP3    H236633   6.680   6.200  12.536 -1.8321  2.4544 -0.9210
 5048TIP3   OH236634   0.867   5.445   2.219 -0.1949  0.1978 -0.3601
 5048TIP3    H136635   0.835   5.489   2.298  1.5397  1.9826 -0.5684
 5048TIP3    H236636   0.788   5.425   2.169 -1.3156 -0.6785  1.6243
 5049TIP3   OH236637   2.581   2.061   3.362  0.4088  0.5353 -0.4019
 5049TIP3    H136638   2.489   2.060   3.386  0.1521  1.3992 -1.2843
 5049TIP3    H236639   2.587   2.004   3.286  0.4523  1.0597 -0.8011
 5050TIP3   OH236640   4.497   4.504   4.985 -1.0398  0.4266  0.8065
 5050TIP3    H136641   4.494   4.598   4.968 -3.2714  0.0275 -1.6531
 5050TIP3    H236642   4.488   4.497   5.080 -1.0327  2.6819  1.0391
 5051TIP3   OH236643   1.463   2.755   0.392  0.0654 -0.3141 -0.1594
 5051TIP3    H136644   1.495   2.845   0.394  0.9474 -0.6072 -0.3205
 5051TIP3    H236645   1.521   2.708   0.452  0.2971 -0.9730 -0.8795
 5052TIP3   OH236646   0.461   2.233  13.063  0.3487  0.6840 -0.0056
 5052TIP3    H136647   0.538   2.289  13.058  1.8099 -1.1719  0.5131
 5052TIP3    H236648   0.399   2.282  13.116  1.7427  1.6236  0.8224
 5053TIP3   OH236649   1.908   2.575   0.171 -0.0398 -0.1843 -0.0139
 5053TIP3    H136650   1.972   2.547   0.105  0.5195 -1.4378  1.0217
 5053TIP3    H236651   1.835   2.610   0.120  1.7533  2.0356 -1.2388
 5054TIP3   OH236652   4.014   3.265   5.954 -0.4261 -0.0374  0.1021
 5054TIP3    H136653   3.955   3.225   5.890  0.7765 -0.8965 -0.5092
 5054TIP3    H236654   4.085   3.201   5.965  2.4515  2.4885 -2.1164
 5055TIP3   OH236655   5.611   4.656  12.797  0.3640 -0.1205  0.4883
 5055TIP3    H136656   5.588   4.732  12.745  0.2138 -0.2704  0.3344
 5055TIP3    H236657   5.705   4.644  12.783  0.6814  0.8627  1.5981
 5056TIP3   OH236658   4.637   3.345  11.347  0.0963 -0.4995  0.1068
 5056TIP3    H136659   4.725   3.382  11.357 -0.1303  0.1596 -0.3013
 5056TIP3    H236660   4.639   3.301  11.262 -0.6379  1.4632 -0.9752
 5057TIP3   OH236661   6.060   2.161  11.387 -0.2612 -0.1440 -0.1213
 5057TIP3    H136662   6.030   2.105  11.459 -1.5507  0.4489 -0.1631
 5057TIP3    H236663   6.079   2.100  11.315  1.1709 -0.7525  0.7337
 5058TIP3   OH236664   5.074   4.491  16.998  0.1277 -0.0550 -0.5834
 5058TIP3    H136665   5.117   4.514  17.081 -0.3487 -0.6395 -0.1670
 5058TIP3    H236666   5.107   4.556  16.935  0.0532  0.7536  0.1920
 5059TIP3   OH236667   6.561   2.973   2.286  0.1472  0.3500  0.3768
 5059TIP3    H136668   6.506   2.906   2.326  0.6495 -0.3675 -0.0994
 5059TIP3    H236669   6.528   3.056   2.320 -0.7926 -0.1108  0.6098
 5060TIP3   OH236670   5.009   3.073   4.589  0.4935 -0.1566  0.0696
 5060TIP3    H136671   5.005   3.134   4.662 -0.2424 -0.6534  0.4465
 5060TIP3    H236672   5.086   3.101   4.539  0.2430  0.9961  0.3041
 5061TIP3   OH236673   4.573   0.686  13.347 -0.1546 -0.1904 -0.0595
 5061TIP3    H136674   4.609   0.651  13.265  0.0355 -0.3337  0.0819
 5061TIP3    H236675   4.521   0.762  13.320 -0.4773 -0.5161 -0.3584
 5062TIP3   OH236676   0.166   2.738  16.402 -0.2702  0.2140  0.1121
 5062TIP3    H136677   0.105   2.686  16.454 -1.3467  0.3661 -0.9603
 5062TIP3    H236678   0.132   2.827  16.407 -1.1069  0.0584 -1.7712
 5063TIP3   OH236679   5.675   1.580   2.295  0.3035  0.0819  0.0680
 5063TIP3    H136680   5.637   1.614   2.376  0.3537  1.3945 -0.4494
 5063TIP3    H236681   5.615   1.509   2.269 -0.6749  0.7881  0.3318
 5064TIP3   OH236682   4.604   3.051   1.482  0.2627  0.7285  0.0955
 5064TIP3    H136683   4.597   2.966   1.439 -2.6776  1.2823 -0.7368
 5064TIP3    H236684   4.614   3.113   1.411 -1.7657  1.3959  0.3341
 5065TIP3   OH236685   5.786   0.409  13.533 -0.3785 -0.1359  0.4094
 5065TIP3    H136686   5.873   0.442  13.513 -0.6547  0.2464 -0.1980
 5065TIP3    H236687   5.783   0.322  13.491  0.2586 -0.8464  1.7930
 5066TIP3   OH236688   2.009   2.774   2.482  0.0230 -0.1912 -0.0046
 5066TIP3    H136689   2.060   2.854   2.469  2.1402 -1.4173  0.3135
 5066TIP3    H236690   2.004   2.764   2.577  0.7843 -1.0436 -0.0494
 5067TIP3   OH236691   0.817   3.090   0.257  0.5900  0.3719  0.0389
 5067TIP3    H136692   0.895   3.042   0.228 -0.2697 -2.1054  1.5436
 5067TIP3    H236693   0.838   3.118   0.346 -0.0414  0.1508  0.2617
 5068TIP3   OH236694   0.698   0.383  12.269 -0.3672 -0.0386  0.0890
 5068TIP3    H136695   0.760   0.374  12.196  0.7194  0.8111  0.8806
 5068TIP3    H236696   0.613   0.391  12.226  0.1331 -0.5501 -1.0524
 5069TIP3   OH236697   2.711   0.066   6.416  0.4360  0.2178  0.2220
 5069TIP3    H136698   2.626   0.024   6.423  0.4153  0.3558  0.8105
 5069TIP3    H236699   2.718   0.121   6.494  0.0502  2.0685 -0.9736
 5070TIP3   OH236700   6.106   1.712   1.785  0.4533  0.1234  0.0163
 5070TIP3    H136701   6.046   1.717   1.711  1.9100  3.0770 -1.0993
 5070TIP3    H236702   6.065   1.765   1.853 -0.3170 -1.6317  0.9926
 5071TIP3   OH236703   2.108   4.974  17.025  0.2868 -0.4683 -0.0969
 5071TIP3    H136704   2.053   4.902  16.996  1.2776 -1.4684  0.4270
 5071TIP3    H236705   2.140   5.013  16.944  1.8219 -2.2876 -0.4380
 5072TIP3   OH236706   0.035   5.884   5.737  0.4648  0.0900  0.2087
 5072TIP3    H136707  -0.008   5.960   5.699 -1.3129 -0.4876  0.9941
 5072TIP3    H236708  -0.035   5.834   5.778  1.8165 -1.1750  1.0815
 5073TIP3   OH236709   2.634   6.656   4.411  0.0297 -0.2746 -0.3321
 5073TIP3    H136710   2.708   6.648   4.351 -0.4863  1.3975 -1.2357
 5073TIP3    H236711   2.634   6.748   4.438 -0.8749 -0.5731  0.7802
 5074TIP3   OH236712   1.489   3.770   0.108  0.1800  0.5744 -0.0557
 5074TIP3    H136713   1.493   3.726   0.193  0.9227 -0.8951 -0.8040
 5074TIP3    H236714   1.574   3.753   0.068 -0.6999 -0.1465 -1.7376
 5075TIP3   OH236715   6.121   1.163  16.090  0.2040 -0.5387  0.0709
 5075TIP3    H136716   6.026   1.155  16.098  0.4384 -1.9499  2.3747
 5075TIP3    H236717   6.135   1.208  16.006 -2.4420 -0.8187 -0.5916
 5076TIP3   OH236718   6.056   1.884   2.272  0.3546 -0.9889 -0.2093
 5076TIP3    H136719   6.033   1.876   2.179 -0.2397 -0.7369 -0.0883
 5076TIP3    H236720   5.999   1.822   2.316 -0.3095 -0.1497  0.1275
 5077TIP3   OH236721   0.097   6.070   2.734  0.2448 -0.3417 -0.0125
 5077TIP3    H136722   0.022   6.128   2.728  1.0551  0.5963 -2.1379
 5077TIP3    H236723   0.058   5.982   2.741 -0.9844  0.3033  2.2953
 5078TIP3   OH236724   6.742   0.759   0.273 -0.3984 -0.4015  0.0229
 5078TIP3    H136725   6.824   0.713   0.256  0.5430  0.9543  0.7088
 5078TIP3    H236726   6.695   0.756   0.190 -0.4202 -2.5966  0.0511
 5079TIP3   OH236727   3.221   5.442   3.394 -0.2207 -0.1985  0.6950
 5079TIP3    H136728   3.209   5.472   3.484  1.1410  3.7414 -0.2209
 5079TIP3    H236729   3.304   5.394   3.395 -0.4511 -0.5928  1.5833
 5080TIP3   OH236730   0.628   6.797   1.343  0.3385  0.5831  0.2341
 5080TIP3    H136731   0.645   6.717   1.293  0.4884  1.3650 -1.0115
 5080TIP3    H236732   0.533   6.801   1.350  0.3337  0.2565  0.3674
 5081TIP3   OH236733   4.247   1.469   0.861 -0.0750  0.6025  0.0579
 5081TIP3    H136734   4.274   1.561   0.859  0.5611  0.4640 -3.0172
 5081TIP3    H236735   4.302   1.427   0.794 -0.7992 -1.8979  0.9357
 5082TIP3   OH236736   3.914   5.829   2.512  0.7268  0.5440 -0.0655
 5082TIP3    H136737   3.907   5.865   2.424  2.4900  0.7504 -0.1500
 5082TIP3    H236738   3.934   5.737   2.499 -0.6083  0.1921  0.1556
 5083TIP3   OH236739   5.497   1.878   2.940  0.3080  0.1660 -0.3934
 5083TIP3    H136740   5.566   1.943   2.925 -0.4833  0.7854 -1.5965
 5083TIP3    H236741   5.443   1.883   2.861 -1.1910 -0.1865  0.5651
 5084TIP3   OH236742   3.276   0.675   2.805  0.0053  0.1171 -0.0894
 5084TIP3    H136743   3.348   0.709   2.752  0.7410 -1.2566  0.0068
 5084TIP3    H236744   3.231   0.754   2.837  2.2643  1.0560  0.9835
 5085TIP3   OH236745   5.127   6.126  14.724  0.4541  0.1891 -0.6738
 5085TIP3    H136746   5.182   6.196  14.686 -1.4265  2.7342  0.9391
 5085TIP3    H236747   5.043   6.136  14.681 -0.3345  0.0330  0.7868
 5086TIP3   OH236748   4.543   4.499  16.680  0.5542 -0.0104 -0.0623
 5086TIP3    H136749   4.450   4.487  16.666  0.5456  0.2051 -0.1892
 5086TIP3    H236750   4.557   4.594  16.676  0.2877  0.2652  2.9682
 5087TIP3   OH236751   5.889   2.458  13.369  0.0718  0.0345 -0.0373
 5087TIP3    H136752   5.931   2.523  13.313 -0.0227  1.1509  1.1346
 5087TIP3    H236753   5.819   2.506  13.412 -1.2661 -1.3487 -0.5892
 5088TIP3   OH236754   4.000   2.313  16.305 -0.0732  0.3320 -0.5680
 5088TIP3    H136755   3.958   2.368  16.371  0.9984  1.1054 -0.5083
 5088TIP3    H236756   3.937   2.243  16.288 -0.6344  0.4902  0.7905
 5089TIP3   OH236757   4.304   1.146  15.701  0.1389  0.1955 -0.2134
 5089TIP3    H136758   4.239   1.185  15.760 -0.1736  0.2123 -0.5728
 5089TIP3    H236759   4.388   1.162  15.746 -0.1650 -0.5766  0.6609
 5090TIP3   OH236760   5.641   1.102   4.375  0.3061  0.3858 -0.1315
 5090TIP3    H136761   5.554   1.111   4.415  1.1236 -1.7399  2.4468
 5090TIP3    H236762   5.697   1.073   4.447  2.4127 -1.6902 -2.4397
 5091TIP3   OH236763   6.247   0.041  14.271 -0.1074  0.5808  0.0451
 5091TIP3    H136764   6.217   0.084  14.351 -1.8363 -0.1185 -0.1942
 5091TIP3    H236765   6.215   0.098  14.201 -1.5391 -0.5393 -0.2391
 5092TIP3   OH236766   5.998   6.141   0.538  0.2727  0.4114  0.2609
 5092TIP3    H136767   6.085   6.118   0.507 -0.3123 -2.1610  0.3238
 5092TIP3    H236768   5.939   6.106   0.472 -0.7663  1.3657  0.6549
 5093TIP3   OH236769   1.276   2.979  15.477  0.4951 -0.2752  0.0717
 5093TIP3    H136770   1.283   3.016  15.565  0.7475 -0.8745  0.3080
 5093TIP3    H236771   1.352   3.013  15.430  0.8670 -0.6796  0.3650
 5094TIP3   OH236772   0.663   4.169  15.234  0.4880 -0.0623 -0.0347
 5094TIP3    H136773   0.742   4.116  15.217 -0.0085 -0.2650 -1.9141
 5094TIP3    H236774   0.591   4.116  15.199 -0.2713  0.9292 -0.0062
 5095TIP3   OH236775   4.749   4.651  15.161  0.4457 -0.2120 -0.3712
 5095TIP3    H136776   4.837   4.617  15.150  0.0790 -1.6723  0.9529
 5095TIP3    H236777   4.710   4.645  15.073  1.2936 -0.5725 -0.7367
 5096TIP3   OH236778   3.809   3.268   5.031  0.0626 -0.0361  0.2753
 5096TIP3    H136779   3.715   3.262   5.014 -0.0450  0.0681  0.8320
 5096TIP3    H236780   3.849   3.261   4.944 -0.4565 -0.0907  0.0363
 5097TIP3   OH236781   1.345   3.554   1.222  0.3466 -0.4371  0.0785
 5097TIP3    H136782   1.415   3.509   1.175  1.1078  0.2331  0.5435
 5097TIP3    H236783   1.302   3.608   1.156  0.5779 -0.4910 -0.1166
 5098TIP3   OH236784   4.292   5.050   0.085  0.4150 -0.5598  0.4364
 5098TIP3    H136785   4.333   5.033  -0.001 -1.4918  2.1094 -1.1468
 5098TIP3    H236786   4.248   5.133   0.074 -0.5924 -0.5094  3.8597
 5099TIP3   OH236787   1.632   5.719  16.184 -0.2146 -0.1677  0.3434
 5099TIP3    H136788   1.625   5.700  16.090 -0.8728 -0.1991  0.3938
 5099TIP3    H236789   1.708   5.669  16.213 -0.3291 -0.5817 -0.0659
 5100TIP3   OH236790   0.291   3.587  11.465 -0.1014 -0.6816 -0.4283
 5100TIP3    H136791   0.361   3.623  11.519 -2.0217 -0.8368  2.3967
 5100TIP3    H236792   0.275   3.653  11.397  2.2395 -0.3538 -0.7287
 5101TIP3   OH236793   5.075   0.342  16.755 -0.5996 -0.1739 -0.2439
 5101TIP3    H136794   5.107   0.421  16.798 -0.6223  1.2432 -2.6899
 5101TIP3    H236795   5.139   0.275  16.778  2.0308  1.6543 -1.7604
 5102TIP3   OH236796   2.976   1.027   3.702 -0.0652 -0.0814  1.2218
 5102TIP3    H136797   2.964   1.079   3.781  0.2924  0.1879  1.1021
 5102TIP3    H236798   2.902   1.050   3.646 -0.0916  0.0422  1.3079
 5103TIP3   OH236799   1.034   2.249   5.328  0.1909 -0.5002  0.5983
 5103TIP3    H136800   1.047   2.168   5.279 -2.5994 -0.8172  0.1763
 5103TIP3    H236801   1.012   2.221   5.417 -1.6439 -0.3441  0.2478
 5104TIP3   OH236802   4.940   3.411  13.457  0.2488 -0.3064 -0.2701
 5104TIP3    H136803   4.941   3.366  13.541 -1.3307  0.3130  0.1152
 5104TIP3    H236804   5.026   3.394  13.419  1.0426 -0.4817  1.5222
 5105TIP3   OH236805   5.155   4.676  12.051 -0.0036 -0.4145 -0.3223
 5105TIP3    H136806   5.180   4.768  12.046 -0.0166 -0.3571  0.6195
 5105TIP3    H236807   5.059   4.678  12.053  0.0078 -0.3400  1.3950
 5106TIP3   OH236808   1.637   4.400  16.862 -0.3638 -0.1230  0.1312
 5106TIP3    H136809   1.632   4.495  16.849  0.4062 -0.1938 -0.8253
 5106TIP3    H236810   1.722   4.386  16.903  0.3789 -0.5387 -1.4723
 5107TIP3   OH236811   4.257   1.269   0.127 -0.8899 -0.1685 -0.2501
 5107TIP3    H136812   4.231   1.323   0.201 -0.6676 -1.2795  0.6794
 5107TIP3    H236813   4.176   1.252   0.079 -1.0034  0.7355 -0.3904
 5108TIP3   OH236814   2.666   2.614  16.058 -0.1093  0.6759  1.0638
 5108TIP3    H136815   2.662   2.598  15.964  0.0610  3.2821  0.5344
 5108TIP3    H236816   2.617   2.542  16.097  1.8674 -1.8448 -0.7998
 5109TIP3   OH236817   5.073   2.780  13.218 -0.1717 -0.3723 -0.2528
 5109TIP3    H136818   5.065   2.850  13.283 -1.1878  0.5849 -1.3560
 5109TIP3    H236819   5.032   2.704  13.259  0.5030 -0.1981  0.7735
 5110TIP3   OH236820   5.952   4.188  14.155 -0.6207  0.4642  0.5070
 5110TIP3    H136821   6.024   4.237  14.194  1.1991 -0.5128 -1.4117
 5110TIP3    H236822   5.946   4.221  14.065 -0.5548 -1.5073 -0.2754
 5111TIP3   OH236823   0.999   1.270  16.217 -0.2927 -0.5272  0.3423
 5111TIP3    H136824   1.048   1.246  16.139 -2.3259  0.2426 -1.2621
 5111TIP3    H236825   1.036   1.354  16.244 -1.0494  0.3743 -1.2430
 5112TIP3   OH236826   0.873   5.122  16.075 -0.2065  0.1265 -0.4512
 5112TIP3    H136827   0.888   5.214  16.099  1.5333  0.0306 -1.0069
 5112TIP3    H236828   0.895   5.118  15.982  1.3701 -1.1594 -0.0611
 5113TIP3   OH236829   6.137   0.002   1.470 -0.3043 -0.2900 -0.1382
 5113TIP3    H136830   6.123  -0.053   1.393 -0.1667 -0.1137 -0.2912
 5113TIP3    H236831   6.049   0.018   1.505 -0.3942 -0.1040 -0.4464
 5114TIP3   OH236832   2.607   1.172   2.637  0.3150 -0.2766 -0.1773
 5114TIP3    H136833   2.564   1.187   2.721  0.8068  0.5969 -0.0762
 5114TIP3    H236834   2.541   1.196   2.571  0.2209 -0.1386 -0.0324
 5115TIP3   OH236835   2.776   0.992   0.266  0.5104 -0.5201  0.5078
 5115TIP3    H136836   2.704   0.987   0.202  0.8166 -1.2921  0.2099
 5115TIP3    H236837   2.836   0.923   0.239  0.4612 -1.1144  1.8603
 5116TIP3   OH236838   3.208   1.563  12.722  0.0048 -0.3917 -0.2140
 5116TIP3    H136839   3.134   1.624  12.721  0.3257  0.0508  0.8332
 5116TIP3    H236840   3.178   1.491  12.779 -0.1106 -0.8761 -0.8778
 5117TIP3   OH236841   4.709   3.653  11.298  0.1235 -0.2557 -0.1826
 5117TIP3    H136842   4.759   3.733  11.282 -2.2881  1.4523  0.1343
 5117TIP3    H236843   4.771   3.582  11.282  2.0888  1.6273 -1.5711
 5118TIP3   OH236844   2.658   5.597  15.543 -1.1430 -0.0372 -0.1764
 5118TIP3    H136845   2.642   5.519  15.490  3.4639 -0.7865 -0.9255
 5118TIP3    H236846   2.663   5.564  15.633  0.7450 -0.7059 -0.4852
 5119TIP3   OH236847   5.761   4.271   5.143 -0.1529 -0.8420  0.1869
 5119TIP3    H136848   5.668   4.296   5.149 -0.0951 -0.4280 -0.5330
 5119TIP3    H236849   5.796   4.326   5.073  1.2413  0.8184  2.0383
 5120TIP3   OH236850   1.348   2.670  14.028 -0.0531 -0.3350  0.0375
 5120TIP3    H136851   1.287   2.629  13.967 -0.8934  0.4540  0.3348
 5120TIP3    H236852   1.382   2.597  14.080 -1.0718 -0.7340  0.1689
 5121TIP3   OH236853   3.601   2.215   2.539 -0.4959  0.1047  0.2327
 5121TIP3    H136854   3.513   2.230   2.574 -0.7162 -1.2793  0.3066
 5121TIP3    H236855   3.659   2.233   2.614 -0.8268 -0.5610  0.6615
 5122TIP3   OH236856   2.009   4.058  10.721  0.4365  0.0653 -0.0616
 5122TIP3    H136857   1.973   4.087  10.638 -1.7182  0.7210  1.0206
 5122TIP3    H236858   1.940   4.078  10.785  0.9092 -2.8090  1.5085
 5123TIP3   OH236859   2.855   6.627  14.485 -0.2199  0.5132 -0.9010
 5123TIP3    H136860   2.816   6.714  14.494 -1.6768 -0.0734 -1.2137
 5123TIP3    H236861   2.850   6.590  14.573 -0.2469  0.4984 -0.9087
 5124TIP3   OH236862   3.394   6.154   0.401 -0.4296 -0.4039 -0.1767
 5124TIP3    H136863   3.449   6.221   0.359  0.6129  0.4225  2.3103
 5124TIP3    H236864   3.317   6.202   0.431  0.2429 -0.2734  1.4690
 5125TIP3   OH236865   5.668   4.123  14.620 -0.2689  0.0404 -0.2785
 5125TIP3    H136866   5.744   4.092  14.571  0.1072 -2.0303  1.4356
 5125TIP3    H236867   5.594   4.109  14.561  0.3542 -0.8013 -0.8932
 5126TIP3   OH236868   0.353   0.651   1.981 -0.3677  0.0873 -0.7125
 5126TIP3    H136869   0.365   0.699   2.064 -1.2011  0.1100 -0.5982
 5126TIP3    H236870   0.412   0.695   1.920  0.4565 -0.0971 -0.0673
 5127TIP3   OH236871   0.307   4.502  12.099 -0.3320 -0.0034 -0.2234
 5127TIP3    H136872   0.398   4.473  12.101 -0.3821 -0.1394  0.2585
 5127TIP3    H236873   0.307   4.580  12.044  0.0133 -0.2084 -0.5189
 5128TIP3   OH236874   1.111   4.668  16.529 -0.0539 -0.3986  0.5662
 5128TIP3    H136875   1.120   4.742  16.589  1.0730  2.1661 -2.4805
 5128TIP3    H236876   1.016   4.661  16.514 -0.1508  0.8646  0.4775
 5129TIP3   OH236877   2.251   0.969   1.498  0.1735  0.0933 -0.7552
 5129TIP3    H136878   2.208   0.918   1.429  1.0999  0.5065 -1.6579
 5129TIP3    H236879   2.227   1.060   1.479 -0.3859  0.1221  0.0647
 5130TIP3   OH236880   0.972   1.400   3.655  0.2111 -0.1135 -0.0144
 5130TIP3    H136881   0.893   1.411   3.707 -1.5203  2.2454 -2.8345
 5130TIP3    H236882   0.944   1.416   3.565  3.6145 -0.7914 -1.3521
 5131TIP3   OH236883   4.033   1.389   1.739 -0.6086 -0.0985 -0.4331
 5131TIP3    H136884   4.037   1.485   1.733  0.0863 -0.0977 -0.0450
 5131TIP3    H236885   4.085   1.358   1.665 -0.0217 -0.1638  0.0016
 5132TIP3   OH236886   3.728   0.108  15.419  0.7118  0.2487  0.1974
 5132TIP3    H136887   3.724   0.198  15.453 -1.2631 -0.4923  2.1005
 5132TIP3    H236888   3.642   0.071  15.437  1.2522 -1.8520 -1.1700
 5133TIP3   OH236889   2.988   3.507   2.716 -0.0564 -0.0310 -0.0823
 5133TIP3    H136890   2.986   3.441   2.647  3.7116 -0.0960 -0.3537
 5133TIP3    H236891   3.031   3.464   2.789 -2.2814  0.6272  1.7275
 5134TIP3   OH236892   5.047   6.362  14.475 -0.0182  0.6774 -0.0235
 5134TIP3    H136893   5.014   6.272  14.468  2.7168 -0.5538  1.2209
 5134TIP3    H236894   4.988   6.403  14.538 -0.9695 -0.4282 -0.1454
 5135TIP3   OH236895   6.759   4.971   1.095 -0.3238  0.1736 -0.9776
 5135TIP3    H136896   6.773   5.063   1.074  1.8947 -0.0966 -1.0029
 5135TIP3    H236897   6.764   4.926   1.011  1.6108 -0.2089 -0.7212
 5136TIP3   OH236898   2.167   3.538   0.931 -0.1405 -0.0326 -0.6279
 5136TIP3    H136899   2.142   3.446   0.924  2.7138 -1.0954  1.3676
 5136TIP3    H236900   2.088   3.582   0.961 -1.6336 -1.7567 -1.7932
 5137TIP3   OH236901   2.139   6.286  11.448 -0.1540  0.3296  0.2319
 5137TIP3    H136902   2.082   6.355  11.483  0.0885 -0.6945  2.8294
 5137TIP3    H236903   2.088   6.206  11.458 -0.2154 -0.0314 -2.2595
 5138TIP3   OH236904   1.067   1.663  11.904 -0.7633 -0.0618  0.4263
 5138TIP3    H136905   1.082   1.600  11.833 -1.5720 -0.8558  0.9396
 5138TIP3    H236906   0.972   1.674  11.907 -0.6595  0.9156  0.5919
 5139TIP3   OH236907   2.134   4.575  16.341  0.2623 -0.4066  0.3202
 5139TIP3    H136908   2.226   4.602  16.346 -0.6818  4.1390 -1.3609
 5139TIP3    H236909   2.097   4.599  16.426  0.3519 -0.9186  0.5037
 5140TIP3   OH236910   0.034   2.964  12.224 -0.1806  0.1114 -0.1765
 5140TIP3    H136911   0.102   2.935  12.164  1.2992  1.8955  0.5212
 5140TIP3    H236912  -0.034   3.000  12.167  0.0190 -0.5705 -0.8577
 5141TIP3   OH236913   6.709   1.663  13.776 -0.5158 -0.2310 -0.1538
 5141TIP3    H136914   6.631   1.714  13.799 -1.0748 -0.1193 -2.0896
 5141TIP3    H236915   6.676   1.595  13.717  1.0427  0.8364 -2.3955
 5142TIP3   OH236916   1.598   3.434  14.784  0.0772 -0.0320 -0.4650
 5142TIP3    H136917   1.656   3.435  14.860  0.1252 -0.3427 -0.4981
 5142TIP3    H236918   1.571   3.343  14.775 -1.4433  0.2977  0.3286
 5143TIP3   OH236919   3.226   0.774   0.570 -0.1717  0.2831  0.2162
 5143TIP3    H136920   3.234   0.854   0.519  0.3490 -0.0268 -0.1962
 5143TIP3    H236921   3.131   0.760   0.577 -0.2597  0.7887  0.0702
 5144TIP3   OH236922   2.391   1.719  13.065  0.2714 -0.5334 -0.2936
 5144TIP3    H136923   2.361   1.628  13.075 -3.2430  0.5733  0.4281
 5144TIP3    H236924   2.367   1.742  12.975  1.6251 -0.4114 -0.6468
 5145TIP3   OH236925   0.885   0.445   5.285 -0.0470  0.8573 -0.1234
 5145TIP3    H136926   0.834   0.413   5.359  0.0839  1.0899  0.0689
 5145TIP3    H236927   0.896   0.538   5.303  0.1337  0.8783 -0.3488
 5146TIP3   OH236928   6.560   1.393   0.849  0.0811  0.0115  0.2280
 5146TIP3    H136929   6.517   1.385   0.764  1.9431  0.0805 -0.7713
 5146TIP3    H236930   6.515   1.330   0.905 -1.0521 -0.1729 -0.8659
 5147TIP3   OH236931   0.237   0.289  16.458 -0.2198 -0.3292 -0.7424
 5147TIP3    H136932   0.279   0.270  16.374  0.7955 -0.2427 -0.2749
 5147TIP3    H236933   0.307   0.276  16.522 -0.8703  0.0315  0.0482
 5148TIP3   OH236934   3.378   0.905   6.358 -0.4087  0.0513 -0.0098
 5148TIP3    H136935   3.435   0.893   6.434 -0.6132 -2.0677 -0.1141
 5148TIP3    H236936   3.296   0.863   6.384 -1.0923  0.8804 -0.7651
 5149TIP3   OH236937   5.553   5.148  14.083  0.4679 -0.0625  0.1828
 5149TIP3    H136938   5.559   5.202  14.162  2.3925 -0.0657  0.0683
 5149TIP3    H236939   5.643   5.137  14.054 -0.1505 -0.7139 -1.5978
 5150TIP3   OH236940   0.744   2.349  13.543  0.4171 -0.4093 -0.8393
 5150TIP3    H136941   0.742   2.442  13.524 -0.2789 -0.1232  0.4516
 5150TIP3    H236942   0.683   2.310  13.480  0.4274  0.0556 -1.1383
 5151TIP3   OH236943   4.305   3.072   0.384 -0.6794  0.4240 -0.1950
 5151TIP3    H136944   4.254   3.002   0.424 -1.2513  1.0437  0.1683
 5151TIP3    H236945   4.360   3.105   0.455 -0.4493  0.3801 -0.3519
 5152TIP3   OH236946   1.109   5.000   0.722 -0.1595 -0.1680  0.1006
 5152TIP3    H136947   1.146   4.935   0.662  0.9240  0.0003  0.5432
 5152TIP3    H236948   1.049   4.951   0.777  1.2314 -1.0089  0.9508
 5153TIP3   OH236949   0.409   2.956   1.084  0.4828  0.3537 -0.6884
 5153TIP3    H136950   0.472   3.017   1.121  2.2649 -1.5297 -0.4944
 5153TIP3    H236951   0.330   2.968   1.137  0.9607  2.0243 -0.2888
 5154TIP3   OH236952   3.297   3.663   1.185  0.3898  0.6559  0.2790
 5154TIP3    H136953   3.208   3.635   1.203  0.1414 -0.4688 -2.2161
 5154TIP3    H236954   3.288   3.753   1.152  0.1620  0.5615  0.0804
 5155TIP3   OH236955   1.553   3.148  16.272  0.1181  0.7810 -0.0712
 5155TIP3    H136956   1.466   3.182  16.249 -0.3631 -0.2208  0.1938
 5155TIP3    H236957   1.549   3.138  16.367 -0.2058 -1.1382 -0.2513
 5156TIP3   OH236958   4.184   0.195  15.520 -0.6400  0.3711  0.0689
 5156TIP3    H136959   4.172   0.269  15.579  1.6389 -1.3090  2.9091
 5156TIP3    H236960   4.110   0.138  15.539 -0.3813  0.2387  0.7274
 5157TIP3   OH236961   6.135   2.816   6.658 -0.1735  0.0205  0.3690
 5157TIP3    H136962   6.068   2.814   6.726  0.9036  1.0645  1.5165
 5157TIP3    H236963   6.138   2.907   6.630  1.1875  0.1348  0.8120
 5158TIP3   OH236964   3.743   2.706   4.681  0.2344 -0.4220 -0.0176
 5158TIP3    H136965   3.722   2.674   4.769  0.7928  0.7693  0.5696
 5158TIP3    H236966   3.838   2.697   4.674  0.3867  0.8803  0.0960
 5159TIP3   OH236967   6.674   5.154  15.110  0.1367 -0.2727  0.0639
 5159TIP3    H136968   6.684   5.219  15.179 -0.8613  0.2966 -0.3079
 5159TIP3    H236969   6.698   5.200  15.030  1.5282 -0.9988  0.0403
 5160TIP3   OH236970   2.710   4.323   3.299 -0.4688  0.1037  0.2065
 5160TIP3    H136971   2.674   4.346   3.214 -1.2824  0.5375  0.6541
 5160TIP3    H236972   2.750   4.404   3.331 -1.1400  0.2496  0.7038
 5161TIP3   OH236973   4.848   2.960   3.326 -0.0041  0.5213 -0.3922
 5161TIP3    H136974   4.777   3.006   3.281 -1.2587  0.2434  1.1921
 5161TIP3    H236975   4.928   2.990   3.283 -1.0932  0.1719 -2.8509
 5162TIP3   OH236976   5.816   2.898  12.302  0.3898 -0.3371 -0.1531
 5162TIP3    H136977   5.738   2.946  12.331 -0.0336 -1.0048 -0.1612
 5162TIP3    H236978   5.784   2.809  12.285  1.1572 -0.6184 -0.1502
 5163TIP3   OH236979   4.320   5.766  10.429 -0.0625  0.3698 -0.6448
 5163TIP3    H136980   4.279   5.810  10.354  1.3772  0.5333 -1.3854
 5163TIP3    H236981   4.248   5.725  10.475 -1.0029  0.2309 -2.1637
 5164TIP3   OH236982   0.443   0.914  15.684 -0.5179 -0.1065 -0.6743
 5164TIP3    H136983   0.398   0.832  15.706  0.5749 -0.5544 -0.0690
 5164TIP3    H236984   0.461   0.907  15.590  1.1422 -1.3820 -0.3092
 5165TIP3   OH236985   1.646   3.306  15.512  0.1046 -0.2681 -0.0468
 5165TIP3    H136986   1.678   3.297  15.602 -0.0257 -1.5850 -0.1204
 5165TIP3    H236987   1.674   3.226  15.468 -1.2073 -0.3608 -0.7637
 5166TIP3   OH236988   0.179   3.172  16.247  0.3125  0.0667 -0.2228
 5166TIP3    H136989   0.233   3.215  16.313 -0.5203 -0.0053  0.5248
 5166TIP3    H236990   0.151   3.242  16.189 -1.0047  0.5746  0.9620
 5167TIP3   OH236991   6.416   3.080  11.286  0.3796  0.4072  0.1035
 5167TIP3    H136992   6.496   3.127  11.264 -0.2537  0.8924 -1.2874
 5167TIP3    H236993   6.433   2.990  11.259 -0.4423  1.0191 -2.8322
 5168TIP3   OH236994   2.740   3.216  15.714 -0.4694  0.4228 -0.1045
 5168TIP3    H136995   2.822   3.243  15.755  1.0696 -1.8730 -1.4261
 5168TIP3    H236996   2.689   3.179  15.786  0.9078 -0.7596  0.3164
 5169TIP3   OH236997   3.101   3.506   0.881 -1.1928  0.0234  1.1525
 5169TIP3    H136998   3.145   3.424   0.900 -1.1202 -0.1180  0.4330
 5169TIP3    H236999   3.094   3.507   0.785  1.9720  2.4400  0.7556
 5170TIP3   OH237000   5.394   3.216   6.009  0.4202 -0.1795  0.0250
 5170TIP3    H137001   5.419   3.172   6.090  1.9545  0.2433 -0.1783
 5170TIP3    H237002   5.412   3.151   5.940 -1.9034 -0.9338  0.0643
 5171TIP3   OH237003   5.284   4.553  13.147 -0.2427 -0.2545 -1.0273
 5171TIP3    H137004   5.307   4.641  13.178  0.0659 -0.7743  0.2687
 5171TIP3    H237005   5.189   4.550  13.152 -0.3061  0.2253 -1.7331
 5172TIP3   OH237006   0.464   2.583   1.178 -0.0216 -0.2541 -0.4972
 5172TIP3    H137007   0.490   2.666   1.218 -2.3839  0.7708 -0.8922
 5172TIP3    H237008   0.510   2.516   1.228  0.0047  1.1808  1.4992
 5173TIP3   OH237009   2.416   5.885   2.219  0.5633  0.3340  0.1115
 5173TIP3    H137010   2.429   5.885   2.124 -0.9449 -1.2103 -0.1381
 5173TIP3    H237011   2.321   5.894   2.231  0.6664 -0.1160  1.4645
 5174TIP3   OH237012   4.092   0.935   1.182 -0.1206  0.4368 -0.1849
 5174TIP3    H137013   4.106   1.025   1.153  1.1901  0.9186  1.7583
 5174TIP3    H237014   3.996   0.926   1.186 -0.2917  2.2165  0.8750
 5175TIP3   OH237015   0.538   0.231  17.038 -0.0280  0.2905 -0.2206
 5175TIP3    H137016   0.478   0.223  17.112 -1.1156  0.9254 -1.0047
 5175TIP3    H237017   0.552   0.325  17.028  1.2957  0.1533  0.0708
 5176TIP3   OH237018   0.631   4.769  11.965  0.0335 -0.0915 -0.5008
 5176TIP3    H137019   0.616   4.706  12.035 -1.7152  0.6404 -0.1712
 5176TIP3    H237020   0.726   4.782  11.965  0.3751 -2.2385 -0.1906
 5177TIP3   OH237021   5.150   6.581  12.668  0.1237  0.8483 -0.0370
 5177TIP3    H137022   5.178   6.490  12.670  2.4734  1.5186  1.4510
 5177TIP3    H237023   5.074   6.585  12.726  1.4608  0.1952  1.8608
 5178TIP3   OH237024   4.071   6.406   3.523 -0.1856 -0.2248 -0.0967
 5178TIP3    H137025   4.080   6.487   3.573 -0.0260 -0.8532  0.9299
 5178TIP3    H237026   3.977   6.399   3.506 -0.7785 -1.6119  2.9962
 5179TIP3   OH237027   2.852   0.070   6.919 -0.6979  0.1482 -0.0168
 5179TIP3    H137028   2.876   0.111   6.836 -2.5492 -0.2444 -0.7963
 5179TIP3    H237029   2.759   0.089   6.929 -0.8859 -1.2234  1.1555
 5180TIP3   OH237030   1.188   3.629   3.717  0.0190 -0.4694  0.6773
 5180TIP3    H137031   1.154   3.540   3.711  0.3058 -0.6350  1.4079
 5180TIP3    H237032   1.153   3.674   3.640  1.2083 -1.6506 -0.5974
 5181TIP3   OH237033   2.190   0.643   1.782  0.7675  0.7441 -0.5250
 5181TIP3    H137034   2.195   0.594   1.700  1.5681  1.2045 -0.7581
 5181TIP3    H237035   2.137   0.720   1.760 -1.3190 -0.4394  0.0788
 5182TIP3   OH237036   4.494   1.466   1.042  0.4299  0.1655 -0.1271
 5182TIP3    H137037   4.458   1.389   0.998  0.3836  0.5933 -0.8527
 5182TIP3    H237038   4.448   1.469   1.126 -0.3531  0.0209 -0.5437
 5183TIP3   OH237039   0.524   3.720   4.493 -0.7347  0.3655 -0.0401
 5183TIP3    H137040   0.466   3.729   4.418 -2.5378  1.1312  1.3737
 5183TIP3    H237041   0.528   3.807   4.531 -0.4877 -0.1674  1.2058
 5184TIP3   OH237042   4.667   1.308  13.805 -0.1045 -0.0144  0.4684
 5184TIP3    H137043   4.715   1.335  13.883  2.8039 -3.1119 -0.0253
 5184TIP3    H237044   4.679   1.380  13.743 -0.1150  1.2776  1.9117
 5185TIP3   OH237045   0.331   6.511   1.569  0.2474 -0.5500  0.0566
 5185TIP3    H137046   0.272   6.578   1.534 -0.6321 -1.0954  0.4441
 5185TIP3    H237047   0.406   6.559   1.602 -0.7267  0.3418  1.0645
 5186TIP3   OH237048   4.555   2.448   5.632 -0.1073 -0.1373  0.8921
 5186TIP3    H137049   4.532   2.426   5.722  0.7341 -1.0337  0.9076
 5186TIP3    H237050   4.635   2.500   5.640 -0.5134  0.5189  0.7045
 5187TIP3   OH237051   1.805   6.827  11.369  0.1251 -0.2309 -0.1589
 5187TIP3    H137052   1.855   6.750  11.397  1.0024  0.6057  0.6352
 5187TIP3    H237053   1.864   6.874  11.311 -1.5262 -1.7157 -3.2734
 5188TIP3   OH237054   6.696   6.733  12.891  0.0583 -0.0067 -0.1821
 5188TIP3    H137055   6.612   6.774  12.907  1.2085  2.1882  0.6012
 5188TIP3    H237056   6.705   6.669  12.961 -0.6329  0.2527  0.1507
 5189TIP3   OH237057   3.634   3.395   1.614  0.2353 -0.5858 -0.3027
 5189TIP3    H137058   3.656   3.488   1.622 -2.7573  0.0888  1.9320
 5189TIP3    H237059   3.640   3.361   1.703 -0.1414 -2.1796 -0.8537
 5190TIP3   OH237060   4.072   5.543  12.249 -0.2380  0.0709  0.9276
 5190TIP3    H137061   4.133   5.517  12.319  0.6278  1.7166  0.8511
 5190TIP3    H237062   4.122   5.532  12.168 -0.0403  1.3731  0.8569
 5191TIP3   OH237063   1.758   3.389  16.404  0.9563 -0.0921  0.7700
 5191TIP3    H137064   1.673   3.349  16.418 -0.8496  3.3923  0.9792
 5191TIP3    H237065   1.788   3.353  16.320  0.8358 -3.6681  2.1090
 5192TIP3   OH237066   5.273   3.560   0.884 -0.0051 -0.4010  0.1517
 5192TIP3    H137067   5.180   3.539   0.897 -0.0693  0.6680  1.7291
 5192TIP3    H237068   5.296   3.613   0.960  1.6141  0.3261 -0.8037
 5193TIP3   OH237069   1.652   0.617   5.467 -0.1281  0.5153 -0.1722
 5193TIP3    H137070   1.659   0.559   5.391  0.9331 -0.4853  0.6589
 5193TIP3    H237071   1.742   0.644   5.485 -0.1637 -0.3320  1.5010
 5194TIP3   OH237072   1.436   6.705  12.102  0.0981  0.4233  0.4026
 5194TIP3    H137073   1.360   6.747  12.061  1.0117  0.9108 -0.8407
 5194TIP3    H237074   1.438   6.617  12.064 -0.8553 -0.2346  1.7811
 5195TIP3   OH237075   1.194   1.456   5.828 -0.0963 -0.2007  0.5431
 5195TIP3    H137076   1.222   1.509   5.902  0.7488  1.2452 -0.7392
 5195TIP3    H237077   1.272   1.405   5.804 -0.0799  0.0186  0.1116
 5196TIP3   OH237078   0.922   6.011   1.091  0.5102 -0.0368  0.3908
 5196TIP3    H137079   0.844   6.028   1.144  1.0508  0.3811  1.0635
 5196TIP3    H237080   0.896   5.938   1.033 -0.0223 -0.6543  1.3783
 5197TIP3   OH237081   2.095   5.599   2.883  0.2948 -0.2081  0.1482
 5197TIP3    H137082   2.081   5.664   2.952 -0.1679  0.2571 -0.3700
 5197TIP3    H237083   2.007   5.582   2.850  0.4313 -1.0024  0.1896
 5198TIP3   OH237084   1.912   1.380   4.440  0.0054 -0.2489 -0.0196
 5198TIP3    H137085   1.857   1.309   4.472  2.1316 -1.8885  0.1968
 5198TIP3    H237086   1.969   1.339   4.375  1.1081  1.3093 -0.0951
 5199TIP3   OH237087   0.257   5.511  15.496  0.4687 -0.0223  0.2474
 5199TIP3    H137088   0.318   5.451  15.453  1.2491  0.5076  0.5967
 5199TIP3    H237089   0.278   5.597  15.461  0.3858  0.2610  0.8865
 5200TIP3   OH237090   4.421   0.169   4.192 -0.4163 -0.1973  0.1434
 5200TIP3    H137091   4.501   0.188   4.241 -1.5931  1.2829  1.6432
 5200TIP3    H237092   4.397   0.253   4.152 -0.8831 -0.7755 -0.8324
 5201TIP3   OH237093   0.014   6.448  12.729  0.4610  1.2068 -0.1011
 5201TIP3    H137094   0.086   6.389  12.708  1.0411  1.3988  1.2209
 5201TIP3    H237095   0.028   6.470  12.821 -3.7543 -2.3459  1.7482
 5202TIP3   OH237096   2.577   3.363  15.006 -0.5699  0.1786  0.7151
 5202TIP3    H137097   2.561   3.418  14.929 -0.7175  0.0100  0.6215
 5202TIP3    H237098   2.652   3.308  14.981  0.2813  1.0853  1.2150
 5203TIP3   OH237099   2.116   5.669  13.360 -0.4087 -0.2859 -0.3418
 5203TIP3    H137100   2.167   5.591  13.381 -2.4742 -1.8558 -0.9342
 5203TIP3    H237101   2.042   5.667  13.421 -1.9273 -0.3117 -2.1149
 5204TIP3   OH237102   0.811   6.385  15.792 -0.2822 -0.5277  0.3433
 5204TIP3    H137103   0.808   6.430  15.877 -1.4729 -0.2852  0.1995
 5204TIP3    H237104   0.839   6.452  15.730  0.7865 -0.7576  0.5678
 5205TIP3   OH237105   2.066   0.162   2.897 -0.3094  0.1497  0.3120
 5205TIP3    H137106   2.095   0.077   2.930  1.2817  0.7547  0.5606
 5205TIP3    H237107   1.971   0.158   2.900 -0.2468 -1.3330  1.0534
 5206TIP3   OH237108   0.155   3.326   5.265 -0.0559 -0.6537  0.2692
 5206TIP3    H137109   0.107   3.407   5.284 -0.2453 -1.0901  1.8187
 5206TIP3    H237110   0.238   3.335   5.314  0.8443 -0.5205 -1.2261
 5207TIP3   OH237111   2.656   3.008  15.547  0.0772 -0.1424  0.1240
 5207TIP3    H137112   2.724   2.951  15.583  1.6977  0.2005 -2.1868
 5207TIP3    H237113   2.670   3.092  15.590  1.2714 -0.0250 -0.4543
 5208TIP3   OH237114   1.823   1.722  13.978  0.5293 -0.4589 -0.4307
 5208TIP3    H137115   1.799   1.685  14.063  1.7350  0.0927  0.1706
 5208TIP3    H237116   1.839   1.645  13.922  1.3250 -0.8626  0.3202
 5209TIP3   OH237117   4.454   6.059  11.999 -0.1713  0.3814  0.3884
 5209TIP3    H137118   4.468   6.066  12.094  0.1288 -0.4239  0.4126
 5209TIP3    H237119   4.359   6.057  11.989 -0.2147  0.9898  0.6271
 5210TIP3   OH237120   3.518   6.627  15.797 -0.0684  0.2826 -0.8491
 5210TIP3    H137121   3.553   6.589  15.878 -2.5167 -0.8907 -0.2451
 5210TIP3    H237122   3.585   6.689  15.769  1.9419 -0.9967  0.7753
 5211TIP3   OH237123   1.241   6.243   1.459 -0.0880 -0.1130  0.6545
 5211TIP3    H137124   1.173   6.234   1.392 -0.2526 -2.4013  1.0318
 5211TIP3    H237125   1.321   6.217   1.415 -0.1746 -1.4878  1.2551
 5212TIP3   OH237126   5.227   6.548   4.190  0.0677  0.3930  0.4004
 5212TIP3    H137127   5.152   6.526   4.134 -0.0203  1.0596  0.2434
 5212TIP3    H237128   5.264   6.627   4.149  0.9284 -0.0017  0.4041
 5213TIP3   OH237129   6.598   1.461   3.412  0.0835  0.1752  0.0766
 5213TIP3    H137130   6.660   1.515   3.460 -0.3904 -0.4591  1.4396
 5213TIP3    H237131   6.577   1.389   3.472  1.3692 -2.0636 -1.9291
 5214TIP3   OH237132   1.590   1.505  12.236  0.3156  0.0334  1.1681
 5214TIP3    H137133   1.586   1.447  12.312 -0.2980  0.3330  1.3703
 5214TIP3    H237134   1.566   1.591  12.270  0.2413  0.2101  0.6773
 5215TIP3   OH237135   3.696   2.145  10.723 -0.3503 -0.0995 -0.5528
 5215TIP3    H137136   3.743   2.157  10.640 -0.4273 -0.3599 -0.6358
 5215TIP3    H237137   3.665   2.233  10.746  0.5111  0.1411 -0.2964
 5216TIP3   OH237138   2.983   0.382   2.838 -0.3904 -0.4363  0.2896
 5216TIP3    H137139   2.954   0.355   2.751 -0.7144 -0.4219  0.3910
 5216TIP3    H237140   2.903   0.413   2.881  0.1379  1.8430 -0.2500
 5217TIP3   OH237141   2.171   0.787  12.140 -0.1067 -0.2050  0.4713
 5217TIP3    H137142   2.227   0.806  12.065 -0.2713 -1.6582 -0.0561
 5217TIP3    H237143   2.113   0.864  12.147  0.7959  0.5390 -0.0396
 5218TIP3   OH237144   1.887   2.573   3.811 -0.2503  0.1935  0.4685
 5218TIP3    H137145   1.867   2.612   3.726 -0.9819 -0.6319  0.2535
 5218TIP3    H237146   1.827   2.616   3.872 -0.1751  0.3220  0.4510
 5219TIP3   OH237147   0.044   3.669  10.969 -0.6732 -0.5059  0.1067
 5219TIP3    H137148   0.022   3.638  10.880 -4.5463 -1.2432  1.1311
 5219TIP3    H237149   0.049   3.764  10.961 -1.3349 -0.5354 -0.8810
 5220TIP3   OH237150   6.709   4.745  14.317 -0.2362 -0.0014 -0.5822
 5220TIP3    H137151   6.734   4.757  14.226  1.0830 -0.6147 -0.3315
 5220TIP3    H237152   6.619   4.711  14.313  0.7951 -2.9232 -1.8462
 5221TIP3   OH237153   2.007   1.501   2.345 -0.1682  0.0001  0.3205
 5221TIP3    H137154   2.008   1.419   2.395  1.3856  0.1093  0.5234
 5221TIP3    H237155   2.086   1.498   2.292 -2.8186 -1.1625 -4.0543
 5222TIP3   OH237156   3.523   2.719  14.360 -0.8025  0.5249  0.2990
 5222TIP3    H137157   3.496   2.714  14.452  0.6448 -2.2843  0.6822
 5222TIP3    H237158   3.460   2.663  14.314 -0.5212  0.5729 -0.1488
 5223TIP3   OH237159   5.649   1.860  14.100  0.0001 -0.5831  0.1827
 5223TIP3    H137160   5.724   1.805  14.122  1.2031  1.7817  2.5128
 5223TIP3    H237161   5.686   1.928  14.044 -0.6820 -0.1130  0.2927
 5224TIP3   OH237162   6.744   5.982  11.025  0.3641 -0.6345  0.8880
 5224TIP3    H137163   6.649   5.975  11.036 -0.0707  1.4152 -0.8457
 5224TIP3    H237164   6.772   5.893  11.007 -1.7403 -0.9276 -1.5847
 5225TIP3   OH237165   2.017   5.290  14.924 -0.6799  0.5903 -0.2094
 5225TIP3    H137166   2.028   5.208  14.875 -1.3773  0.6290 -0.4413
 5225TIP3    H237167   2.091   5.291  14.985 -0.0884  0.2882 -0.9047
 5226TIP3   OH237168   0.349   4.275  12.507  0.2044 -0.0886 -0.1631
 5226TIP3    H137169   0.397   4.198  12.476  2.3982  1.5867 -1.2242
 5226TIP3    H237170   0.310   4.312  12.428 -0.7506 -0.0356  0.3237
 5227TIP3   OH237171   3.756   3.965  14.615 -0.2183  0.5172  0.2678
 5227TIP3    H137172   3.718   3.924  14.693  0.1261  0.9593  0.6705
 5227TIP3    H237173   3.728   4.056  14.619  1.5316  1.0628  1.0118
 5228TIP3   OH237174   1.169   2.026   2.805 -0.1262 -0.2199 -0.3330
 5228TIP3    H137175   1.178   2.121   2.791 -1.2065  0.1161  1.0057
 5228TIP3    H237176   1.253   2.000   2.844 -0.4696  0.5637  1.0018
 5229TIP3   OH237177   5.146   5.942  13.729  0.0226  0.0696 -0.1450
 5229TIP3    H137178   5.125   5.880  13.799 -1.6240 -0.4364 -1.0184
 5229TIP3    H237179   5.110   6.026  13.759 -1.4994 -0.3366 -0.7002
 5230TIP3   OH237180   4.900   2.394  12.176 -0.3931  0.0341  0.4284
 5230TIP3    H137181   4.978   2.389  12.121  0.0703  1.2878  0.9245
 5230TIP3    H237182   4.827   2.374  12.117 -0.1478  3.4175 -1.2612
 5231TIP3   OH237183   3.359   6.170  13.591  0.7154  0.0400 -0.0629
 5231TIP3    H137184   3.357   6.106  13.520  1.5383  0.1241 -0.1716
 5231TIP3    H237185   3.417   6.239  13.559 -1.9177  2.0133 -0.9119
 5232TIP3   OH237186   3.455   4.964  13.430 -0.2933 -0.1408 -0.4176
 5232TIP3    H137187   3.467   5.036  13.368  0.6566 -1.2656 -1.6096
 5232TIP3    H237188   3.360   4.946  13.428 -0.5293  1.0345 -0.1221
 5233TIP3   OH237189   0.601   1.551   5.480  0.4668  0.0595 -0.6547
 5233TIP3    H137190   0.578   1.644   5.483 -1.5092 -0.3951  1.1096
 5233TIP3    H237191   0.689   1.549   5.443  1.0617  2.7251  0.3833
 5234TIP3   OH237192   3.150   1.699  13.676  0.1383 -0.0983  0.1114
 5234TIP3    H137193   3.242   1.709  13.652  0.3868  2.0589  1.6136
 5234TIP3    H237194   3.101   1.737  13.603  0.5675  0.5513  0.1503
 5235TIP3   OH237195   2.206   6.086  13.517 -0.8922 -0.2143 -0.4117
 5235TIP3    H137196   2.202   6.146  13.442 -0.1690  0.2039 -0.1150
 5235TIP3    H237197   2.266   6.127  13.578 -2.0711 -0.1596  0.7616
 5236TIP3   OH237198   2.541   0.412   4.978 -0.4173 -0.3166  0.0456
 5236TIP3    H137199   2.622   0.372   4.947  0.6653  1.4181  0.4780
 5236TIP3    H237200   2.495   0.438   4.899 -0.4574 -1.1016 -0.1992
 5237TIP3   OH237201   6.613   2.574  12.710 -0.8119  0.2688 -0.0984
 5237TIP3    H137202   6.693   2.566  12.762 -1.4524  0.4606  0.9544
 5237TIP3    H237203   6.590   2.484  12.689 -1.4523  0.0460  1.4167
 5238TIP3   OH237204   6.021   3.042  12.173 -0.3276  0.2958  0.2443
 5238TIP3    H137205   5.980   2.973  12.224  0.4390 -1.5701 -1.4982
 5238TIP3    H237206   5.948   3.092  12.137 -1.1682 -2.1980 -1.7905
 5239TIP3   OH237207   3.465   2.560  15.169 -0.0699 -0.2331 -0.0496
 5239TIP3    H137208   3.538   2.507  15.137  0.5701  0.1752  0.7139
 5239TIP3    H237209   3.438   2.612  15.094 -0.4559 -1.3505 -0.7096
 5240TIP3   OH237210   2.193   3.035  16.811 -0.3974  0.0143 -0.1743
 5240TIP3    H137211   2.239   3.120  16.809 -0.7682  0.1995 -0.8085
 5240TIP3    H237212   2.214   3.000  16.898  0.3721  0.4157 -0.1830
 5241TIP3   OH237213   0.798   0.220  15.077 -0.4760  0.5112 -0.5328
 5241TIP3    H137214   0.870   0.281  15.059  0.0231  0.4007  0.9133
 5241TIP3    H237215   0.761   0.201  14.991  1.4266  0.3212 -1.3759
 5242TIP3   OH237216   2.263   3.707  15.918  0.1950 -0.4612  0.5997
 5242TIP3    H137217   2.299   3.668  15.838  1.7990 -0.9080  1.4941
 5242TIP3    H237218   2.334   3.702  15.981  0.5647  4.0248  0.8194
 5243TIP3   OH237219   6.621   5.958   6.728 -0.4257  0.5617  0.2563
 5243TIP3    H137220   6.624   5.971   6.633  1.0555 -0.5279  0.1052
 5243TIP3    H237221   6.688   6.017   6.762  0.8137 -0.8203  0.3331
 5244TIP3   OH237222   0.633   0.162  14.701 -0.2602 -0.2063 -0.7613
 5244TIP3    H137223   0.684   0.139  14.623 -1.0159 -2.2156 -0.7368
 5244TIP3    H237224   0.548   0.189  14.667 -1.0809 -2.4319 -0.6896
 5245TIP3   OH237225   4.214   0.304  11.839 -0.2636  0.1877 -0.3553
 5245TIP3    H137226   4.237   0.386  11.881  1.3496  0.6794 -2.0829
 5245TIP3    H237227   4.237   0.316  11.747 -1.9032 -1.4925 -1.0568
 5246TIP3   OH237228   6.098   1.214  16.937  0.3395  0.0224 -0.5465
 5246TIP3    H137229   6.015   1.247  16.972 -0.4363 -2.8895  0.6633
 5246TIP3    H237230   6.158   1.217  17.011  0.9676  0.9306 -1.0777
 5247TIP3   OH237231   4.382   1.468  16.040  0.1169  0.1318 -0.4515
 5247TIP3    H137232   4.322   1.499  16.107  1.9248 -0.0031  1.3333
 5247TIP3    H237233   4.424   1.547  16.006  1.2476  0.0420  0.6608
 5248TIP3   OH237234   1.642   3.472   2.258  0.1431  0.4445 -0.9130
 5248TIP3    H137235   1.663   3.401   2.197  1.0965 -0.5520  0.5134
 5248TIP3    H237236   1.602   3.428   2.333 -0.5823  1.5935 -0.6072
 5249TIP3   OH237237   2.846   1.138   2.254 -0.1580  0.2637  0.0055
 5249TIP3    H137238   2.914   1.070   2.259 -0.1535  0.3375  1.0807
 5249TIP3    H237239   2.869   1.200   2.323 -0.5564  1.0073 -0.5215
 5250TIP3   OH237240   1.299   2.910  11.354 -0.3522  0.0732  0.6552
 5250TIP3    H137241   1.371   2.908  11.417 -0.6447 -2.1480  0.9984
 5250TIP3    H237242   1.303   2.998  11.315  1.0940  0.7877  2.2948
 5251TIP3   OH237243   6.617   6.755  13.708 -0.2844  0.5568 -0.0118
 5251TIP3    H137244   6.606   6.824  13.774  1.3622  0.3100  0.5729
 5251TIP3    H237245   6.559   6.780  13.636  0.4987  2.7227  0.0595
 5252TIP3   OH237246   2.258   4.842   4.815  0.3928  0.5563 -0.5775
 5252TIP3    H137247   2.234   4.870   4.903 -2.5289 -2.4476 -0.2239
 5252TIP3    H237248   2.327   4.903   4.789 -1.1615  3.9492  2.2944
 5253TIP3   OH237249   2.704   3.850   5.675  0.1590 -0.1287  0.2663
 5253TIP3    H137250   2.695   3.834   5.581  1.6529 -1.9645  0.3896
 5253TIP3    H237251   2.746   3.936   5.681  1.7333 -0.7777 -0.8384
 5254TIP3   OH237252   6.657   3.712  12.790  0.3850  0.4274 -0.0951
 5254TIP3    H137253   6.678   3.658  12.713  0.9892  1.7883 -0.9273
 5254TIP3    H237254   6.734   3.705  12.846 -0.3378 -1.1348  0.7671
 5255TIP3   OH237255   2.642   4.693   6.289 -0.3434 -0.4779 -0.1012
 5255TIP3    H137256   2.624   4.767   6.231  3.8020 -0.0300 -1.1484
 5255TIP3    H237257   2.610   4.617   6.240 -1.5168  0.2908 -0.5880
 5256TIP3   OH237258   1.308   6.705   5.184 -0.3605 -0.0495  0.2393
 5256TIP3    H137259   1.313   6.800   5.186  0.7384  0.0022 -1.7502
 5256TIP3    H237260   1.268   6.680   5.267  1.0830  2.0174  1.6273
 5257TIP3   OH237261   1.000   6.754  14.831 -0.1647  0.9195  0.4819
 5257TIP3    H137262   1.075   6.714  14.786 -0.2408 -1.0254  1.9450
 5257TIP3    H237263   0.924   6.713  14.789 -0.4242  2.2680 -0.4295
 5258TIP3   OH237264   2.152   4.556   3.515 -0.0117  0.1612  0.0469
 5258TIP3    H137265   2.213   4.505   3.461 -0.6148  0.9411 -1.4196
 5258TIP3    H237266   2.095   4.599   3.452 -0.7058  1.1674  1.3285
 5259TIP3   OH237267   6.517   6.373   3.391 -0.5461 -0.2330  0.4540
 5259TIP3    H137268   6.467   6.310   3.443 -0.1927 -1.0745 -0.1943
 5259TIP3    H237269   6.597   6.387   3.442 -0.8497  0.1076  0.8515
 5260TIP3   OH237270   3.360   6.675   2.032  0.0176 -0.3341 -0.4605
 5260TIP3    H137271   3.283   6.618   2.038 -0.0355 -0.5716 -2.6065
 5260TIP3    H237272   3.331   6.758   2.071 -0.4621 -1.2069  1.1155
 5261TIP3   OH237273   2.612   0.934  11.053 -0.4183  0.3287  0.5372
 5261TIP3    H137274   2.535   0.968  11.008  0.6851 -0.2334 -1.9174
 5261TIP3    H237275   2.653   1.011  11.093 -0.8015  1.0591 -0.4546
 5262TIP3   OH237276   1.860   2.893   1.575  0.1063 -0.2052  0.6179
 5262TIP3    H137277   1.774   2.934   1.565  0.3691  0.0170 -0.9059
 5262TIP3    H237278   1.847   2.801   1.552  0.2135 -0.2513  0.7328
 5263TIP3   OH237279   2.864   6.495  12.173  0.3147  0.1197  0.6244
 5263TIP3    H137280   2.844   6.470  12.083  1.4221  0.1847  0.3456
 5263TIP3    H237281   2.818   6.578  12.187  0.2917  0.2017  0.0576
 5264TIP3   OH237282   1.298   2.797  14.606  0.2699  0.3046  0.5695
 5264TIP3    H137283   1.312   2.724  14.667  1.6622 -1.0853 -1.2844
 5264TIP3    H237284   1.253   2.757  14.532 -1.4420  1.9640  0.6427
 5265TIP3   OH237285   3.559   2.655  13.767  0.2156  0.4377 -0.2817
 5265TIP3    H137286   3.549   2.675  13.860  0.1218  0.0213 -0.1985
 5265TIP3    H237287   3.530   2.735  13.722  1.1853  0.9908  0.0618
 5266TIP3   OH237288   3.090   0.544   4.279  0.2740 -0.1459  0.4023
 5266TIP3    H137289   3.092   0.449   4.268 -1.2175  0.0362 -1.9977
 5266TIP3    H237290   3.149   0.577   4.211 -0.7746  0.7096 -0.1115
 5267TIP3   OH237291   6.284   3.106   4.023 -0.7823 -0.0795 -0.2380
 5267TIP3    H137292   6.195   3.106   4.059 -1.4497 -0.1105 -1.7976
 5267TIP3    H237293   6.277   3.157   3.942  0.8934  0.9312  0.2034
 5268TIP3   OH237294   1.502   6.184  16.208 -0.3903 -0.0174 -0.3343
 5268TIP3    H137295   1.577   6.173  16.267 -1.2306  0.9331  0.9546
 5268TIP3    H237296   1.531   6.145  16.126  1.7813  0.9406 -0.0893
 5269TIP3   OH237297   3.094   1.513  14.924 -0.0046  0.2795  0.2859
 5269TIP3    H137298   3.025   1.483  14.984 -0.4955  1.4178  0.3111
 5269TIP3    H237299   3.061   1.492  14.837 -0.3862  0.8170  0.2985
 5270TIP3   OH237300   1.128   5.221   1.662 -0.2781  0.2387 -0.0582
 5270TIP3    H137301   1.046   5.225   1.712 -0.4183 -2.0455  0.0067
 5270TIP3    H237302   1.196   5.210   1.728  0.1459  2.2840 -0.1025
 5271TIP3   OH237303   0.699   3.903  14.459 -1.1978  0.1774 -0.5715
 5271TIP3    H137304   0.789   3.887  14.485 -1.5697 -1.8599 -0.3502
 5271TIP3    H237305   0.661   3.952  14.531 -0.4618  0.3884 -0.3235
 5272TIP3   OH237306   6.806   1.733  10.640 -0.4305 -0.2102  0.7014
 5272TIP3    H137307   6.809   1.681  10.560  1.1587 -0.7730  1.0887
 5272TIP3    H237308   6.798   1.823  10.610  0.7058 -0.3690 -0.1298
 5273TIP3   OH237309   0.948   5.483   1.782  0.9085  0.0972  0.4740
 5273TIP3    H137310   1.043   5.500   1.784  0.7925  1.0841 -0.8791
 5273TIP3    H237311   0.909   5.568   1.800  0.3048  0.2224 -1.2052
 5274TIP3   OH237312   0.097   1.173   6.702 -0.5618  0.8029 -0.5630
 5274TIP3    H137313   0.024   1.143   6.649 -0.3762  0.3885 -0.5904
 5274TIP3    H237314   0.146   1.093   6.723 -1.5922  0.6787  1.6882
 5275TIP3   OH237315   4.613   6.657  12.533  0.6086  0.0260  0.8264
 5275TIP3    H137316   4.655   6.614  12.459  0.6665  1.2683  0.0911
 5275TIP3    H237317   4.648   6.613  12.611 -0.6265 -2.3632  0.1188
 5276TIP3   OH237318   4.726   3.401   2.234 -1.0248  0.8978  0.1979
 5276TIP3    H137319   4.645   3.350   2.235 -0.3970 -0.1310 -0.0817
 5276TIP3    H237320   4.700   3.487   2.199 -2.0728  0.7383  0.5638
 5277TIP3   OH237321   5.675   0.294   3.879  0.4316 -0.7215  0.0497
 5277TIP3    H137322   5.750   0.351   3.896 -0.5521  0.9924 -0.9307
 5277TIP3    H237323   5.711   0.219   3.833  1.4233  0.7746 -1.7728
 5278TIP3   OH237324   0.775   6.082   2.103  0.7780  0.2036 -0.2141
 5278TIP3    H137325   0.842   6.056   2.166 -0.1110 -1.8073 -0.0311
 5278TIP3    H237326   0.750   6.001   2.060 -1.0997  1.0104 -0.7167
 5279TIP3   OH237327   3.272   1.639   2.586  0.2518  0.5970 -0.3050
 5279TIP3    H137328   3.288   1.630   2.680  0.5607  2.5969 -0.1137
 5279TIP3    H237329   3.359   1.629   2.546  0.1721  0.0639 -0.3400
 5280TIP3   OH237330   3.445   1.736   1.615  0.1825 -0.0841 -0.5926
 5280TIP3    H137331   3.378   1.684   1.570  1.1873 -1.4504 -0.5844
 5280TIP3    H237332   3.415   1.826   1.606 -1.7432 -0.6539 -0.4479
 5281TIP3   OH237333   4.479   2.072   0.469 -0.3976 -0.2667 -0.2953
 5281TIP3    H137334   4.402   2.067   0.526  1.0067 -3.1956  1.5947
 5281TIP3    H237335   4.463   2.006   0.402  0.7215 -1.4311  0.5473
 5282TIP3   OH237336   1.372   5.521  11.980 -0.0816 -0.6292 -0.1600
 5282TIP3    H137337   1.298   5.464  11.959  1.2549 -1.8184 -2.0248
 5282TIP3    H237338   1.337   5.609  11.970 -1.2933 -1.1590 -0.8749
 5283TIP3   OH237339   1.836   2.784   0.857 -0.0376 -0.1952 -0.2807
 5283TIP3    H137340   1.763   2.729   0.885  0.3167 -0.9527 -0.8285
 5283TIP3    H237341   1.800   2.838   0.787 -0.1096 -0.4604 -0.4477
 5284TIP3   OH237342   2.641   0.588   0.615 -0.1598  0.2791 -0.0791
 5284TIP3    H137343   2.701   0.649   0.572 -0.2733  1.4389  1.3514
 5284TIP3    H237344   2.667   0.589   0.707 -1.7050  0.0186  0.3952
 5285TIP3   OH237345   0.899   5.622   6.672 -0.1249  0.1487 -0.0754
 5285TIP3    H137346   0.835   5.658   6.733 -1.9185 -0.8827 -1.2526
 5285TIP3    H237347   0.983   5.631   6.717 -1.3045 -0.2610  2.3911
 5286TIP3   OH237348   4.154   2.814  11.697 -0.2182 -0.0491 -0.0125
 5286TIP3    H137349   4.132   2.887  11.640 -0.4886 -0.5650 -0.5753
 5286TIP3    H237350   4.077   2.758  11.696  1.0480 -1.9155 -2.0814
 5287TIP3   OH237351   6.532   3.125  10.452 -0.0130  0.5691 -0.0315
 5287TIP3    H137352   6.603   3.063  10.436 -1.2569 -0.2700 -3.0845
 5287TIP3    H237353   6.575   3.205  10.482  2.1103 -0.1566 -0.9719
 5288TIP3   OH237354   5.707   6.625   0.589 -0.2704 -0.0617 -0.0078
 5288TIP3    H137355   5.763   6.642   0.665  1.4871 -0.5641 -1.1270
 5288TIP3    H237356   5.699   6.529   0.585 -0.8811 -0.0130 -0.1018
 5289TIP3   OH237357   3.737   5.249  16.319 -0.2949  1.0777 -0.7313
 5289TIP3    H137358   3.706   5.215  16.235 -0.1737 -0.9700  0.0002
 5289TIP3    H237359   3.669   5.311  16.346 -0.8717  0.9600 -1.8440
 5290TIP3   OH237360   3.860   4.424  15.684 -0.0471  0.3229  0.1834
 5290TIP3    H137361   3.859   4.391  15.594 -1.6434 -0.0715  0.3243
 5290TIP3    H237362   3.815   4.357  15.735 -2.0378  1.9860  0.7369
 5291TIP3   OH237363   1.857   4.683   5.568  0.2461  0.2727  0.0892
 5291TIP3    H137364   1.936   4.708   5.520  0.9338 -0.3335  0.8898
 5291TIP3    H237365   1.878   4.700   5.660 -1.0821  1.4939  0.1996
 5292TIP3   OH237366   4.445   3.808  15.151 -0.0593  0.2585 -0.1880
 5292TIP3    H137367   4.501   3.877  15.186  0.7511 -1.5280  2.3912
 5292TIP3    H237368   4.491   3.776  15.074 -0.0777  2.0347 -0.9736
 5293TIP3   OH237369   0.943   3.954  13.378  0.3668 -0.1206  0.8470
 5293TIP3    H137370   0.910   4.031  13.425  0.7244 -0.1977  1.2281
 5293TIP3    H237371   0.896   3.881  13.418 -0.1679 -0.0827  0.3070
 5294TIP3   OH237372   3.501   5.108   3.829  0.3308  0.0606  0.3068
 5294TIP3    H137373   3.516   5.034   3.889  1.3851 -0.3560 -0.4498
 5294TIP3    H237374   3.416   5.143   3.857  0.7512 -0.1570  1.9951
 5295TIP3   OH237375   6.322   5.532   1.524  0.5713  0.0268 -0.0415
 5295TIP3    H137376   6.260   5.475   1.569  0.8588 -0.5461 -0.3648
 5295TIP3    H237377   6.277   5.617   1.519  0.7678  0.2722  1.8487
 5296TIP3   OH237378   6.209   4.957  14.301  0.0842 -0.0382 -0.3480
 5296TIP3    H137379   6.122   4.941  14.337 -0.3809 -0.1647 -1.4913
 5296TIP3    H237380   6.243   4.869  14.281  0.2133  0.0484 -0.5089
 5297TIP3   OH237381   2.757   3.858   3.270 -0.1973 -0.1823  0.0049
 5297TIP3    H137382   2.734   3.910   3.194 -0.5340 -2.1852 -1.3423
 5297TIP3    H237383   2.749   3.919   3.344  3.0681  2.6974 -1.7199
 5298TIP3   OH237384   2.421   5.016  11.778 -0.0116 -0.0756  0.2117
 5298TIP3    H137385   2.366   5.092  11.758 -1.4625 -1.0157  0.5075
 5298TIP3    H237386   2.426   4.968  11.695 -2.5285 -1.7579  0.9134
 5299TIP3   OH237387   6.108   3.725  16.875 -0.6127 -0.1115 -0.9100
 5299TIP3    H137388   6.145   3.771  16.799  1.7534  0.4239  0.4560
 5299TIP3    H237389   6.148   3.638  16.871 -0.1241  0.0698 -0.0525
 5300TIP3   OH237390   5.353   1.890  13.690  0.1853 -0.1341 -0.7446
 5300TIP3    H137391   5.331   1.802  13.722  0.1000 -0.5269 -1.8662
 5300TIP3    H237392   5.297   1.903  13.614  0.6300  0.6650 -0.9448
 5301TIP3   OH237393   0.177   1.280  14.939 -0.0937  0.3010  0.1756
 5301TIP3    H137394   0.110   1.284  15.007  0.6169  0.4695  0.8742
 5301TIP3    H237395   0.130   1.248  14.861 -0.9090  0.0965  0.7395
 5302TIP3   OH237396   1.111   1.829   2.084  0.4774 -0.6271 -0.2371
 5302TIP3    H137397   1.206   1.841   2.085  0.3764  0.3124 -0.6547
 5302TIP3    H237398   1.098   1.741   2.120  1.5013 -0.7876 -0.2081
 5303TIP3   OH237399   3.122   2.939  14.949 -0.9182 -0.4474 -0.0654
 5303TIP3    H137400   3.174   2.874  14.996 -0.3941 -1.0596 -1.4485
 5303TIP3    H237401   3.033   2.929  14.984 -0.4031 -0.3474  1.3247
 5304TIP3   OH237402   4.937   4.090  11.843 -0.2621 -0.0497  0.0786
 5304TIP3    H137403   4.925   4.184  11.826 -0.1270  0.8300  3.9207
 5304TIP3    H237404   5.009   4.064  11.786 -0.7326  1.9828 -1.5684
 5305TIP3   OH237405   1.787   6.786  15.464  0.1473  0.0534  0.0547
 5305TIP3    H137406   1.836   6.733  15.527 -0.7663 -1.0081 -0.0910
 5305TIP3    H237407   1.799   6.876  15.494  0.9437 -0.3094  0.8792
 5306TIP3   OH237408   1.352   6.089  12.238 -0.1710 -0.3549  0.0257
 5306TIP3    H137409   1.407   6.125  12.307  2.4998 -2.1045 -1.0208
 5306TIP3    H237410   1.353   6.156  12.169  0.5945 -0.3268  0.0593
 5307TIP3   OH237411   4.802   2.078  13.401  0.3502 -0.5068 -1.1467
 5307TIP3    H137412   4.853   2.052  13.477  0.4334  2.0682 -0.2057
 5307TIP3    H237413   4.864   2.076  13.328  1.6179  1.4988 -0.2233
 5308TIP3   OH237414   2.940   2.848   3.949 -0.1317 -0.6414 -0.4422
 5308TIP3    H137415   2.938   2.753   3.960  0.9000 -0.6173  0.1204
 5308TIP3    H237416   3.027   2.867   3.914  0.7075  0.2902  1.9137
 5309TIP3   OH237417   0.201   0.322   3.242 -0.4700 -0.0153  0.4486
 5309TIP3    H137418   0.188   0.230   3.216 -1.2978  0.2512 -0.1264
 5309TIP3    H237419   0.128   0.340   3.301 -0.1710  0.2026  0.7468
 5310TIP3   OH237420   5.484   6.367  11.768  0.1756 -0.4337  0.2231
 5310TIP3    H137421   5.408   6.412  11.805  1.0566  0.7570  0.6525
 5310TIP3    H237422   5.501   6.295  11.829  0.7786  0.6893  1.4249
 5311TIP3   OH237423   4.247   1.337   2.930 -0.4433 -0.1870  0.4753
 5311TIP3    H137424   4.195   1.303   3.003 -1.2565  1.6208  0.7975
 5311TIP3    H237425   4.262   1.261   2.874 -1.5387 -1.2134  1.5125
 5312TIP3   OH237426   3.712   5.137   5.959 -0.0026  0.0958 -0.4186
 5312TIP3    H137427   3.628   5.098   5.980 -0.2294  0.1262 -1.2275
 5312TIP3    H237428   3.719   5.213   6.017  0.0931 -0.6807  0.6093
 5313TIP3   OH237429   5.632   6.548   2.308  0.2188  0.6404 -0.1678
 5313TIP3    H137430   5.697   6.496   2.262  0.6450 -0.4240  1.5639
 5313TIP3    H237431   5.553   6.543   2.254  0.7706 -0.3547 -0.8926
 5314TIP3   OH237432   5.803   3.828   5.414  0.8224  0.6473  0.7669
 5314TIP3    H137433   5.868   3.810   5.482  0.2083  2.3059  1.8556
 5314TIP3    H237434   5.808   3.923   5.401 -0.9277  0.7179  0.4111
 5315TIP3   OH237435   6.630   3.752   3.265  0.0613 -0.4186  0.4740
 5315TIP3    H137436   6.636   3.840   3.302  0.8011 -0.4711  0.4982
 5315TIP3    H237437   6.635   3.766   3.170 -0.6040 -0.3797  0.4394
 5316TIP3   OH237438   1.223   0.693   0.630 -0.1689  0.3977 -0.4648
 5316TIP3    H137439   1.146   0.683   0.686 -0.9836 -2.5617 -1.8912
 5316TIP3    H237440   1.250   0.784   0.641 -3.1148  1.1921  1.0338
 5317TIP3   OH237441   6.648   6.109  10.781  0.1434 -0.4270  0.1045
 5317TIP3    H137442   6.713   6.112  10.710  0.2100 -0.2081  0.1710
 5317TIP3    H237443   6.692   6.062  10.852 -0.3137 -1.5992 -0.3777
 5318TIP3   OH237444   3.854   1.688   5.494 -0.3511 -0.2983  0.2934
 5318TIP3    H137445   3.879   1.662   5.405 -0.1765 -2.2721  0.8734
 5318TIP3    H237446   3.759   1.680   5.495 -0.2947 -1.0018  0.4816
 5319TIP3   OH237447   0.069   4.609  11.886  0.4201  0.6827 -0.4222
 5319TIP3    H137448   0.056   4.651  11.801  0.6415 -2.4863 -2.1771
 5319TIP3    H237449   0.160   4.626  11.908  0.1712  2.1382 -0.3991
 5320TIP3   OH237450   4.249   2.519  15.979 -0.6277 -0.4900  0.0790
 5320TIP3    H137451   4.344   2.506  15.980 -0.4168  0.8622 -0.1618
 5320TIP3    H237452   4.213   2.430  15.983  0.6446 -1.0776 -0.6672
 5321TIP3   OH237453   1.129   4.663  14.320  0.5284 -0.1925  0.3976
 5321TIP3    H137454   1.160   4.708  14.241  0.3069  0.3792  0.6315
 5321TIP3    H237455   1.183   4.698  14.391  0.4947 -0.4523  0.5542
 5322TIP3   OH237456   0.263   5.035   1.043  0.2255 -0.2770 -0.1902
 5322TIP3    H137457   0.236   5.106   0.985 -0.4912 -0.3231  0.0813
 5322TIP3    H237458   0.195   5.030   1.109  1.8469  0.8943  1.6699
 5323TIP3   OH237459   1.901   2.883  15.563  0.0382 -0.4648  0.3095
 5323TIP3    H137460   1.876   2.856  15.651 -1.0154  0.5996  0.3565
 5323TIP3    H237461   1.922   2.976  15.572 -1.5600  0.0336 -0.8371
 5324TIP3   OH237462   3.418   0.567  14.655  0.0119  0.4392 -0.5989
 5324TIP3    H137463   3.504   0.531  14.633 -0.3332  0.0008 -1.2928
 5324TIP3    H237464   3.371   0.569  14.571 -1.2087 -0.8605 -0.0046
 5325TIP3   OH237465   0.750   0.051  17.072  0.2486  0.0955 -0.5343
 5325TIP3    H137466   0.824   0.102  17.107 -0.4790  0.3057  0.7682
 5325TIP3    H237467   0.679   0.115  17.065 -1.1090 -0.8774  2.4550
 5326TIP3   OH237468   2.952   1.252  16.097  0.2747  0.6253  0.2699
 5326TIP3    H137469   2.990   1.219  16.178  1.1869 -1.1551 -0.8141
 5326TIP3    H237470   3.027   1.265  16.039 -0.4646  0.6539 -0.7039
 5327TIP3   OH237471   5.932   0.971   1.385 -0.4467 -0.7160  0.3018
 5327TIP3    H137472   5.993   0.898   1.381  0.8106  0.3048 -0.0926
 5327TIP3    H237473   5.946   1.009   1.472 -1.3769 -1.1545  0.6584
 5328TIP3   OH237474   0.461   1.020  13.752 -0.7986 -0.1272  0.3198
 5328TIP3    H137475   0.538   1.034  13.807  1.0736  1.8467 -2.5513
 5328TIP3    H237476   0.479   0.937  13.707 -0.1733  0.4832 -0.5723
 5329TIP3   OH237477   4.783   1.741  13.269  0.1785  0.1170 -0.0704
 5329TIP3    H137478   4.741   1.779  13.191 -1.0993  0.6694  0.8479
 5329TIP3    H237479   4.757   1.648  13.266 -2.0265  0.6234  0.9741
 5330TIP3   OH237480   0.615   5.757  14.273  0.3883  0.8689 -0.2814
 5330TIP3    H137481   0.617   5.847  14.306 -0.3798  0.8401 -0.1344
 5330TIP3    H237482   0.706   5.726  14.281  0.8055  1.8669 -1.0195
 5331TIP3   OH237483   2.067   0.664   6.283  0.6480  0.1670  0.3648
 5331TIP3    H137484   2.110   0.631   6.362 -0.3362  1.4972  1.4999
 5331TIP3    H237485   2.026   0.746   6.310 -4.5688 -1.9602  0.0595
 5332TIP3   OH237486   4.759   4.359  15.007 -0.2447  1.2301  0.1382
 5332TIP3    H137487   4.699   4.287  15.025  2.5302 -0.9078  1.5939
 5332TIP3    H237488   4.738   4.385  14.917 -1.8608 -0.9158 -0.1924
 5333TIP3   OH237489   5.673   4.455  14.558  0.2843  0.1832  0.2554
 5333TIP3    H137490   5.622   4.523  14.601  1.1789  2.2056 -1.7124
 5333TIP3    H237491   5.615   4.423  14.488 -0.6226 -2.0923  1.9081
 5334TIP3   OH237492   5.513   1.010  16.924 -0.3791  0.0688  0.3312
 5334TIP3    H137493   5.475   1.078  16.869 -0.5664 -1.4708 -1.5349
 5334TIP3    H237494   5.608   1.022  16.917 -0.4154  0.2298  0.1311
 5335TIP3   OH237495   3.574   0.344  11.878 -0.3688  0.2883 -0.5635
 5335TIP3    H137496   3.643   0.278  11.871  0.5748  1.0357  1.0301
 5335TIP3    H237497   3.601   0.413  11.817  1.1171  1.2209  1.0690
 5336TIP3   OH237498   1.826   1.697  13.632 -0.1133 -0.6414 -0.1859
 5336TIP3    H137499   1.847   1.648  13.711 -1.0254 -0.5315  0.1318
 5336TIP3    H237500   1.878   1.655  13.564  2.5116  0.7293  0.8567
 5337TIP3   OH237501   5.347   4.152   4.795  0.3525  0.2768 -0.1551
 5337TIP3    H137502   5.358   4.228   4.853 -0.5337 -0.1110  0.5489
 5337TIP3    H237503   5.326   4.191   4.709  2.2073  0.8680 -0.3879
 5338TIP3   OH237504   4.595   6.130   2.944  0.2217 -0.0218 -0.4487
 5338TIP3    H137505   4.585   6.189   3.018 -1.3918 -1.0602  0.2093
 5338TIP3    H237506   4.626   6.048   2.982 -1.1390 -0.7345 -0.8205
 5339TIP3   OH237507   2.275   2.931  13.887  0.0828  0.0022 -0.1151
 5339TIP3    H137508   2.233   2.875  13.953  0.8456  1.3316  1.5637
 5339TIP3    H237509   2.204   2.988  13.857  0.0938  0.5712  0.8813
 5340TIP3   OH237510   3.749   3.690  15.298 -0.7572  0.0817 -0.0435
 5340TIP3    H137511   3.703   3.613  15.265 -2.1022  1.2376 -0.9894
 5340TIP3    H237512   3.692   3.764  15.274  1.0684  1.4849 -0.2446
 5341TIP3   OH237513   2.328   5.811   0.291 -0.5020 -0.1936  0.4093
 5341TIP3    H137514   2.291   5.889   0.249  1.9946  0.7777 -0.1423
 5341TIP3    H237515   2.325   5.744   0.222  2.4834  1.0684 -1.1373
 5342TIP3   OH237516   5.309   1.802   3.132 -0.1029 -0.2411  0.2053
 5342TIP3    H137517   5.262   1.886   3.142 -0.4220 -0.4819  0.8174
 5342TIP3    H237518   5.386   1.824   3.081 -0.9757  0.1357 -0.9953
 5343TIP3   OH237519   5.590   0.802  16.643  0.0374  0.2824 -0.0005
 5343TIP3    H137520   5.510   0.750  16.649 -0.4746  0.4942 -3.1356
 5343TIP3    H237521   5.658   0.745  16.680 -1.2111 -0.7959  0.7235
 5344TIP3   OH237522   3.527   1.393   4.056 -0.4312  0.5794  0.8546
 5344TIP3    H137523   3.475   1.322   4.020  0.7882 -1.2982  2.5894
 5344TIP3    H237524   3.465   1.465   4.068 -1.5989  0.0442 -1.3715
 5345TIP3   OH237525   3.908   2.462   0.029 -0.4335 -0.1751  0.1601
 5345TIP3    H137526   3.897   2.540   0.083  0.6958 -1.1685  1.9287
 5345TIP3    H237527   3.849   2.397   0.068 -0.7664 -0.4710 -0.7955
 5346TIP3   OH237528   2.940   5.646  16.070 -0.0458 -0.3153  0.0673
 5346TIP3    H137529   2.851   5.666  16.099 -0.7928 -1.1752 -1.5171
 5346TIP3    H237530   2.981   5.732  16.058 -1.3236  0.1734 -1.0972
 5347TIP3   OH237531   0.097   2.531  13.389  0.1411 -0.5527  0.2250
 5347TIP3    H137532   0.185   2.527  13.424 -0.3589 -0.1583  1.6091
 5347TIP3    H237533   0.056   2.449  13.417 -0.7345  0.4157  2.0259
 5348TIP3   OH237534   0.256   0.410  11.875  0.0541 -0.0352 -0.1395
 5348TIP3    H137535   0.239   0.351  11.802  1.0497 -0.7659  0.1837
 5348TIP3    H237536   0.172   0.416  11.921 -0.3468 -0.2949 -0.8161
 5349TIP3   OH237537   1.128   0.751   3.547  0.1647  0.2867  0.0365
 5349TIP3    H137538   1.060   0.760   3.614  1.5034 -1.4079  1.7421
 5349TIP3    H237539   1.092   0.686   3.485 -0.5495  0.8952 -0.2052
 5350TIP3   OH237540   3.780   6.148   5.964  0.2657  0.2017 -0.0240
 5350TIP3    H137541   3.810   6.176   5.878  0.1620 -2.0653 -0.8505
 5350TIP3    H237542   3.859   6.118   6.009 -0.0521 -1.3602 -0.4555
 5351TIP3   OH237543   5.552   1.689   1.781  0.4187 -0.7070 -0.0796
 5351TIP3    H137544   5.566   1.626   1.853  0.2991 -1.9124 -1.0813
 5351TIP3    H237545   5.639   1.723   1.761  0.3376  0.3758  1.2564
 5352TIP3   OH237546   2.891   4.589  10.609 -0.2716  0.8929  0.3050
 5352TIP3    H137547   2.974   4.595  10.562  0.0755  0.5089  0.8604
 5352TIP3    H237548   2.909   4.531  10.683 -0.6864  1.8849  1.2047
 5353TIP3   OH237549   2.236   0.595   0.072  0.3961  0.3449  0.2371
 5353TIP3    H137550   2.157   0.578   0.122 -0.6151  0.0013 -1.4090
 5353TIP3    H237551   2.217   0.675   0.023  1.5288  0.9245  0.7049
 5354TIP3   OH237552   2.757   4.737   0.905  0.3638  0.3119  0.0755
 5354TIP3    H137553   2.728   4.692   0.984  1.4488  0.4485  0.5793
 5354TIP3    H237554   2.845   4.768   0.926  0.4295  0.9049 -0.9701
 5355TIP3   OH237555   5.887   4.095  15.162  0.5113 -0.1683  0.1015
 5355TIP3    H137556   5.843   4.015  15.192 -0.4778  0.0797 -0.6167
 5355TIP3    H237557   5.817   4.161  15.163  0.7717  0.1502 -1.4449
 5356TIP3   OH237558   0.101   0.357   1.389  0.4666 -0.1970  0.1379
 5356TIP3    H137559   0.069   0.306   1.314 -2.0629  0.8143  0.4379
 5356TIP3    H237560   0.083   0.302   1.465  1.9856 -0.7322  0.1578
 5357TIP3   OH237561   2.128   3.297   1.271 -0.4014  0.1806 -0.0371
 5357TIP3    H137562   2.213   3.318   1.309  0.1237 -1.1119 -0.4581
 5357TIP3    H237563   2.126   3.202   1.266 -1.2489  0.2458 -1.4642
 5358TIP3   OH237564   3.691   4.544   4.008 -0.1237  0.0792 -0.6215
 5358TIP3    H137565   3.643   4.554   4.090  0.9783  2.9212 -0.1847
 5358TIP3    H237566   3.681   4.452   3.985  0.0505 -1.0198  3.0327
 5359TIP3   OH237567   2.354   3.044  12.527  0.0158 -0.3806 -0.1758
 5359TIP3    H137568   2.374   2.969  12.470 -0.8243  0.5376 -1.7539
 5359TIP3    H237569   2.278   3.085  12.486  0.2988  1.1951  0.8050
 5360TIP3   OH237570   4.563   3.528   0.313  0.1027 -0.2126 -0.3644
 5360TIP3    H137571   4.496   3.593   0.294 -0.6585 -1.6389 -3.0563
 5360TIP3    H237572   4.558   3.515   0.408 -2.0276  1.1493 -0.2276
 5361TIP3   OH237573   3.321   3.552  12.787  0.2497 -0.1351  1.0454
 5361TIP3    H137574   3.410   3.572  12.757 -0.6713  1.4355 -0.8717
 5361TIP3    H237575   3.317   3.585  12.876  1.7800 -0.9038  1.4357
 5362TIP3   OH237576   6.502   3.432   6.143  0.6626 -0.5869 -0.1109
 5362TIP3    H137577   6.470   3.480   6.220  0.3499 -0.3321 -0.3953
 5362TIP3    H237578   6.454   3.349   6.145 -2.6923  1.0372 -2.3603
 5363TIP3   OH237579   1.278   6.277   2.978 -0.4122  0.2580  0.1817
 5363TIP3    H137580   1.235   6.255   2.895  1.2500  1.2366 -0.9957
 5363TIP3    H237581   1.222   6.345   3.017 -0.0597  1.4404 -1.2735
 5364TIP3   OH237582   2.159   6.408  14.472 -0.1907  0.2274  0.2251
 5364TIP3    H137583   2.158   6.427  14.378  0.6720 -1.6147 -0.2055
 5364TIP3    H237584   2.244   6.368  14.487  0.0151  1.2426  1.9896
 5365TIP3   OH237585   6.807   3.205   2.376 -0.5102  0.0945  0.0619
 5365TIP3    H137586   6.721   3.246   2.363 -0.0646  0.5570 -1.8550
 5365TIP3    H237587   6.788   3.117   2.407 -1.7138  0.0919 -0.6181
 5366TIP3   OH237588   1.736   2.781   3.261  0.5111 -0.6811  0.3371
 5366TIP3    H137589   1.652   2.818   3.235  0.1086 -3.1177 -2.3180
 5366TIP3    H237590   1.719   2.739   3.345 -0.7050 -0.4683  0.2073
 5367TIP3   OH237591   1.301   0.321  11.784 -0.6169  0.2539 -0.2017
 5367TIP3    H137592   1.372   0.260  11.806 -0.1899  0.3161 -1.3474
 5367TIP3    H237593   1.324   0.402  11.830  0.6397  0.6105 -1.3923
 5368TIP3   OH237594   0.905   3.672  11.076  0.1141 -0.1373  0.2112
 5368TIP3    H137595   0.907   3.678  10.981  1.8631  1.6697  0.3088
 5368TIP3    H237596   0.918   3.762  11.106 -0.6266 -0.6373  2.1806
 5369TIP3   OH237597   2.973   6.216  14.317 -0.6288 -0.6104 -0.2508
 5369TIP3    H137598   3.013   6.196  14.232  1.7169 -0.9396  0.8493
 5369TIP3    H237599   3.026   6.287  14.353 -1.7550 -0.2775  0.8435
 5370TIP3   OH237600   5.539   0.166   1.335  0.9184 -0.0997 -0.2155
 5370TIP3    H137601   5.593   0.202   1.265  0.3809  1.2914  0.0432
 5370TIP3    H237602   5.491   0.242   1.369  1.4619 -0.6579  1.9247
 5371TIP3   OH237603   0.314   0.943  14.742  0.1250 -0.3038 -0.0366
 5371TIP3    H137604   0.330   0.910  14.654  2.4910 -0.0784  0.2492
 5371TIP3    H237605   0.340   1.035  14.738  1.4186 -0.5849  1.1538
 5372TIP3   OH237606   6.489   0.434   5.073 -0.3070  0.4041 -0.1536
 5372TIP3    H137607   6.515   0.386   4.994  1.1597 -0.2880  0.7038
 5372TIP3    H237608   6.397   0.456   5.059  0.5371  2.5789 -3.1931
 5373TIP3   OH237609   6.232   0.304   3.798  0.4229 -0.0716 -0.0330
 5373TIP3    H137610   6.297   0.233   3.792 -1.5436 -1.9741  0.1581
 5373TIP3    H237611   6.267   0.362   3.865  3.7555  1.0599 -2.4627
 5374TIP3   OH237612   1.969   6.460   5.897  0.3927  0.6853  0.8868
 5374TIP3    H137613   2.015   6.450   5.981  0.4635  3.0217  1.1847
 5374TIP3    H237614   1.883   6.423   5.913  0.1302  1.8083  2.2896
 5375TIP3   OH237615   5.895   3.225   0.393  0.0123 -0.2807 -0.7274
 5375TIP3    H137616   5.878   3.132   0.375 -0.1627 -0.1398 -1.2999
 5375TIP3    H237617   5.844   3.244   0.471  0.0879 -0.6784 -0.5754
 5376TIP3   OH237618   3.069   4.249  14.180  0.4705  0.5521  0.1678
 5376TIP3    H137619   3.093   4.157  14.175 -1.4797 -0.0138  0.2435
 5376TIP3    H237620   3.049   4.273  14.089  0.9236  0.8797  0.1561
 5377TIP3   OH237621   3.961   6.815   0.853  0.1592  0.0811 -0.3901
 5377TIP3    H137622   4.019   6.774   0.916 -0.6246 -1.0095 -0.3584
 5377TIP3    H237623   3.981   6.909   0.860 -0.0461  0.0192  1.6185
 5378TIP3   OH237624   1.993   0.429   2.844 -0.0186 -0.5015  0.3237
 5378TIP3    H137625   2.051   0.475   2.784  1.6040 -0.3852  1.8806
 5378TIP3    H237626   2.031   0.341   2.851 -0.7802 -0.8312  0.4041
 5379TIP3   OH237627   0.199   5.411  17.053  0.2983 -0.7465 -0.4407
 5379TIP3    H137628   0.228   5.341  16.994  1.4346 -0.2408 -0.5084
 5379TIP3    H237629   0.245   5.489  17.022 -1.4185  0.2015 -0.7652
 5380TIP3   OH237630   3.743   2.030  11.248  0.5080 -0.3061  0.1366
 5380TIP3    H137631   3.666   2.081  11.275  0.2553  0.6118 -2.1112
 5380TIP3    H237632   3.767   1.980  11.326 -0.7511  1.3896  1.6913
 5381TIP3   OH237633   6.246   2.219  12.932 -0.2122  0.5863 -0.0305
 5381TIP3    H137634   6.200   2.163  12.869 -0.2850 -1.9134  2.0363
 5381TIP3    H237635   6.183   2.288  12.953 -1.2128 -0.0875 -0.6987
 5382TIP3   OH237636   3.355   3.951  13.300  0.4260  0.0355  0.4832
 5382TIP3    H137637   3.323   4.039  13.282  2.4324  0.9368  0.9970
 5382TIP3    H237638   3.290   3.914  13.360  0.1723  1.6499  1.2684
 5383TIP3   OH237639   6.580   3.314  11.421 -0.3218  0.0852 -0.0638
 5383TIP3    H137640   6.590   3.309  11.326  0.9773 -2.1165  0.1317
 5383TIP3    H237641   6.670   3.314  11.454 -0.7387  1.4364  1.1953
 5384TIP3   OH237642   1.314   6.662  16.472 -0.2810  0.2782 -0.4657
 5384TIP3    H137643   1.325   6.574  16.437  0.8446  0.6763 -1.1714
 5384TIP3    H237644   1.360   6.718  16.410  0.0927  1.2164  0.6243
 5385TIP3   OH237645   5.146   2.821  16.276 -0.6381 -0.4451  0.1173
 5385TIP3    H137646   5.160   2.915  16.284 -0.5531 -0.3720 -0.7801
 5385TIP3    H237647   5.226   2.788  16.235 -1.4444 -0.5982 -1.4429
 5386TIP3   OH237648   1.951   1.224  15.229 -0.9624  0.1878 -0.0338
 5386TIP3    H137649   2.029   1.207  15.177  0.1494  1.1255  1.2599
 5386TIP3    H237650   1.878   1.195  15.174  0.3223 -1.3068 -1.0113
 5387TIP3   OH237651   4.397   4.221  12.540 -0.3099 -0.8877 -0.1563
 5387TIP3    H137652   4.493   4.211  12.539 -0.2223 -0.4062 -2.5290
 5387TIP3    H237653   4.381   4.299  12.487 -1.9987 -0.3941  1.0253
 5388TIP3   OH237654   4.526   3.306  13.275  0.1785 -0.1400  0.5642
 5388TIP3    H137655   4.540   3.229  13.219  1.5107  0.9319 -0.6610
 5388TIP3    H237656   4.458   3.356  13.230 -0.9725 -0.7546  1.5670
 5389TIP3   OH237657   3.872   2.637   5.471 -0.0129 -0.7290 -0.0949
 5389TIP3    H137658   3.881   2.720   5.424  0.7899 -0.0242  1.2606
 5389TIP3    H237659   3.814   2.657   5.544  0.3549 -1.3042  0.3590
 5390TIP3   OH237660   2.655   5.673  16.520 -0.1624  0.4152  0.0051
 5390TIP3    H137661   2.667   5.682  16.615 -0.4097 -0.3164  0.1077
 5390TIP3    H237662   2.561   5.661  16.509 -0.1851  0.8966 -0.3717
 5391TIP3   OH237663   5.889   5.109  11.039  0.0772 -0.3330  0.1217
 5391TIP3    H137664   5.958   5.131  11.101 -0.0805 -0.8369  0.4810
 5391TIP3    H237665   5.848   5.031  11.076 -0.6401 -0.0773 -0.1294
 5392TIP3   OH237666   0.182   3.825  14.663  0.9490 -0.4376 -0.5515
 5392TIP3    H137667   0.140   3.840  14.578 -1.0698  0.5344  0.5354
 5392TIP3    H237668   0.217   3.910  14.688  1.3275 -0.6663 -0.2967
 5393TIP3   OH237669   1.488   5.633  14.878  0.4777 -0.0272  0.0566
 5393TIP3    H137670   1.577   5.649  14.909  0.8570 -0.9027 -0.5588
 5393TIP3    H237671   1.436   5.625  14.958  0.9880  0.2684  0.4233
 5394TIP3   OH237672   4.251   2.854   4.458 -0.0503  0.2058  0.0336
 5394TIP3    H137673   4.280   2.897   4.377  0.6869 -0.5538 -0.1166
 5394TIP3    H237674   4.326   2.800   4.485 -0.6049 -0.2209  0.7554
 5395TIP3   OH237675   6.363   0.005  16.595 -0.0018 -0.4315 -0.3414
 5395TIP3    H137676   6.359   0.089  16.642  1.0975 -0.3368 -0.3959
 5395TIP3    H237677   6.354  -0.061  16.664  0.2030 -0.2761 -0.1637
 5396TIP3   OH237678   2.147   4.750  11.311  0.1950 -0.3251  0.3079
 5396TIP3    H137679   2.088   4.712  11.245 -0.7113 -0.8159  1.3680
 5396TIP3    H237680   2.101   4.829  11.341  0.7397  0.0584  0.1554
 5397TIP3   OH237681   1.858   6.617  12.677 -0.0170  0.1276  0.0672
 5397TIP3    H137682   1.865   6.708  12.649  0.3327  0.3358  0.8146
 5397TIP3    H237683   1.942   6.597  12.718 -0.0691 -0.5505 -0.1342
 5398TIP3   OH237684   3.929   5.868  15.050  0.2655  0.3439  0.2458
 5398TIP3    H137685   3.980   5.877  14.970  0.3047  0.4053  0.2779
 5398TIP3    H237686   3.970   5.795  15.096 -0.8606 -0.9008 -0.6330
 5399TIP3   OH237687   5.100   0.701  17.166  0.1162  0.2250 -0.1401
 5399TIP3    H137688   5.194   0.710  17.153  0.3735 -1.6735  0.0745
 5399TIP3    H237689   5.075   0.626  17.111 -0.9666 -0.2738  0.9599
 5400TIP3   OH237690   6.359   0.703   4.275 -0.2268 -0.3599 -0.1136
 5400TIP3    H137691   6.341   0.634   4.339 -1.3676 -0.0060 -0.0404
 5400TIP3    H237692   6.304   0.776   4.302  0.8773  0.5603 -0.2589
 5401TIP3   OH237693   1.670   4.466  15.046  0.0333 -0.3294 -0.3548
 5401TIP3    H137694   1.606   4.438  15.111 -1.2151 -0.4627 -1.6026
 5401TIP3    H237695   1.674   4.562  15.056  0.1049 -0.3843  0.1419
 5402TIP3   OH237696   4.255   6.385   0.063  0.4365 -0.0703 -0.1736
 5402TIP3    H137697   4.341   6.343   0.056 -0.5884 -2.1669 -1.2317
 5402TIP3    H237698   4.236   6.383   0.157  1.3838  0.1048  0.0373
 5403TIP3   OH237699   2.127   4.573   0.352 -0.2325 -0.0596 -0.8030
 5403TIP3    H137700   2.033   4.588   0.362 -0.0500  0.3296  0.6550
 5403TIP3    H237701   2.161   4.654   0.316 -0.6420 -0.7547 -2.8635
 5404TIP3   OH237702   3.045   3.735  16.951 -0.1121  0.1114  0.2646
 5404TIP3    H137703   3.022   3.795  17.021  1.9448  0.0562  1.0426
 5404TIP3    H237704   2.961   3.703  16.918 -1.2459  2.8263  0.2901
 5405TIP3   OH237705   1.883   0.403  11.122  0.8359  0.3080 -0.1398
 5405TIP3    H137706   1.933   0.334  11.079  1.8326  0.8829  0.0700
 5405TIP3    H237707   1.912   0.484  11.079 -0.2315  0.6187 -0.3042
 5406TIP3   OH237708   5.493   0.394  11.266  0.0952 -0.5932 -0.1211
 5406TIP3    H137709   5.462   0.382  11.175  0.5804  0.1246 -0.3864
 5406TIP3    H237710   5.413   0.398  11.318 -0.1910 -0.8847 -0.5296
 5407TIP3   OH237711   4.639   2.141   4.264  0.1594  0.2971 -0.2943
 5407TIP3    H137712   4.634   2.216   4.205  0.2711  0.8906  0.4370
 5407TIP3    H237713   4.552   2.100   4.257 -0.4621  1.4448  0.5219
 5408TIP3   OH237714   6.806   4.991  15.338 -0.2473  0.2743 -0.2734
 5408TIP3    H137715   6.731   5.049  15.334 -2.3405 -1.8532  3.1696
 5408TIP3    H237716   6.811   4.952  15.251 -2.2291  1.4889 -0.9842
 5409TIP3   OH237717   2.199   4.180  15.742  0.3024  0.4146  0.3936
 5409TIP3    H137718   2.134   4.152  15.677  1.0199 -0.4659  0.0379
 5409TIP3    H237719   2.187   4.120  15.815  0.5003  0.4477  0.4533
 5410TIP3   OH237720   3.730   3.532   1.844 -0.6517 -0.1635  0.9249
 5410TIP3    H137721   3.769   3.609   1.802 -2.0790  0.4347  0.6495
 5410TIP3    H237722   3.785   3.516   1.920  1.2445 -0.4990 -0.4309
 5411TIP3   OH237723   3.858   0.394  15.149  0.1862 -0.2346  0.1862
 5411TIP3    H137724   3.892   0.397  15.239 -1.6230  0.2773  0.9116
 5411TIP3    H237725   3.816   0.309  15.142  1.9227 -1.0529 -0.8558
 5412TIP3   OH237726   2.014   4.008  11.398  0.2781  0.2053 -0.0297
 5412TIP3    H137727   2.048   4.071  11.462  1.6156  0.0109 -0.5094
 5412TIP3    H237728   1.943   4.054  11.353 -2.4946 -0.4933  3.2550
 5413TIP3   OH237729   2.607   5.002   3.405  0.2005  0.2991 -0.0354
 5413TIP3    H137730   2.526   5.018   3.452  0.6330 -0.4064  0.9728
 5413TIP3    H237731   2.675   5.041   3.460  0.6427  0.1443 -0.4556
 5414TIP3   OH237732   1.463   2.152  16.940  0.2556  0.6490  0.2117
 5414TIP3    H137733   1.380   2.170  16.894 -0.1039  0.1070  0.6348
 5414TIP3    H237734   1.524   2.129  16.870 -0.3151 -0.2809 -0.0021
 5415TIP3   OH237735   4.781   4.284   1.800  0.1455  1.0337 -0.3037
 5415TIP3    H137736   4.842   4.224   1.755 -0.1279 -0.2401  0.9504
 5415TIP3    H237737   4.827   4.309   1.880 -0.6119  0.7413  0.2349
 5416TIP3   OH237738   5.346   6.704   6.187 -0.2259  0.5671 -0.5091
 5416TIP3    H137739   5.338   6.713   6.092  1.1554 -1.9053 -0.9417
 5416TIP3    H237740   5.315   6.788   6.222 -2.5321  0.8672 -3.0094
 5417TIP3   OH237741   2.488   2.596   3.192 -0.0056 -0.1832  0.4780
 5417TIP3    H137742   2.468   2.530   3.257 -1.8981 -1.0435 -0.8627
 5417TIP3    H237743   2.582   2.611   3.199  0.3076 -2.3463  1.4331
 5418TIP3   OH237744   6.779   5.502   0.816  0.0621 -0.2927 -0.1380
 5418TIP3    H137745   6.701   5.529   0.768 -0.6451 -1.5099  0.3063
 5418TIP3    H237746   6.755   5.508   0.908 -0.4199 -3.1410 -0.0111
 5419TIP3   OH237747   5.375   6.676   0.158  0.0519 -0.2272 -0.1781
 5419TIP3    H137748   5.421   6.670   0.241  0.1626 -1.3580 -0.3110
 5419TIP3    H237749   5.363   6.586   0.130 -0.1952  0.1319 -1.2812
 5420TIP3   OH237750   3.390   0.424   0.884  0.1773 -0.0247  0.3444
 5420TIP3    H137751   3.384   0.332   0.856 -0.4020 -0.1737  0.9558
 5420TIP3    H237752   3.300   0.454   0.887  0.3068  0.3118  0.9809
 5421TIP3   OH237753   0.262   6.326  12.682  0.3240 -0.0697  0.4070
 5421TIP3    H137754   0.263   6.270  12.604  0.2285  0.0960  0.2860
 5421TIP3    H237755   0.327   6.286  12.740 -0.3773 -0.8257  0.6910
 5422TIP3   OH237756   5.058   3.033   3.137 -0.7333 -0.6609  0.0113
 5422TIP3    H137757   5.110   3.050   3.058 -1.0304 -2.5649 -0.6523
 5422TIP3    H237758   5.094   3.092   3.203  1.4810 -1.0607 -0.7653
 5423TIP3   OH237759   1.401   1.989   6.414 -0.1273  0.1940 -0.9605
 5423TIP3    H137760   1.455   2.012   6.490 -1.1472 -2.1653  0.6031
 5423TIP3    H237761   1.434   2.044   6.343  2.7997  0.4833  0.4819
 5424TIP3   OH237762   3.483   4.986  11.089 -0.2544  0.3680  0.5904
 5424TIP3    H137763   3.396   5.006  11.054 -0.0197  0.2086 -0.1169
 5424TIP3    H237764   3.495   5.046  11.163 -1.1738  0.0240  1.0202
 5425TIP3   OH237765   3.121   0.666   3.938 -0.4228 -0.7070  0.1933
 5425TIP3    H137766   3.133   0.724   3.863  0.4932  0.2461  1.0482
 5425TIP3    H237767   3.206   0.625   3.951  0.2447  1.2223  2.3667
 5426TIP3   OH237768   0.807   3.109   3.924  0.5669  1.2399  0.1006
 5426TIP3    H137769   0.814   3.026   3.877 -0.9876  0.4235  1.2014
 5426TIP3    H237770   0.867   3.099   3.998 -1.7194 -0.2088  1.9140
 5427TIP3   OH237771   4.141   6.574   6.261  0.2509  0.0920  0.0421
 5427TIP3    H137772   4.116   6.665   6.278  1.0729  0.5222 -0.9011
 5427TIP3    H237773   4.063   6.534   6.224 -0.7228 -0.1450  2.2311
 5428TIP3   OH237774   4.942   2.505  14.393 -0.3371 -0.0613 -0.1753
 5428TIP3    H137775   4.950   2.480  14.301  2.4655  0.7637 -0.2452
 5428TIP3    H237776   4.876   2.574  14.393 -0.9900 -0.6459 -1.4184
 5429TIP3   OH237777   1.180   4.230   4.777  0.0649  0.0083 -0.0859
 5429TIP3    H137778   1.186   4.141   4.812 -0.3534  0.5274  1.4167
 5429TIP3    H237779   1.214   4.223   4.688 -0.7923 -1.8191 -0.3305
 5430TIP3   OH237780   1.131   5.622   1.499  0.5216 -0.2889 -1.0909
 5430TIP3    H137781   1.163   5.704   1.462  1.9553 -1.4426 -2.5226
 5430TIP3    H237782   1.036   5.634   1.504  0.8001  1.9921  0.1773
 5431TIP3   OH237783   3.773   0.883  14.405 -0.0104  0.4109 -0.1022
 5431TIP3    H137784   3.824   0.809  14.439  0.2432  1.4481  1.8896
 5431TIP3    H237785   3.790   0.882  14.311  0.6406 -1.5558 -0.0194
 5432TIP3   OH237786   3.450   4.351  13.766 -0.2110 -0.2170  0.3467
 5432TIP3    H137787   3.526   4.358  13.708  0.5938  1.6883  1.5439
 5432TIP3    H237788   3.375   4.346  13.706  0.7934 -2.1231 -0.8540
 5433TIP3   OH237789   2.381   1.613   3.075  0.6302 -0.4091 -0.3657
 5433TIP3    H137790   2.455   1.597   3.017  0.0251  1.0018 -1.6091
 5433TIP3    H237791   2.405   1.693   3.122  0.7963 -1.1359  0.8303
 5434TIP3   OH237792   3.635   2.010  15.406  0.5529  0.7402  0.5470
 5434TIP3    H137793   3.712   2.058  15.378  0.5183  1.0176  0.9126
 5434TIP3    H237794   3.668   1.924  15.432  0.3250 -0.2933 -2.2618
 5435TIP3   OH237795   5.408   0.833   4.895  0.1392  0.0735 -0.7727
 5435TIP3    H137796   5.478   0.859   4.954  0.5201  0.4150 -1.3610
 5435TIP3    H237797   5.336   0.893   4.915 -0.8988 -1.7976  1.5082
 5436TIP3   OH237798   4.837   3.278  14.930 -0.0036 -0.5621  0.0265
 5436TIP3    H137799   4.831   3.282  14.834  1.7691  1.0296 -0.0804
 5436TIP3    H237800   4.905   3.213  14.947 -0.3566 -0.8855  0.2155
 5437TIP3   OH237801   1.910   3.457  14.017  0.4106  0.1941  0.2910
 5437TIP3    H137802   1.971   3.516  13.972 -0.3155  0.9493  0.2829
 5437TIP3    H237803   1.837   3.447  13.956 -0.3254  0.7794  1.0535
 5438TIP3   OH237804   3.774   3.927  16.363  0.4884  0.1968  0.0835
 5438TIP3    H137805   3.790   3.863  16.294 -1.4391 -0.3964  0.1354
 5438TIP3    H237806   3.857   3.973  16.373  1.2650 -0.7950 -1.4995
 5439TIP3   OH237807   4.501   5.223  12.528 -0.1526 -0.5992  0.3980
 5439TIP3    H137808   4.585   5.258  12.559  0.1682 -1.1777  0.2102
 5439TIP3    H237809   4.472   5.165  12.599 -1.5072  1.2823  1.4508
 5440TIP3   OH237810   2.842   5.896   4.691 -0.4728  0.0274  0.3958
 5440TIP3    H137811   2.776   5.881   4.759  0.8951  0.5324  1.8817
 5440TIP3    H237812   2.824   5.985   4.659 -1.3275 -0.3355 -0.1964
 5441TIP3   OH237813   3.379   5.273  10.986 -0.3211  0.4453 -0.0627
 5441TIP3    H137814   3.343   5.194  10.946 -0.3626  0.3614  0.1363
 5441TIP3    H237815   3.316   5.297  11.054 -0.0062  0.2932  0.2920
 5442TIP3   OH237816   2.135   1.584   1.413 -0.2924  0.2002 -0.4753
 5442TIP3    H137817   2.163   1.603   1.503  0.6644 -1.3746 -0.4002
 5442TIP3    H237818   2.212   1.546   1.371 -0.8317  0.5760 -1.8746
 5443TIP3   OH237819   3.733   6.752  16.488  0.1137 -0.7023  0.2231
 5443TIP3    H137820   3.705   6.799  16.409 -0.8234 -2.6224 -0.6403
 5443TIP3    H237821   3.796   6.687  16.457  1.4614 -0.0452  1.4130
 5444TIP3   OH237822   4.793   5.743  11.470 -0.4731  0.2813  0.4285
 5444TIP3    H137823   4.761   5.806  11.535 -1.6551  0.4626 -0.3072
 5444TIP3    H237824   4.763   5.778  11.386  0.0336 -0.5613 -0.1103
 5445TIP3   OH237825   2.650   0.420  14.813  0.0614 -0.6070  0.4829
 5445TIP3    H137826   2.688   0.473  14.742 -1.2443 -1.1019 -0.6395
 5445TIP3    H237827   2.724   0.395  14.867  1.2837 -1.1007 -1.3249
 5446TIP3   OH237828   3.720   2.924  11.073  0.0180  0.4164 -0.4312
 5446TIP3    H137829   3.783   2.906  11.003  1.1362  1.2069  0.3355
 5446TIP3    H237830   3.761   2.993  11.124 -0.9200  0.0634  0.8308
 5447TIP3   OH237831   6.516   3.902  11.810  0.0107  0.5610  0.6747
 5447TIP3    H137832   6.534   3.976  11.752 -2.2905  0.8375  0.1996
 5447TIP3    H237833   6.585   3.838  11.791 -0.8156  0.4963 -2.6712
 5448TIP3   OH237834   2.521   6.541   0.820 -0.2882  0.3630  0.4385
 5448TIP3    H137835   2.594   6.510   0.874 -1.5292  1.2995  2.8049
 5448TIP3    H237836   2.445   6.494   0.854 -1.3751  2.1882  0.6447
 5449TIP3   OH237837   2.057   4.498   5.060 -0.1604  0.7427  0.4458
 5449TIP3    H137838   1.979   4.467   5.106 -0.5183 -1.3131 -1.3986
 5449TIP3    H237839   2.099   4.558   5.122 -2.3177  0.6492  2.1097
 5450TIP3   OH237840   6.670   6.666   0.804 -0.3119 -0.3042  0.3562
 5450TIP3    H137841   6.674   6.726   0.879  1.5656  0.5653 -0.3798
 5450TIP3    H237842   6.666   6.579   0.844 -2.4625  0.2228  1.4424
 5451TIP3   OH237843   0.608   2.271   3.468  0.4568 -0.2502 -0.4294
 5451TIP3    H137844   0.570   2.357   3.451  0.9954  0.0192 -0.2650
 5451TIP3    H237845   0.678   2.261   3.404 -2.5626 -2.5791 -3.7824
 5452TIP3   OH237846   0.145   3.224   1.205 -0.0491  0.4030 -0.7461
 5452TIP3    H137847   0.069   3.165   1.206 -0.2333  0.6023  0.9537
 5452TIP3    H237848   0.119   3.295   1.147 -2.4123  1.9085  1.8801
 5453TIP3   OH237849   0.419   4.784  12.211 -0.3316  0.8063  0.2902
 5453TIP3    H137850   0.451   4.874  12.208  0.0360  0.6930  0.6732
 5453TIP3    H237851   0.361   4.776  12.135  0.7485  0.9332 -0.5729
 5454TIP3   OH237852   0.745   0.560  14.422 -0.0381  0.3614 -0.0873
 5454TIP3    H137853   0.781   0.473  14.441  0.9678  0.7640 -0.0837
 5454TIP3    H237854   0.650   0.547  14.420  0.1559 -1.1263 -2.0770
 5455TIP3   OH237855   3.141   5.727   3.255  0.4580  0.1138 -0.9620
 5455TIP3    H137856   3.106   5.700   3.170 -1.3059  0.5773 -0.4172
 5455TIP3    H237857   3.147   5.646   3.305  0.4058 -0.0065 -1.1496
 5456TIP3   OH237858   3.731   2.878  14.286  0.7671 -0.0148  0.0339
 5456TIP3    H137859   3.662   2.831  14.332  1.6104 -1.1972  0.1359
 5456TIP3    H237860   3.685   2.933  14.222 -0.2240 -1.7609 -0.8188
 5457TIP3   OH237861   3.379   6.140  11.949 -0.2179  0.1671 -0.0078
 5457TIP3    H137862   3.317   6.213  11.960  0.9757  1.3224 -0.5921
 5457TIP3    H237863   3.381   6.125  11.855  1.2447  0.9698 -0.1392
 5458TIP3   OH237864   2.280   0.480   5.207 -0.4807 -0.2518  0.3918
 5458TIP3    H137865   2.365   0.456   5.242  0.4734 -0.3226 -1.8530
 5458TIP3    H237866   2.237   0.396   5.188 -1.5281 -0.2487  2.4309
 5459TIP3   OH237867   5.575   3.684   3.528  0.2715  0.1810  0.0429
 5459TIP3    H137868   5.489   3.663   3.564  0.7875  0.1458  1.3180
 5459TIP3    H237869   5.629   3.607   3.545  0.7759  0.5150 -0.0028
 5460TIP3   OH237870   1.207   6.627   1.910 -0.3051 -0.2251  0.3699
 5460TIP3    H137871   1.179   6.545   1.951 -0.1946  0.1463  1.2137
 5460TIP3    H237872   1.241   6.601   1.825  0.0729 -1.1016  0.7759
 5461TIP3   OH237873   3.147   3.418   1.312 -0.5899 -0.8053  0.6857
 5461TIP3    H137874   3.226   3.442   1.361 -0.3312 -0.2718  0.0317
 5461TIP3    H237875   3.096   3.499   1.307 -1.5678 -1.3241  1.7706
 5462TIP3   OH237876   5.842   0.094  16.386  0.3384 -0.4210  0.4684
 5462TIP3    H137877   5.840   0.028  16.455  0.5893 -2.0516 -0.9985
 5462TIP3    H237878   5.841   0.177  16.432  0.3040 -1.4377  2.4157
 5463TIP3   OH237879   6.761   4.817   2.170 -0.0813  0.2673  0.1448
 5463TIP3    H137880   6.700   4.884   2.138  0.0944  1.0498  1.3649
 5463TIP3    H237881   6.716   4.778   2.246  0.6317  0.3613  0.6290
 5464TIP3   OH237882   2.529   5.878   5.552 -0.2172 -0.1976 -0.2481
 5464TIP3    H137883   2.494   5.852   5.638 -0.2002  1.4747  0.2905
 5464TIP3    H237884   2.597   5.813   5.534  0.1267 -0.2920  1.2460
 5465TIP3   OH237885   3.715   6.534   3.110  0.2753  0.5751  0.0299
 5465TIP3    H137886   3.678   6.612   3.151 -1.5969 -0.6844  0.9028
 5465TIP3    H237887   3.694   6.463   3.171  0.9717 -0.7796 -1.2412
 5466TIP3   OH237888   5.467   5.557   2.309 -0.4185 -0.4602 -0.7497
 5466TIP3    H137889   5.402   5.592   2.247  1.0177  1.8678 -1.0369
 5466TIP3    H237890   5.480   5.466   2.280 -3.8649 -1.2248 -0.3458
 5467TIP3   OH237891   5.308   1.764  17.079  0.1655 -0.4001 -0.2026
 5467TIP3    H137892   5.340   1.841  17.126  2.6521 -0.4493 -1.6730
 5467TIP3    H237893   5.247   1.799  17.014 -0.3594  0.0634  0.5216
 5468TIP3   OH237894   1.085   6.566   3.365 -0.2581  0.1470 -0.5232
 5468TIP3    H137895   1.105   6.638   3.304  1.7496 -0.0201 -0.1284
 5468TIP3    H237896   1.081   6.608   3.451 -2.9451  0.3577 -0.6863
 5469TIP3   OH237897   5.193   6.008   3.333 -1.2179 -0.3295 -0.0601
 5469TIP3    H137898   5.251   5.943   3.374 -0.7783  0.3856  0.4875
 5469TIP3    H237899   5.116   6.010   3.390 -0.6954  0.5153  0.6396
 5470TIP3   OH237900   2.992   4.476   1.938  0.6335 -0.1239  0.4220
 5470TIP3    H137901   2.986   4.404   2.000 -0.5059 -0.4911 -0.0748
 5470TIP3    H237902   3.000   4.554   1.992  0.4773 -0.5103  1.0066
 5471TIP3   OH237903   6.262   0.772  14.677  0.1625 -0.3032 -0.3248
 5471TIP3    H137904   6.171   0.795  14.693  0.6269  0.8897  0.7540
 5471TIP3    H237905   6.274   0.688  14.722  0.5032  1.2782  2.8117
 5472TIP3   OH237906   0.792   4.987  14.305  0.2201  0.0233 -0.1040
 5472TIP3    H137907   0.868   5.003  14.361 -0.4793 -1.3668  1.3188
 5472TIP3    H237908   0.734   4.932  14.358 -1.4704  0.4534 -1.4153
 5473TIP3   OH237909   3.613   6.413  15.139  0.0705 -0.3613 -0.2225
 5473TIP3    H137910   3.658   6.399  15.056 -1.3246 -2.2599 -0.7264
 5473TIP3    H237911   3.671   6.470  15.189  1.6704 -0.4539 -1.8987
 5474TIP3   OH237912   4.173   0.065  14.627 -0.6420 -0.2768  0.4551
 5474TIP3    H137913   4.141   0.084  14.539  0.1389 -1.1161 -0.0373
 5474TIP3    H237914   4.160  -0.029  14.637 -0.3902 -0.2483  1.0947
 5475TIP3   OH237915   4.306   3.253  12.388  0.6204  0.0194  0.1865
 5475TIP3    H137916   4.357   3.334  12.378  1.1348 -0.0366  1.9848
 5475TIP3    H237917   4.215   3.282  12.390  0.6234  0.2597 -1.7424
 5476TIP3   OH237918   6.762   3.141  16.733  0.1293 -0.3147  0.9099
 5476TIP3    H137919   6.741   3.180  16.818  1.8272 -0.5061  1.4628
 5476TIP3    H237920   6.725   3.202  16.669 -2.4147 -0.8668  1.7273
 5477TIP3   OH237921   6.114   2.166  13.690 -0.2803 -0.1541  0.0847
 5477TIP3    H137922   6.189   2.122  13.649  1.2713  1.6359  0.8689
 5477TIP3    H237923   6.153   2.232  13.748 -2.4765  0.7661  0.6246
 5478TIP3   OH237924   2.219   1.430   3.906  0.2470  0.1692  0.5275
 5478TIP3    H137925   2.210   1.335   3.911  1.6681 -0.4809 -4.4565
 5478TIP3    H237926   2.312   1.446   3.921  0.3198  0.5482 -0.2752
 5479TIP3   OH237927   3.076   0.853  13.176 -0.0784  0.5630  0.0111
 5479TIP3    H137928   3.002   0.870  13.116  0.5899 -1.0355 -1.3551
 5479TIP3    H237929   3.151   0.896  13.134  0.3855 -0.5309 -0.3089
 5480TIP3   OH237930   1.183   3.485   6.059 -0.4969 -0.3553 -0.4045
 5480TIP3    H137931   1.096   3.522   6.079  0.6366  1.5305  1.4084
 5480TIP3    H237932   1.241   3.561   6.057  1.3287 -1.6958 -0.5066
 5481TIP3   OH237933   5.924   4.601   4.406 -0.0539  0.3138  0.5706
 5481TIP3    H137934   5.888   4.525   4.361 -0.0948  1.0409 -0.6650
 5481TIP3    H237935   5.857   4.669   4.397  0.4484  0.8380  0.6922
 5482TIP3   OH237936   5.603   5.978  13.739  0.0725  0.3034 -0.6060
 5482TIP3    H137937   5.534   6.025  13.787 -0.6393 -0.0979 -1.2359
 5482TIP3    H237938   5.684   6.023  13.766 -0.4451  0.9299 -0.0413
 5483TIP3   OH237939   1.631   0.726  11.496 -0.1239 -0.0929  0.5579
 5483TIP3    H137940   1.623   0.674  11.576  2.7639 -2.3597 -0.4708
 5483TIP3    H237941   1.722   0.755  11.494 -0.4303  0.9332 -1.3505
 5484TIP3   OH237942   2.666   4.199   2.651 -0.0502  0.7395  0.2209
 5484TIP3    H137943   2.717   4.201   2.570  0.8867 -0.7138  0.7323
 5484TIP3    H237944   2.663   4.107   2.675 -1.1561  1.0413  1.3341
 5485TIP3   OH237945   1.890   6.049   5.494 -0.4357  0.3610 -0.0184
 5485TIP3    H137946   1.934   5.965   5.502 -0.5816  0.3753  1.0311
 5485TIP3    H237947   1.820   6.046   5.560  0.8342  2.0884  1.4980
 5486TIP3   OH237948   0.446   0.092   5.761  0.3088 -0.6962  0.3905
 5486TIP3    H137949   0.481   0.108   5.673  1.2606  0.2100  0.9074
 5486TIP3    H237950   0.522   0.103   5.819 -0.6984  0.6993  1.4971
 5487TIP3   OH237951   6.794   6.136   4.993  0.3690 -0.2379  0.3256
 5487TIP3    H137952   6.873   6.190   4.997 -0.7935  1.7085 -1.0354
 5487TIP3    H237953   6.793   6.088   5.075  1.5371  1.7855  1.5945
 5488TIP3   OH237954   5.450   3.128   2.580  0.1654  0.5156 -0.4578
 5488TIP3    H137955   5.526   3.102   2.528 -0.6878  0.2645 -1.6319
 5488TIP3    H237956   5.446   3.064   2.651 -0.8132 -1.5227 -2.2314
 5489TIP3   OH237957   5.673   6.092   0.611  0.0291  0.0232 -0.1938
 5489TIP3    H137958   5.672   6.110   0.704 -2.2812 -1.6500  0.1985
 5489TIP3    H237959   5.617   6.015   0.601 -0.1316  0.3924 -3.0024
 5490TIP3   OH237960   0.263   4.991   4.384 -0.6694 -0.0558 -0.1828
 5490TIP3    H137961   0.325   4.953   4.447 -1.6025 -1.3432  0.0088
 5490TIP3    H237962   0.192   5.025   4.439 -1.4166 -1.0511 -0.4899
 5491TIP3   OH237963   4.765   0.208  15.521 -0.2716  0.0795  0.3327
 5491TIP3    H137964   4.792   0.288  15.568 -0.7448  0.2619  0.2963
 5491TIP3    H237965   4.730   0.240  15.438 -1.2255 -0.1093  0.6573
 5492TIP3   OH237966   5.556   1.476   2.925 -0.0397  0.0283 -0.0030
 5492TIP3    H137967   5.644   1.449   2.901 -0.0267 -0.0042  0.0820
 5492TIP3    H237968   5.536   1.427   3.005 -0.4716 -0.6376 -0.5123
 5493TIP3   OH237969   0.402   6.119  11.745 -0.0118 -0.4711  0.1170
 5493TIP3    H137970   0.409   6.126  11.840 -0.1465  1.3605  0.0367
 5493TIP3    H237971   0.472   6.176  11.712 -1.5415  0.9625 -0.8276
 5494TIP3   OH237972   1.958   1.203   0.400  0.6519  0.4217 -0.0143
 5494TIP3    H137973   1.877   1.251   0.419  0.1167 -0.5298  0.1382
 5494TIP3    H237974   1.958   1.193   0.305 -0.4207 -1.2744  0.1252
 5495TIP3   OH237975   5.085   5.784  11.526 -0.4638 -0.5026 -0.1209
 5495TIP3    H137976   4.997   5.760  11.498 -0.1723 -0.5124 -1.0661
 5495TIP3    H237977   5.090   5.878  11.512 -0.6023 -0.3552  0.7512
 5496TIP3   OH237978   4.028   5.817  16.663  0.6884 -0.4987 -0.1639
 5496TIP3    H137979   4.074   5.873  16.726 -0.0761 -0.8408  0.7356
 5496TIP3    H237980   3.949   5.790  16.710  0.2364 -0.9904 -1.1888
 5497TIP3   OH237981   3.057   4.302   4.012  0.3107  0.1286 -0.1192
 5497TIP3    H137982   2.964   4.317   4.028  0.6535 -0.0786  2.5505
 5497TIP3    H237983   3.066   4.207   4.013  0.5934  0.1554 -0.1545
 5498TIP3   OH237984   1.806   3.574   6.491  0.2321 -0.0101 -0.0417
 5498TIP3    H137985   1.801   3.488   6.533  0.5524  0.3370  0.7272
 5498TIP3    H237986   1.880   3.618   6.533  1.0119  0.1034 -1.4727
 5499TIP3   OH237987   4.039   4.096  12.500 -0.3660 -0.2130  0.5646
 5499TIP3    H137988   4.030   4.007  12.467  1.5483 -0.3567  0.3580
 5499TIP3    H237989   3.991   4.150  12.436 -0.9759 -1.0103  0.3339
 5500TIP3   OH237990   6.164   5.216   0.777  0.8229  0.0566 -0.0153
 5500TIP3    H137991   6.078   5.239   0.814  0.4065 -0.8445 -0.3958
 5500TIP3    H237992   6.208   5.169   0.848 -0.2824 -2.3740 -0.8666
 5501TIP3   OH237993   2.836   4.803   4.254  0.1532  0.1283 -0.8498
 5501TIP3    H137994   2.847   4.889   4.294 -1.8079 -0.2297  0.6292
 5501TIP3    H237995   2.759   4.813   4.198 -2.0934 -1.3261  1.7344
 5502TIP3   OH237996   1.131   3.415  13.529 -0.6954 -0.7480  0.1913
 5502TIP3    H137997   1.147   3.482  13.463 -0.8157 -1.2075 -0.3101
 5502TIP3    H237998   1.218   3.391  13.562 -0.5262 -1.3843 -0.6754
 5503TIP3   OH237999   2.334   6.775  12.033 -0.3024 -0.2855 -0.2290
 5503TIP3    H138000   2.395   6.752  12.103  0.5025  1.3776 -0.3414
 5503TIP3    H238001   2.254   6.728  12.055  0.1092 -0.2186  1.5447
 5504TIP3   OH238002   5.847   6.465  12.638  0.5653  0.0555 -0.3208
 5504TIP3    H138003   5.780   6.454  12.705  0.0313  0.1915 -0.8222
 5504TIP3    H238004   5.808   6.524  12.574  0.6144 -0.9644 -1.3295
 5505TIP3   OH238005   4.463   4.981   2.546  0.3946  0.0462  0.2327
 5505TIP3    H138006   4.474   4.935   2.629 -0.6493  0.0179  0.3660
 5505TIP3    H238007   4.441   4.913   2.483 -0.3010  0.2416  0.2540
 5506TIP3   OH238008   1.593   1.417  13.760 -0.1148 -0.2597 -0.0857
 5506TIP3    H138009   1.554   1.448  13.678 -1.2767  0.3045  0.6673
 5506TIP3    H238010   1.576   1.323  13.760  1.6526 -0.6446 -1.4139
 5507TIP3   OH238011   3.353   6.570  13.721  0.2375  0.1488 -0.0499
 5507TIP3    H138012   3.357   6.586  13.627 -0.9656  1.3438  0.0756
 5507TIP3    H238013   3.298   6.640  13.755 -1.2834 -1.5727  1.2255
 5508TIP3   OH238014   0.724   0.267   4.847 -0.1292 -1.0909  0.1231
 5508TIP3    H138015   0.798   0.212   4.820  0.8621  0.2895 -0.0812
 5508TIP3    H238016   0.726   0.265   4.943  0.2150 -1.0228  0.1193
 5509TIP3   OH238017   4.510   3.652   4.949 -0.8290  0.1535  0.0477
 5509TIP3    H138018   4.416   3.637   4.942 -0.7806  0.1886 -0.8139
 5509TIP3    H238019   4.548   3.602   4.876 -0.3984  1.9083 -1.0128
 5510TIP3   OH238020   2.191   6.612  16.708  0.1092  0.0644 -0.2859
 5510TIP3    H138021   2.258   6.666  16.751  0.6945  0.0441 -1.1629
 5510TIP3    H238022   2.229   6.587  16.624 -0.1172 -1.7607  0.0999
 5511TIP3   OH238023   2.354   0.421  13.330  0.2681  1.3349 -0.4949
 5511TIP3    H138024   2.386   0.400  13.242 -0.5309  2.6215 -1.1278
 5511TIP3    H238025   2.283   0.358  13.345  0.4258  1.0884 -0.7597
 5512TIP3   OH238026   1.762   0.921   1.891 -0.4795 -0.2904  1.0050
 5512TIP3    H138027   1.670   0.948   1.888 -0.6237 -0.6004 -3.0421
 5512TIP3    H238028   1.761   0.829   1.865  0.9921 -0.0928  0.1479
 5513TIP3   OH238029   0.871   1.561   5.451 -0.5845  0.2437  0.3006
 5513TIP3    H138030   0.873   1.610   5.368  0.1395 -1.3485 -0.6769
 5513TIP3    H238031   0.920   1.616   5.512  0.2084  0.7502 -0.7529
 5514TIP3   OH238032   2.383   0.128   1.141 -0.0344 -0.4860 -0.0169
 5514TIP3    H138033   2.312   0.100   1.083 -0.6560 -0.2451  0.6054
 5514TIP3    H238034   2.428   0.197   1.094  0.6772 -1.5803 -1.0101
 5515TIP3   OH238035   2.395   5.675   4.111 -0.2644 -0.0898 -0.1757
 5515TIP3    H138036   2.394   5.764   4.074 -0.1850  0.1688  0.4362
 5515TIP3    H238037   2.302   5.651   4.117 -0.3759  0.6239  1.2389
 5516TIP3   OH238038   2.879   4.961   5.101 -0.5184  0.3513 -0.2087
 5516TIP3    H138039   2.956   4.906   5.113 -0.1116  1.2144  1.3560
 5516TIP3    H238040   2.891   5.001   5.015  1.1754  1.0660  0.3264
 5517TIP3   OH238041   5.947   1.351  11.483 -0.0606 -0.1841  0.3579
 5517TIP3    H138042   5.897   1.286  11.434 -0.6011  0.0914  0.5421
 5517TIP3    H238043   6.031   1.307  11.501  0.6295  0.1103 -1.8133
 5518TIP3   OH238044   2.986   0.157   6.667  0.0363 -0.2051 -0.6105
 5518TIP3    H138045   2.987   0.130   6.575  2.2004 -0.3491 -0.5854
 5518TIP3    H238046   3.068   0.123   6.703  0.0350  1.3216  0.9399
 5519TIP3   OH238047   0.347   6.048   2.589  0.0926 -0.7244  0.5410
 5519TIP3    H138048   0.258   6.059   2.622  0.8676 -0.8638  2.8645
 5519TIP3    H238049   0.340   6.063   2.495 -2.0524  1.1078  0.9188
 5520TIP3   OH238050   1.075   3.605   4.770  0.3987 -0.0029  0.1441
 5520TIP3    H138051   1.069   3.641   4.858  1.9179  0.4637  0.0922
 5520TIP3    H238052   1.023   3.664   4.716 -1.8852 -1.1839  0.9293
 5521TIP3   OH238053   5.262   5.800   3.479  0.4183 -0.2715 -0.4753
 5521TIP3    H138054   5.309   5.731   3.526 -0.4049 -1.1383 -0.8822
 5521TIP3    H238055   5.170   5.777   3.490  0.1450  0.5752 -0.9266
 5522TIP3   OH238056   4.261   1.574  11.380 -0.1469 -0.3886  0.0983
 5522TIP3    H138057   4.281   1.637  11.312  1.3084  0.2053  1.0367
 5522TIP3    H238058   4.169   1.551  11.365  0.1529 -0.3546 -2.0809
 5523TIP3   OH238059   3.078   3.535  13.724  0.1974  1.6768 -0.0893
 5523TIP3    H138060   2.985   3.521  13.709  0.4242 -2.2350  1.1625
 5523TIP3    H238061   3.121   3.496  13.647  0.8226  0.7931  0.6824
 5524TIP3   OH238062   2.778   2.713   5.511 -0.4031  0.4814 -0.2153
 5524TIP3    H138063   2.800   2.652   5.441 -0.0939  0.1163  0.1885
 5524TIP3    H238064   2.688   2.740   5.494 -1.0777 -1.2578  0.4383
 5525TIP3   OH238065   5.322   5.242  13.934  0.1252 -0.1166 -0.2968
 5525TIP3    H138066   5.391   5.195  13.981 -0.4819 -0.7521 -0.0198
 5525TIP3    H238067   5.364   5.323  13.905  0.5173  0.3621  1.4404
 5526TIP3   OH238068   0.443   4.944  10.298  0.1420 -0.1398 -0.3400
 5526TIP3    H138069   0.464   4.873  10.359 -0.8199 -2.4134 -2.4789
 5526TIP3    H238070   0.356   4.973  10.324  0.5596  0.3375  0.5816
 5527TIP3   OH238071   6.510   1.707   4.151  0.2305  0.2204  0.4241
 5527TIP3    H138072   6.562   1.717   4.070 -1.8604  0.4986 -0.9660
 5527TIP3    H238073   6.558   1.642   4.202  0.8772 -1.0861 -1.7001
 5528TIP3   OH238074   0.893   6.272  12.938 -0.1340 -0.3309  0.2154
 5528TIP3    H138075   0.973   6.325  12.942 -1.5861  2.5150 -3.1278
 5528TIP3    H238076   0.911   6.208  12.869 -0.5114 -0.0113 -0.1892
 5529TIP3   OH238077   5.503   2.184   1.775 -0.0745  0.1924 -0.3698
 5529TIP3    H138078   5.435   2.125   1.742  0.5145  0.2954 -1.8550
 5529TIP3    H238079   5.538   2.140   1.852 -1.8731  0.1958  0.4983
 5530TIP3   OH238080   3.500   3.963   1.265 -0.3578  0.4469 -0.4529
 5530TIP3    H138081   3.520   4.032   1.202 -1.0639  1.7330  0.6866
 5530TIP3    H238082   3.584   3.944   1.307  0.2339 -0.7958 -2.0738
 5531TIP3   OH238083   5.421   3.076  11.863 -0.0107  0.3151  0.0965
 5531TIP3    H138084   5.495   3.035  11.818  0.3129  2.3419 -1.3680
 5531TIP3    H238085   5.344   3.045  11.815  0.0483 -0.2338  0.3529
 5532TIP3   OH238086   3.250   1.305   4.692  0.7371  0.2916  0.2745
 5532TIP3    H138087   3.314   1.236   4.713  0.4188 -0.0370  0.1671
 5532TIP3    H238088   3.168   1.258   4.679  0.0081  0.8850  2.3298
 5533TIP3   OH238089   6.529   0.078   1.892  0.6065  0.4628  0.2615
 5533TIP3    H138090   6.433   0.079   1.895  0.6020 -0.8448  1.1030
 5533TIP3    H238091   6.553   0.170   1.880 -0.7571  0.7380 -0.5765
 5534TIP3   OH238092   1.825   6.003  14.871  0.4254 -0.4336 -0.1542
 5534TIP3    H138093   1.800   5.911  14.866 -0.3099 -0.2633  0.2465
 5534TIP3    H238094   1.772   6.046  14.804  0.5229 -0.2472 -0.1123
 5535TIP3   OH238095   4.897   4.037   6.675  0.6858 -0.3268 -0.7744
 5535TIP3    H138096   4.868   4.042   6.584  2.8810 -1.6021 -1.6319
 5535TIP3    H238097   4.936   4.123   6.693  1.8595 -0.6409 -1.6866
 5536TIP3   OH238098   6.676   0.795   5.285 -0.8003 -0.3865 -0.0966
 5536TIP3    H138099   6.714   0.787   5.198  0.7828  0.1499  0.5083
 5536TIP3    H238100   6.593   0.749   5.280 -0.2709 -1.2147 -1.6089
 5537TIP3   OH238101   6.152   5.637   3.404 -0.0377 -0.0711  0.5166
 5537TIP3    H138102   6.174   5.551   3.441  0.4268 -0.6781 -1.0784
 5537TIP3    H238103   6.057   5.635   3.393  0.0289 -0.5786  0.0256
 5538TIP3   OH238104   5.607   4.915   3.961  0.5037 -0.0275 -0.0984
 5538TIP3    H138105   5.514   4.899   3.975  0.2973  0.0751 -1.2418
 5538TIP3    H238106   5.628   4.989   4.019  0.4466 -1.5135  1.9071
 5539TIP3   OH238107   1.003   4.183   2.083  0.5611  0.7721 -0.4686
 5539TIP3    H138108   1.019   4.257   2.025 -2.2952  1.6168 -0.3291
 5539TIP3    H238109   0.974   4.223   2.165 -4.4426 -0.2605 -1.4106
 5540TIP3   OH238110   3.500   0.817  12.772  0.1264  0.3447 -0.1247
 5540TIP3    H138111   3.438   0.759  12.816  0.3352  0.7648  0.7369
 5540TIP3    H238112   3.449   0.895  12.752 -0.2504 -0.2444 -1.6046
 5541TIP3   OH238113   1.966   6.703   1.399  0.2631  0.1974 -0.2472
 5541TIP3    H138114   2.039   6.647   1.426  0.2813 -0.1516 -0.9983
 5541TIP3    H238115   1.936   6.744   1.480  0.5905 -0.4920  0.2322
 5542TIP3   OH238116   1.332   3.437   3.449  0.2500 -0.5252  0.4110
 5542TIP3    H138117   1.318   3.524   3.410  0.9416 -0.0468  1.1969
 5542TIP3    H238118   1.295   3.445   3.537 -0.8317 -1.4352  0.0677
 5543TIP3   OH238119   3.794   3.811   1.991  0.1885  0.1211 -0.2540
 5543TIP3    H138120   3.778   3.833   1.899  2.0882  0.4255 -0.5644
 5543TIP3    H238121   3.742   3.875   2.040 -0.0167  0.6513 -1.1323
 5544TIP3   OH238122   3.376   5.944  11.199 -0.2316  0.2809  0.1446
 5544TIP3    H138123   3.386   5.952  11.104  1.2017  1.7838  0.3744
 5544TIP3    H238124   3.354   6.032  11.228 -1.2474 -0.2887  1.1590
 5545TIP3   OH238125   3.796   1.526  15.838 -0.0155 -0.4605 -0.5918
 5545TIP3    H138126   3.709   1.565  15.846  0.1101 -0.0710 -1.0709
 5545TIP3    H238127   3.781   1.432  15.852 -0.2712 -0.2233  0.8926
 5546TIP3   OH238128   5.765   0.847  15.109 -0.5097 -0.2154 -0.4965
 5546TIP3    H138129   5.714   0.914  15.065  1.8211  1.8362 -0.3156
 5546TIP3    H238130   5.756   0.867  15.202  0.3223 -0.0227 -0.4494
 5547TIP3   OH238131   2.194   3.138  13.445 -0.1315  0.7473  0.2590
 5547TIP3    H138132   2.273   3.110  13.492 -0.7318 -1.7825 -0.1193
 5547TIP3    H238133   2.192   3.083  13.366 -0.1161  3.6186 -1.9003
 5548TIP3   OH238134   4.935   4.553   2.232 -0.2656 -0.4497  0.0870
 5548TIP3    H138135   4.880   4.598   2.168  0.6469 -0.2554 -0.5766
 5548TIP3    H238136   4.875   4.530   2.303 -1.3368 -0.8180 -0.9034
 5549TIP3   OH238137   2.894   1.439   1.472  0.2737 -0.4968 -0.2829
 5549TIP3    H138138   2.938   1.524   1.479 -0.9128  0.4154 -2.8842
 5549TIP3    H238139   2.892   1.406   1.562  0.3240  2.4558  0.9139
 5550TIP3   OH238140   4.972   0.890   2.429 -0.2715  0.5893 -0.0955
 5550TIP3    H138141   5.022   0.971   2.443  0.6774  0.0640 -0.3570
 5550TIP3    H238142   4.974   0.847   2.515  1.2214 -0.2348 -0.5009
 5551TIP3   OH238143   1.418   2.085   2.893 -0.0524  0.3321 -0.7368
 5551TIP3    H138144   1.495   2.062   2.946  0.2060 -0.2643 -1.3589
 5551TIP3    H238145   1.440   2.169   2.853  0.3095  0.1283 -0.9697
 5552TIP3   OH238146   6.476   6.333  12.369 -0.5399 -0.5011 -0.4504
 5552TIP3    H138147   6.508   6.259  12.420  0.0700 -0.1822 -0.3615
 5552TIP3    H238148   6.387   6.309  12.344 -0.4512 -1.1291 -0.1635
 5553TIP3   OH238149   3.376   3.695  13.686  0.4122 -0.7905  0.4597
 5553TIP3    H138150   3.300   3.701  13.628  1.7682 -1.8658 -1.5210
 5553TIP3    H238151   3.339   3.679  13.773 -1.6572  0.2084 -0.1820
 5554TIP3   OH238152   3.918   1.924   5.629  0.2661  0.1602 -0.1957
 5554TIP3    H138153   3.895   1.837   5.596 -1.3437 -0.6536  2.6840
 5554TIP3    H238154   3.909   1.982   5.553 -0.1133 -1.9333 -1.8488
 5555TIP3   OH238155   2.751   1.936   2.648 -0.1069  0.5063  0.1384
 5555TIP3    H138156   2.678   1.889   2.607 -1.5159  1.0880  1.8134
 5555TIP3    H238157   2.788   1.874   2.710 -1.0077  1.0715  1.2788
 5556TIP3   OH238158   6.404   1.385   0.609  0.0578  0.1454  0.6580
 5556TIP3    H138159   6.423   1.292   0.591  1.2913  0.0524  2.1766
 5556TIP3    H238160   6.332   1.407   0.550 -0.3257 -1.8042  0.3305
 5557TIP3   OH238161   1.427   3.347  12.675 -0.6097  0.1307  0.2795
 5557TIP3    H138162   1.519   3.323  12.677 -0.0542  2.1130  1.8410
 5557TIP3    H238163   1.382   3.275  12.719  0.4047 -0.1363  0.9043
 5558TIP3   OH238164   3.342   6.667   5.918  0.2432  0.6553 -0.1060
 5558TIP3    H138165   3.395   6.659   5.997  0.8787 -1.3453 -0.6660
 5558TIP3    H238166   3.402   6.700   5.852  0.3490  0.0942 -0.3000
 5559TIP3   OH238167   2.167   5.835  13.162 -0.5392 -0.1492  0.1251
 5559TIP3    H138168   2.129   5.782  13.232 -0.6150 -0.6895 -0.3186
 5559TIP3    H238169   2.261   5.835  13.181 -0.8487  2.7535  2.3075
 5560TIP3   OH238170   5.211   4.018   1.427 -0.1292  0.1574  0.3834
 5560TIP3    H138171   5.250   4.103   1.406 -0.1834  0.1187  0.1303
 5560TIP3    H238172   5.270   3.980   1.492  1.0794 -0.5557 -1.0865
 5561TIP3   OH238173   4.500   0.787  10.838  0.4519  0.4563 -0.3228
 5561TIP3    H138174   4.579   0.736  10.854 -0.0013 -0.5633 -1.1315
 5561TIP3    H238175   4.509   0.819  10.748 -0.3185 -0.2369 -0.6709
 5562TIP3   OH238176   2.803   1.681  11.803 -0.0112 -0.6203  0.1990
 5562TIP3    H138177   2.717   1.654  11.835 -0.4521  1.6279  1.1481
 5562TIP3    H238178   2.785   1.730  11.723  0.1028  1.3549  1.2961
 5563TIP3   OH238179   4.206   3.016  14.765  0.0971 -0.4926  0.0193
 5563TIP3    H138180   4.278   3.017  14.702  0.3564 -1.1374  0.3015
 5563TIP3    H238181   4.240   3.062  14.841 -0.4872  1.0024 -0.5861
 5564TIP3   OH238182   3.401   0.020  10.874  0.1756  0.8150  0.6909
 5564TIP3    H138183   3.427  -0.072  10.875  1.1813  0.8289 -3.4437
 5564TIP3    H238184   3.481   0.068  10.895  0.2312  0.7364  0.6583
 5565TIP3   OH238185   6.818   0.597   2.161 -0.1893  0.0165  0.1455
 5565TIP3    H138186   6.840   0.525   2.102 -0.0906  0.5253 -0.4513
 5565TIP3    H238187   6.889   0.661   2.147 -0.0897  0.0785  0.9233
 5566TIP3   OH238188   4.631   5.323   4.039  0.4271 -0.0632 -0.2677
 5566TIP3    H138189   4.628   5.227   4.042 -0.6505 -0.0672 -0.7346
 5566TIP3    H238190   4.723   5.344   4.025  1.4243 -0.8646  3.8019
 5567TIP3   OH238191   2.531   0.827  13.281  0.3214  0.1085 -0.1916
 5567TIP3    H138192   2.553   0.851  13.371  1.6501 -0.2285 -0.4006
 5567TIP3    H238193   2.595   0.759  13.258 -1.1513 -1.1231 -0.7708
 5568TIP3   OH238194   5.736   3.191  14.723 -0.2481  0.4652  0.0422
 5568TIP3    H138195   5.694   3.277  14.731  1.0381  1.2489 -1.1466
 5568TIP3    H238196   5.685   3.146  14.656 -0.0540  0.8639 -0.3778
 5569TIP3   OH238197   0.060   1.667  16.705  0.1369 -0.1207 -0.4949
 5569TIP3    H138198   0.004   1.589  16.705 -1.3498  0.8829 -1.5253
 5569TIP3    H238199   0.140   1.639  16.749 -0.8473 -1.8584  0.3042
 5570TIP3   OH238200   1.435   4.213  15.619  0.2914 -0.3293  0.4942
 5570TIP3    H138201   1.481   4.270  15.680 -2.3871  0.3318  2.0143
 5570TIP3    H238202   1.368   4.170  15.671 -0.5579 -1.5849 -1.5142
 5571TIP3   OH238203   5.506   4.925  16.807  0.0924 -0.0234  0.1304
 5571TIP3    H138204   5.471   4.869  16.738  0.0534 -1.2618  1.1139
 5571TIP3    H238205   5.565   4.868  16.856  1.5224  1.3282  0.0492
 5572TIP3   OH238206   0.618   4.008  10.478  0.0012 -0.3721 -0.2665
 5572TIP3    H138207   0.526   4.022  10.498 -0.0936 -0.9321 -0.3004
 5572TIP3    H238208   0.646   3.939  10.538  1.0318  1.3889  1.4155
 5573TIP3   OH238209   6.016   1.767   4.820 -0.1716  0.1032 -0.0597
 5573TIP3    H138210   5.938   1.822   4.816  0.2497  0.8216  0.9404
 5573TIP3    H238211   6.011   1.724   4.906 -0.7988 -1.9416 -1.0518
 5574TIP3   OH238212   0.188   0.256   2.417 -0.2456  0.2803 -0.5021
 5574TIP3    H138213   0.154   0.197   2.349 -0.2104  2.5858 -2.6452
 5574TIP3    H238214   0.149   0.224   2.498 -3.3022 -0.4096 -2.1022
 5575TIP3   OH238215   2.711   6.608  13.591 -0.2824 -0.2705  0.5423
 5575TIP3    H138216   2.692   6.683  13.649 -1.5136  0.3572 -0.6076
 5575TIP3    H238217   2.692   6.531  13.645  0.9646  0.2221  1.7356
 5576TIP3   OH238218   0.081   1.906   1.392  0.5287  0.2080 -0.0801
 5576TIP3    H138219  -0.003   1.910   1.437  1.3185  0.3265  1.4354
 5576TIP3    H238220   0.085   1.987   1.342 -0.6864 -0.2655 -1.0004
 5577TIP3   OH238221   4.093   5.937  14.845 -0.1883  0.5007  0.2910
 5577TIP3    H138222   4.142   5.964  14.767 -2.1563  1.3953 -0.7059
 5577TIP3    H238223   4.158   5.895  14.900  1.4058  0.3809 -1.5633
 5578TIP3   OH238224   4.056   5.197   1.396  0.4300  0.6285  0.4283
 5578TIP3    H138225   3.995   5.266   1.368 -0.0803 -0.2625 -0.7509
 5578TIP3    H238226   4.071   5.146   1.317  3.3088  1.2240  0.4739
 5579TIP3   OH238227   0.048   0.790  10.343 -0.3352  0.3349 -0.0778
 5579TIP3    H138228  -0.041   0.778  10.374 -0.3334  0.4539 -0.0259
 5579TIP3    H238229   0.084   0.859  10.399 -0.1762  0.2102 -0.0265
 5580TIP3   OH238230   4.081   3.052   3.537  0.4314  0.2449  0.6678
 5580TIP3    H138231   4.027   2.973   3.529 -0.0984  0.5944  0.7423
 5580TIP3    H238232   4.087   3.086   3.448  1.9755 -0.7145  0.3465
 5581TIP3   OH238233   2.501   5.934   6.083  0.1573  0.3220 -0.1694
 5581TIP3    H138234   2.514   5.865   6.019 -0.3099 -0.4183  0.5133
 5581TIP3    H238235   2.587   5.947   6.124  0.0789 -0.4034  0.2344
 5582TIP3   OH238236   4.077   6.335  10.803 -0.0345 -0.0862  0.3132
 5582TIP3    H138237   4.003   6.394  10.818  0.1127  0.5333 -1.1702
 5582TIP3    H238238   4.132   6.382  10.739  0.5320 -1.4624 -0.2453
 5583TIP3   OH238239   3.731   3.061  12.637  0.1482 -0.2815 -0.0627
 5583TIP3    H138240   3.796   3.116  12.682  0.8180 -0.7163 -0.4926
 5583TIP3    H238241   3.764   2.972  12.646  0.2116 -0.3955 -1.2771
 5584TIP3   OH238242   4.077   0.623  16.153  0.4676  0.4683  0.0785
 5584TIP3    H138243   4.070   0.716  16.132 -1.3029  0.3147 -0.1753
 5584TIP3    H238244   4.168   0.611  16.180  0.5877  2.3742  0.6385
 5585TIP3   OH238245   1.189   4.374  16.143 -0.3452 -0.1868 -0.4375
 5585TIP3    H138246   1.117   4.405  16.089 -0.6036  0.1101  0.0762
 5585TIP3    H238247   1.150   4.357  16.228  0.0978 -0.4739 -0.2865
 5586TIP3   OH238248   1.814   0.006  16.704 -0.0823  0.4393 -0.3547
 5586TIP3    H138249   1.838   0.088  16.746  1.2589 -0.2616  0.2944
 5586TIP3    H238250   1.841  -0.062  16.766 -2.6215 -0.4949 -0.1187
 5587TIP3   OH238251   3.036   4.240  12.522 -0.4813 -0.3436 -0.2271
 5587TIP3    H138252   3.091   4.276  12.592 -1.4133  0.8809 -0.0776
 5587TIP3    H238253   3.043   4.146  12.532 -2.6999 -0.3360  3.3473
 5588TIP3   OH238254   5.860   2.257  13.606  0.4148  0.1010 -0.6416
 5588TIP3    H138255   5.948   2.247  13.641  0.2610  2.4480  0.6322
 5588TIP3    H238256   5.869   2.323  13.537 -0.4404  1.0619  0.1278
 5589TIP3   OH238257   0.477   2.890   1.466  0.0591  0.2736 -0.1993
 5589TIP3    H138258   0.539   2.880   1.538  3.0964  1.5523 -2.3983
 5589TIP3    H238259   0.474   2.984   1.450 -0.9416  0.0646 -1.3947
 5590TIP3   OH238260   6.259   4.718  14.210  0.7109  0.7772  0.1548
 5590TIP3    H138261   6.245   4.631  14.249 -1.6988  1.5381  1.1943
 5590TIP3    H238262   6.318   4.702  14.136 -1.2775 -2.1199 -0.9896
 5591TIP3   OH238263   5.675   0.796  14.769  0.0420  0.3814 -0.1829
 5591TIP3    H138264   5.609   0.768  14.705  0.8209  0.9597 -1.2849
 5591TIP3    H238265   5.728   0.860  14.721  0.5586  0.9495  1.1112
 5592TIP3   OH238266   4.590   0.515   4.789 -0.1247  0.3916  0.7450
 5592TIP3    H138267   4.583   0.554   4.701  1.1274  0.6667  0.7399
 5592TIP3    H238268   4.612   0.423   4.773  2.2679  0.8974  0.7134
 5593TIP3   OH238269   3.045   3.134  14.222  0.4356 -0.7477  0.1930
 5593TIP3    H138270   3.014   3.139  14.312  1.4744 -0.9841  0.5844
 5593TIP3    H238271   3.060   3.225  14.197 -0.2279 -0.6563  0.1161
 5594TIP3   OH238272   1.492   6.730   3.137 -0.1594 -0.1865  0.2311
 5594TIP3    H138273   1.579   6.715   3.174 -0.0156 -0.5273 -0.2273
 5594TIP3    H238274   1.509   6.768   3.050 -0.4135 -1.6653 -0.4990
 5595TIP3   OH238275   6.727   2.751  12.338 -0.2317 -0.2513 -0.2786
 5595TIP3    H138276   6.784   2.674  12.337  0.3454  0.1671 -1.0048
 5595TIP3    H238277   6.775   2.816  12.286  0.0012  1.1217  1.5852
 5596TIP3   OH238278   5.757   0.110  13.430 -0.3184 -0.3209 -0.2495
 5596TIP3    H138279   5.702   0.160  13.370 -1.9376 -0.8337  0.7356
 5596TIP3    H238280   5.752   0.020  13.397 -0.6087 -0.4783  0.2211
 5597TIP3   OH238281   0.124   6.576  11.342 -0.3338  0.0553  0.6152
 5597TIP3    H138282   0.059   6.511  11.316 -1.3386  0.8861  0.9789
 5597TIP3    H238283   0.205   6.548  11.300 -0.7270 -1.4595  0.8151
 5598TIP3   OH238284   2.083   5.516  13.033 -0.1145 -0.0318 -0.2369
 5598TIP3    H138285   2.028   5.566  13.093 -0.3606 -0.1426 -0.3695
 5598TIP3    H238286   2.158   5.488  13.086 -0.6964 -0.7594  0.2167
 5599TIP3   OH238287   4.387   4.662  13.891  0.0784 -0.5138 -0.1285
 5599TIP3    H138288   4.358   4.609  13.965 -0.8867 -1.6225 -1.2411
 5599TIP3    H238289   4.311   4.716  13.869  0.8044  0.8169  0.5082
 5600TIP3   OH238290   5.964   3.593  14.773  0.4460  0.3067  0.2365
 5600TIP3    H138291   6.031   3.620  14.836  2.2701 -0.4674 -1.2818
 5600TIP3    H238292   5.926   3.675  14.742  0.9502  0.7779  0.8451
 5601TIP3   OH238293   6.751   2.579   2.449 -0.1019  0.0389  0.5014
 5601TIP3    H138294   6.816   2.640   2.485  0.7190 -1.5415  1.8159
 5601TIP3    H238295   6.776   2.568   2.358 -1.0817  2.6605 -0.1767
 5602TIP3   OH238296   2.033   5.202   5.268  0.1617 -0.0158 -0.4104
 5602TIP3    H138297   2.117   5.193   5.313  0.7113  0.5284 -1.2967
 5602TIP3    H238298   2.042   5.147   5.190 -0.6534 -0.6813 -0.0460
 5603TIP3   OH238299   5.718   2.495   0.285 -0.1013 -0.2791 -0.7005
 5603TIP3    H138300   5.672   2.559   0.232  0.5727  1.8933  1.1604
 5603TIP3    H238301   5.785   2.546   0.331  0.0380 -2.1866  1.3836
 5604TIP3   OH238302   0.278   4.286  16.372  0.1115  0.6261  0.6322
 5604TIP3    H138303   0.316   4.371  16.393  0.7912  1.0147 -1.8258
 5604TIP3    H238304   0.197   4.307  16.325 -0.7953 -0.1419  1.8068
 5605TIP3   OH238305   5.272   1.484  15.426 -0.3278 -0.3255 -0.1177
 5605TIP3    H138306   5.211   1.473  15.500 -1.1242  1.0468 -0.5323
 5605TIP3    H238307   5.255   1.408  15.370 -1.2225 -0.2829  0.0771
 5606TIP3   OH238308   6.069   3.224   3.146  0.2732 -0.1220  0.0154
 5606TIP3    H138309   5.992   3.190   3.101 -0.2603 -0.2229  0.9647
 5606TIP3    H238310   6.143   3.182   3.103 -0.0989  0.9581 -1.7597
 5607TIP3   OH238311   5.337   0.968  14.834  0.5046  0.1963  0.4381
 5607TIP3    H138312   5.265   1.029  14.822 -1.9536 -2.5674 -0.1122
 5607TIP3    H238313   5.321   0.899  14.769  3.6934 -0.5890  0.3028
 5608TIP3   OH238314   3.700   2.249   5.481  0.3841 -0.0031 -0.3712
 5608TIP3    H138315   3.704   2.286   5.569  1.7512  0.1634 -0.4911
 5608TIP3    H238316   3.791   2.245   5.452 -0.1495  1.6647 -2.5046
 5609TIP3   OH238317   3.653   2.305  13.136  0.5188 -0.4105  0.5176
 5609TIP3    H138318   3.654   2.255  13.219  2.2973 -0.1381  0.7020
 5609TIP3    H238319   3.622   2.242  13.071 -3.2481 -0.0010  1.6761
 5610TIP3   OH238320   6.002   0.026  13.894 -0.7743  0.1527 -0.7882
 5610TIP3    H138321   5.999   0.067  13.808 -0.8716  3.2423  0.5657
 5610TIP3    H238322   6.083  -0.025  13.894 -0.2511  0.9510 -2.3429
 5611TIP3   OH238323   2.894   2.703  17.119 -0.3953 -0.3085  0.5076
 5611TIP3    H138324   2.850   2.642  17.059 -0.0036 -0.5920  0.4999
 5611TIP3    H238325   2.965   2.740  17.066 -0.2505 -0.3144  0.6942
 5612TIP3   OH238326   3.649   3.103  13.092 -0.6487 -0.2306 -0.5230
 5612TIP3    H138327   3.704   3.094  13.014  0.0749 -2.9004  0.1811
 5612TIP3    H238328   3.588   3.174  13.070  1.1057  0.7877 -2.5146
 5613TIP3   OH238329   1.807   0.390   3.941 -0.1671  0.2590 -0.0016
 5613TIP3    H138330   1.750   0.313   3.948  0.1592  0.1049  1.2011
 5613TIP3    H238331   1.783   0.429   3.857 -2.0428  0.1978  0.4483
 5614TIP3   OH238332   5.675   4.735  16.930  0.3469 -0.4500 -0.0322
 5614TIP3    H138333   5.689   4.648  16.892 -2.1474 -1.3757  1.0040
 5614TIP3    H238334   5.628   4.719  17.011  0.6151  1.8525  0.6480
 5615TIP3   OH238335   5.634   2.186  14.672  0.5400  0.1480  0.0968
 5615TIP3    H138336   5.646   2.280  14.660  0.2094  0.3186  0.9920
 5615TIP3    H238337   5.544   2.170  14.642  0.5284  0.1529  0.1290
 5616TIP3   OH238338   5.654   6.103   6.106  0.0909 -0.1992  0.2921
 5616TIP3    H138339   5.598   6.171   6.068 -1.8681 -1.9270 -0.0687
 5616TIP3    H238340   5.690   6.057   6.030 -1.0204 -1.4334  0.4838
 5617TIP3   OH238341   0.884   2.040   4.375 -0.7103  0.1300 -0.3309
 5617TIP3    H138342   0.856   1.950   4.393  0.5321 -0.0414  0.9468
 5617TIP3    H238343   0.924   2.070   4.457  2.5073  0.4151 -1.8270
 5618TIP3   OH238344   4.364   3.874   3.401 -0.3576 -0.0740  0.5290
 5618TIP3    H138345   4.426   3.910   3.339  0.9136 -2.1651  0.4992
 5618TIP3    H238346   4.406   3.884   3.486 -0.4004 -0.6563  0.6212
 5619TIP3   OH238347   0.825   2.101   2.348 -0.1530  0.1918  0.1333
 5619TIP3    H138348   0.917   2.126   2.350  0.2458 -0.6174 -2.9030
 5619TIP3    H238349   0.777   2.183   2.358  0.8856  0.7097  1.0690
 5620TIP3   OH238350   1.504   1.297  15.294  0.1433 -0.1380  0.1573
 5620TIP3    H138351   1.416   1.335  15.301  0.0408 -0.3670  0.1012
 5620TIP3    H238352   1.509   1.263  15.205 -0.2181 -1.3725  0.5945
 5621TIP3   OH238353   1.840   0.312   5.431 -0.0970  0.3260  0.5496
 5621TIP3    H138354   1.847   0.268   5.516  0.6281  0.5348  0.6059
 5621TIP3    H238355   1.759   0.278   5.393 -1.8444  2.0874  2.4056
 5622TIP3   OH238356   2.423   3.681  12.601 -0.8390  0.5919 -0.2584
 5622TIP3    H138357   2.371   3.646  12.673  0.6131 -3.0080 -0.7603
 5622TIP3    H238358   2.375   3.657  12.523  0.1060 -0.1894 -0.6208
 5623TIP3   OH238359   4.086   5.612   5.176  0.0772 -0.2744  0.3784
 5623TIP3    H138360   4.087   5.520   5.149 -1.2496  0.6081 -3.2628
 5623TIP3    H238361   4.176   5.643   5.160 -0.0147 -0.4413 -0.4999
 5624TIP3   OH238362   5.817   6.112   2.012  0.1981  0.2820  0.1061
 5624TIP3    H138363   5.877   6.075   2.077 -1.0699  0.6863  1.5858
 5624TIP3    H238364   5.732   6.071   2.033  0.0944 -1.1394 -2.6188
 5625TIP3   OH238365   4.024   1.799   0.146  0.3110  0.0096 -0.1687
 5625TIP3    H138366   3.999   1.880   0.101 -1.2953 -0.4436 -0.1679
 5625TIP3    H238367   4.062   1.745   0.077 -0.3988  0.0401 -0.5987
 5626TIP3   OH238368   6.673   5.683   6.680  0.3829  0.1319 -0.4849
 5626TIP3    H138369   6.679   5.778   6.688  0.7976  0.0815 -0.1482
 5626TIP3    H238370   6.762   5.654   6.659  0.4891 -0.2707  0.4587
 5627TIP3   OH238371   0.693   0.084   1.603 -0.1879 -0.7131  0.0844
 5627TIP3    H138372   0.742   0.040   1.672  0.1338  0.4432  0.6137
 5627TIP3    H238373   0.747   0.071   1.524  2.6193  2.8965  1.1216
 5628TIP3   OH238374   2.631   4.563  15.109 -0.2569  0.1101 -0.2923
 5628TIP3    H138375   2.636   4.468  15.115 -0.2927 -0.0150 -1.8327
 5628TIP3    H238376   2.605   4.580  15.019  1.8146  1.6441 -0.6671
 5629TIP3   OH238377   4.999   6.628   2.825 -0.2959 -0.8512  0.1744
 5629TIP3    H138378   4.985   6.534   2.818 -0.9514 -0.9070  1.7219
 5629TIP3    H238379   4.945   6.654   2.900  0.7110  0.5649  0.4394
 5630TIP3   OH238380   2.467   3.666  16.079 -0.5500  0.2436  0.5037
 5630TIP3    H138381   2.514   3.592  16.041  0.0746  0.2723  1.1909
 5630TIP3    H238382   2.444   3.637  16.167  0.4867  1.1692  1.1062
 5631TIP3   OH238383   5.671   2.341   1.607 -0.1185 -0.6679 -0.6812
 5631TIP3    H138384   5.614   2.290   1.664 -0.3663 -0.9775 -1.1943
 5631TIP3    H238385   5.633   2.330   1.519 -0.5641  0.9110 -0.7301
 5632TIP3   OH238386   6.781   0.325  15.731  0.1839  0.2869 -0.2101
 5632TIP3    H138387   6.753   0.265  15.800 -0.3015  0.3805 -0.3183
 5632TIP3    H238388   6.700   0.350  15.687  0.6402 -1.3813 -2.1711
 5633TIP3   OH238389   5.719   4.762   2.003  0.5735  0.1361  0.1557
 5633TIP3    H138390   5.755   4.751   2.091  3.2226  2.1509 -0.5468
 5633TIP3    H238391   5.624   4.764   2.016  0.7240 -2.2935  2.5585
 5634TIP3   OH238392   5.390   5.185   1.034 -0.1889 -0.0005  0.2188
 5634TIP3    H138393   5.313   5.236   1.009  0.7632  1.2267 -0.3813
 5634TIP3    H238394   5.391   5.187   1.130 -2.0608 -1.9018  0.3365
 5635TIP3   OH238395   6.141   1.603  12.303 -0.0949  0.5049  0.4108
 5635TIP3    H138396   6.124   1.584  12.211  1.1928 -3.9085  0.8505
 5635TIP3    H238397   6.235   1.615  12.309 -0.0562 -0.1436  1.2850
 5636TIP3   OH238398   3.645   0.777  16.706  0.7641 -0.2322  0.4456
 5636TIP3    H138399   3.631   0.682  16.707 -0.5714 -0.0588  0.6375
 5636TIP3    H238400   3.687   0.795  16.622  0.4864 -0.9249  0.1519
 5637TIP3   OH238401   5.425   3.571   2.963 -0.0402  0.4469 -0.2821
 5637TIP3    H138402   5.391   3.634   2.899  0.6653  0.2964 -0.8311
 5637TIP3    H238403   5.512   3.605   2.985  0.1414 -0.0593 -0.2024
 5638TIP3   OH238404   4.738   6.559   6.741  0.1123 -0.4589  0.0556
 5638TIP3    H138405   4.742   6.479   6.689  0.4336  1.1805 -2.6339
 5638TIP3    H238406   4.822   6.561   6.788 -0.4038 -2.2468  1.1309
 5639TIP3   OH238407   6.837   1.867   3.289 -0.0288  0.0048 -0.2293
 5639TIP3    H138408   6.858   1.925   3.216  0.5059 -0.3828 -0.3919
 5639TIP3    H238409   6.758   1.820   3.262  0.5389 -0.6160 -0.8450
 5640TIP3   OH238410   3.720   6.467  14.433 -0.3222 -0.7432 -0.0628
 5640TIP3    H138411   3.718   6.448  14.527 -0.8264 -0.1524  0.0561
 5640TIP3    H238412   3.734   6.562  14.429  2.4916 -1.0794 -0.6202
 5641TIP3   OH238413   3.147   3.385   2.528  0.4897  0.3993 -0.4022
 5641TIP3    H138414   3.193   3.379   2.612 -0.7504 -2.1586  0.2072
 5641TIP3    H238415   3.211   3.354   2.463  0.8347  0.5054 -0.1127
 5642TIP3   OH238416   4.929   0.106  11.019  0.7940 -0.0392 -0.3028
 5642TIP3    H138417   4.934   0.016  10.988  3.0130 -0.1192  0.1153
 5642TIP3    H238418   4.928   0.159  10.939 -1.9306 -0.4116 -0.5883
 5643TIP3   OH238419   5.981   0.895   5.359  0.7299 -0.4128  0.0686
 5643TIP3    H138420   6.015   0.890   5.448 -0.1897 -1.1990  0.3950
 5643TIP3    H238421   6.035   0.961   5.316  0.8068  0.4072  1.3773
 5644TIP3   OH238422   2.172   4.220   3.343  0.1120 -0.3902 -0.6805
 5644TIP3    H138423   2.235   4.261   3.284  2.1442 -1.7153  0.4841
 5644TIP3    H238424   2.192   4.257   3.429 -0.8710 -0.6594 -0.3231
 5645TIP3   OH238425   3.843   0.885  10.795  0.1326 -0.1748  0.1611
 5645TIP3    H138426   3.779   0.864  10.864 -2.1249  2.0872 -1.0790
 5645TIP3    H238427   3.834   0.815  10.732  0.6040 -1.0924  1.0794
 5646TIP3   OH238428   4.040   1.410  11.267 -0.5292  0.7356 -0.3181
 5646TIP3    H138429   4.092   1.371  11.197  1.4730 -1.3913  2.1425
 5646TIP3    H238430   3.966   1.350  11.278 -1.2476  1.4658 -1.0354
 5647TIP3   OH238431   1.051   5.898   6.012 -0.2875 -0.2418 -0.6558
 5647TIP3    H138432   0.997   5.976   6.000  0.8136  1.6764  4.2059
 5647TIP3    H238433   1.140   5.927   5.992 -0.0965 -0.8975 -0.7805
 5648TIP3   OH238434   3.743   5.165  14.423  0.3974  0.2614 -0.1962
 5648TIP3    H138435   3.721   5.149  14.331  0.2261 -1.4614  0.1004
 5648TIP3    H238436   3.806   5.096  14.444  0.6145  0.7811  0.9253
 5649TIP3   OH238437   5.541   1.109  13.119 -0.1356  0.2701 -0.4311
 5649TIP3    H138438   5.635   1.123  13.133 -0.1353 -0.4608  0.4101
 5649TIP3    H238439   5.524   1.147  13.033  1.2906 -1.0918 -1.3834
 5650TIP3   OH238440   3.945   1.299   2.024 -0.6742 -0.0819 -0.0651
 5650TIP3    H138441   3.925   1.391   2.038  0.4198  0.5207 -2.0456
 5650TIP3    H238442   3.938   1.287   1.929  1.1409 -1.5167 -0.0872
 5651TIP3   OH238443   0.078   2.012  12.486 -0.2500 -0.3158 -0.3653
 5651TIP3    H138444   0.100   1.922  12.461 -1.5800 -0.5458 -0.8281
 5651TIP3    H238445   0.001   2.002  12.543  0.2321  0.4778  0.4573
 5652TIP3   OH238446   5.339   1.512  16.984  0.0855  0.2881 -0.0308
 5652TIP3    H138447   5.368   1.596  17.019  1.9317 -0.3195  0.0006
 5652TIP3    H238448   5.415   1.454  16.995 -0.3551 -0.7785 -2.1376
 5653TIP3   OH238449   4.067   2.996   6.234 -0.4331  0.0498  0.1169
 5653TIP3    H138450   4.085   2.904   6.214 -0.4233 -0.3660  1.9078
 5653TIP3    H238451   3.976   2.997   6.262  0.1266  0.1993  2.0762
 5654TIP3   OH238452   1.290   5.645  16.354 -0.5519 -0.0584 -0.4878
 5654TIP3    H138453   1.367   5.695  16.326 -0.8748  0.1747 -0.9905
 5654TIP3    H238454   1.219   5.679  16.299 -0.8377 -0.8682 -0.6363
 5655TIP3   OH238455   6.725   3.729  11.554  0.2058 -0.2425 -0.1083
 5655TIP3    H138456   6.707   3.770  11.470  1.4001 -2.1382 -1.3497
 5655TIP3    H238457   6.817   3.705  11.551  0.2810 -0.3874  1.7522
 5656TIP3   OH238458   2.112   3.893   5.257  0.0131  0.2555  0.3832
 5656TIP3    H138459   2.044   3.943   5.211  2.0191  1.4759 -1.4304
 5656TIP3    H238460   2.132   3.945   5.335 -0.2823  0.4843  0.3080
 5657TIP3   OH238461   2.902   5.222  10.997 -0.4300 -0.1418 -0.0907
 5657TIP3    H138462   2.907   5.174  11.080 -3.3140 -0.1708  0.1422
 5657TIP3    H238463   2.952   5.302  11.014  1.3027 -1.3197  0.7268
 5658TIP3   OH238464   2.809   0.823  14.415  0.2296  0.0429 -0.0642
 5658TIP3    H138465   2.856   0.885  14.470  3.1274 -1.5250 -0.5360
 5658TIP3    H238466   2.735   0.795  14.468  1.9698 -0.1664  2.4669
 5659TIP3   OH238467   0.887   3.682   0.728  0.4548  0.4644  0.5093
 5659TIP3    H138468   0.833   3.605   0.746 -0.2661  1.1554  1.4099
 5659TIP3    H238469   0.834   3.756   0.758  1.2004  1.3028 -0.1952
 5660TIP3   OH238470   1.967   4.901  15.390 -0.3958  0.2497 -0.4052
 5660TIP3    H138471   1.872   4.892  15.395 -0.3546  0.3421  0.6066
 5660TIP3    H238472   1.999   4.811  15.383 -0.4107 -0.0401  2.3016
 5661TIP3   OH238473   3.654   2.185  17.101 -0.0647 -0.0945 -0.0830
 5661TIP3    H138474   3.695   2.147  17.024 -0.6102  0.9625 -0.9266
 5661TIP3    H238475   3.591   2.249  17.066  1.0684  1.8539  1.2303
 5662TIP3   OH238476   0.447   5.101   2.616 -0.4933 -0.2771 -0.7253
 5662TIP3    H138477   0.451   5.049   2.697 -1.0892  0.3741 -0.2652
 5662TIP3    H238478   0.534   5.138   2.607 -0.3163 -0.6459 -0.5805
 5663TIP3   OH238479   0.297   0.359  11.496  0.3264  0.3046  0.9015
 5663TIP3    H138480   0.218   0.367  11.550  0.1951  0.5102  0.6767
 5663TIP3    H238481   0.326   0.449  11.483  1.0808  0.1947  1.6986
 5664TIP3   OH238482   5.567   6.477  13.985  0.4022 -0.3061  0.8072
 5664TIP3    H138483   5.650   6.430  13.983  0.5079 -0.0900 -1.0306
 5664TIP3    H238484   5.590   6.565  14.014  0.3470 -0.9890  3.2226
 5665TIP3   OH238485   4.622   3.831  15.833 -0.2349  1.0646  0.3609
 5665TIP3    H138486   4.549   3.771  15.847 -0.6180  1.6535  0.9171
 5665TIP3    H238487   4.632   3.877  15.917  1.1337  0.5992  0.4815
 5666TIP3   OH238488   1.864   3.467  11.435  0.0874 -0.2829  0.1583
 5666TIP3    H138489   1.815   3.390  11.463  2.0485 -2.4063 -1.7925
 5666TIP3    H238490   1.956   3.444  11.452  0.6713  2.2629  0.8686
 5667TIP3   OH238491   0.079   3.709   1.007 -0.4787  0.2932  0.1538
 5667TIP3    H138492   0.150   3.767   0.980  0.0372 -0.4377 -0.1161
 5667TIP3    H238493   0.005   3.767   1.024  0.4576  1.1796  1.4110
 5668TIP3   OH238494   1.753   4.180   2.940  0.4765 -0.0350  0.3058
 5668TIP3    H138495   1.754   4.270   2.973  0.1517  0.2200 -0.3481
 5668TIP3    H238496   1.831   4.174   2.885 -0.3051  0.3437 -0.8855
 5669TIP3   OH238497   1.398   1.919   2.284  0.3435  0.2935 -0.3214
 5669TIP3    H138498   1.362   1.872   2.358  0.2875  1.2863  0.2935
 5669TIP3    H238499   1.488   1.888   2.277 -0.1081 -0.9611 -0.8343
 5670TIP3   OH238500   6.188   6.321  12.571 -0.2914  0.3776 -0.2218
 5670TIP3    H138501   6.277   6.352  12.555  0.7069 -1.9607  0.3946
 5670TIP3    H238502   6.147   6.320  12.485  0.5250  0.7843 -0.6217
 5671TIP3   OH238503   6.813   4.185  11.402  0.2163  0.4896 -0.3236
 5671TIP3    H138504   6.780   4.194  11.312 -0.7978  0.0005 -0.0144
 5671TIP3    H238505   6.820   4.275  11.434 -2.6258  0.6023  0.2068
 5672TIP3   OH238506   4.396   6.338  12.536  0.4174 -0.0645  0.3355
 5672TIP3    H138507   4.315   6.298  12.568  0.9794 -1.2696  0.3179
 5672TIP3    H238508   4.384   6.432  12.550 -1.3694 -0.1356 -0.5813
 5673TIP3   OH238509   3.629   5.793   4.805  0.2019 -0.0626 -0.0639
 5673TIP3    H138510   3.542   5.784   4.765  0.1473  0.2381 -0.0162
 5673TIP3    H238511   3.690   5.791   4.732  0.3249 -2.3438  0.0292
 5674TIP3   OH238512   0.492   1.253  17.055  0.0278 -0.0515 -0.3099
 5674TIP3    H138513   0.495   1.180  16.992 -4.3446  0.0512 -0.9154
 5674TIP3    H238514   0.416   1.235  17.109  0.2929  2.8311  1.2019
 5675TIP3   OH238515   3.153   6.489   1.903 -0.3174 -0.1108 -0.1946
 5675TIP3    H138516   3.152   6.458   1.812 -2.4184  1.6463 -0.8768
 5675TIP3    H238517   3.144   6.410   1.956  3.9249 -1.5391 -1.2524
 5676TIP3   OH238518   2.082   5.283   2.956  0.6111 -0.2775 -0.0811
 5676TIP3    H138519   2.005   5.284   3.012  0.6472 -2.4638  0.0884
 5676TIP3    H238520   2.113   5.374   2.956 -3.3302  1.3004 -2.1700
 5677TIP3   OH238521   3.093   2.841   3.438  0.1998  0.6967  0.2463
 5677TIP3    H138522   3.124   2.898   3.368 -0.8536 -0.3535 -1.1168
 5677TIP3    H238523   2.999   2.831   3.421  0.5568 -2.4746 -0.3452
 5678TIP3   OH238524   3.336   1.288  15.560 -0.7895 -0.5968 -0.4302
 5678TIP3    H138525   3.321   1.382  15.546 -0.4780 -0.6307 -1.0200
 5678TIP3    H238526   3.321   1.249  15.474  1.1557 -0.8238 -0.7004
 5679TIP3   OH238527   1.408   4.966   2.821  0.2626  0.0927  0.3274
 5679TIP3    H138528   1.405   4.877   2.785  0.7121  0.5826 -0.9787
 5679TIP3    H238529   1.354   4.961   2.900  1.9301 -1.8192  1.4293
 5680TIP3   OH238530   6.663   4.639   2.365 -0.1269  0.2709 -0.1359
 5680TIP3    H138531   6.672   4.664   2.457  0.3118  1.4706 -0.4965
 5680TIP3    H238532   6.729   4.571   2.353  1.0538  1.3533  0.0042
 5681TIP3   OH238533   1.883   3.730   1.502 -0.1912 -0.5422  0.2718
 5681TIP3    H138534   1.789   3.722   1.514 -0.0428 -2.1235  0.5851
 5681TIP3    H238535   1.892   3.780   1.420 -1.3134 -1.3374 -0.3711
 5682TIP3   OH238536   5.682   3.086  12.816  0.3331  0.1520  0.2914
 5682TIP3    H138537   5.733   3.006  12.826 -0.3253 -0.0824  2.3483
 5682TIP3    H238538   5.591   3.058  12.828 -0.3068  0.6596 -2.7058
 5683TIP3   OH238539   2.624   2.691  14.569 -0.3480 -0.6222 -0.7492
 5683TIP3    H138540   2.563   2.726  14.505 -2.6873  1.1055  2.1722
 5683TIP3    H238541   2.700   2.749  14.563 -0.8277 -0.0399 -1.4484
 5684TIP3   OH238542   3.616   0.334  14.597 -0.1609  0.4591  0.2702
 5684TIP3    H138543   3.594   0.291  14.680  1.5636 -0.9779  0.0604
 5684TIP3    H238544   3.543   0.313  14.539 -0.3617 -0.3903  0.8156
 5685TIP3   OH238545   4.718   2.736   4.053  0.5611 -0.6507 -0.7642
 5685TIP3    H138546   4.812   2.721   4.041  0.5293 -1.5480  0.0415
 5685TIP3    H238547   4.677   2.680   3.988  0.5365 -1.7745  0.1968
 5686TIP3   OH238548   1.609   4.182  12.959 -0.3361 -0.6162 -0.3860
 5686TIP3    H138549   1.618   4.230  12.876  1.7742  1.2923  0.8406
 5686TIP3    H238550   1.562   4.243  13.016 -0.4054 -1.3003  0.2969
 5687TIP3   OH238551   2.720   4.755  14.233  0.2645 -0.3503 -0.1567
 5687TIP3    H138552   2.712   4.849  14.251  0.0064 -0.1748 -1.1337
 5687TIP3    H238553   2.813   4.736  14.249  0.6844  0.4210 -1.4700
 5688TIP3   OH238554   5.345   0.642   0.321 -0.3673 -0.3234  0.1057
 5688TIP3    H138555   5.269   0.699   0.311  0.2469  0.2084 -2.0336
 5688TIP3    H238556   5.316   0.557   0.288 -0.0561 -0.1324 -0.6676
 5689TIP3   OH238557   6.048   4.444  13.347 -0.1715  0.2903  0.2795
 5689TIP3    H138558   6.129   4.477  13.307 -0.9135  2.3386  0.3409
 5689TIP3    H238559   6.043   4.490  13.431 -0.6693 -0.9498  0.9583
 5690TIP3   OH238560   3.887   2.133   0.070  0.1084  0.0251  0.5109
 5690TIP3    H138561   3.891   2.109  -0.023  0.7314  1.1454  0.2368
 5690TIP3    H238562   3.806   2.182   0.078  1.2916  2.1773 -0.0223
 5691TIP3   OH238563   0.080   6.259   2.532  0.4681 -1.0493  0.3670
 5691TIP3    H138564   0.004   6.308   2.562  1.8014  2.1613 -1.1081
 5691TIP3    H238565   0.044   6.184   2.485 -1.8582  0.9062 -1.1660
 5692TIP3   OH238566   3.188   4.491   2.354  0.0912  0.1995 -0.6261
 5692TIP3    H138567   3.117   4.543   2.392  0.7740  0.2595  0.6124
 5692TIP3    H238568   3.188   4.410   2.405  0.9903  0.2608 -0.5173
 5693TIP3   OH238569   0.434   4.564   4.766  0.0654  0.8094 -0.9964
 5693TIP3    H138570   0.429   4.532   4.676  1.7591 -1.5498 -0.3679
 5693TIP3    H238571   0.510   4.622   4.766  2.2587 -1.8347 -0.5284
 5694TIP3   OH238572   3.019   2.490  15.717 -0.4915  0.2580 -0.0280
 5694TIP3    H138573   3.091   2.428  15.708  0.1243  0.9818 -0.1643
 5694TIP3    H238574   2.999   2.516  15.627 -2.0404 -1.1633 -0.1483
 5695TIP3   OH238575   2.360   0.327  14.735 -0.9184 -0.3610 -0.0033
 5695TIP3    H138576   2.339   0.367  14.650 -2.1026 -0.1743  0.3529
 5695TIP3    H238577   2.382   0.401  14.791 -0.3695 -0.4633 -0.0828
 5696TIP3   OH238578   2.560   0.621  15.583 -0.2702  0.1470  0.6639
 5696TIP3    H138579   2.513   0.691  15.627 -0.4083  1.0735 -0.8913
 5696TIP3    H238580   2.569   0.553  15.650 -1.6103  0.9489  1.7247
 5697TIP3   OH238581   5.749   3.259  11.243  0.3601 -0.4352 -0.2285
 5697TIP3    H138582   5.829   3.311  11.255  0.8761 -1.1594 -0.4085
 5697TIP3    H238583   5.685   3.321  11.209  0.0750  0.7388  2.2655
 5698TIP3   OH238584   1.664   5.491  15.080 -0.0169 -0.3314  0.2972
 5698TIP3    H138585   1.700   5.579  15.088 -0.4535 -0.2875  2.0181
 5698TIP3    H238586   1.582   5.493  15.129 -0.2224 -1.6037  0.0580
 5699TIP3   OH238587   0.060   6.842   3.701 -0.1870 -0.8364 -0.5487
 5699TIP3    H138588   0.120   6.774   3.670 -1.0241 -0.6316 -2.8561
 5699TIP3    H238589   0.047   6.899   3.625  0.5561  2.0150  1.3345
 5700TIP3   OH238590   2.404   2.549  11.126 -0.0978 -0.0776  0.1107
 5700TIP3    H138591   2.348   2.477  11.096  0.8926 -0.3086 -1.2774
 5700TIP3    H238592   2.492   2.512  11.126  0.2681  0.7752  0.6164
 5701TIP3   OH238593   0.225   6.281  14.502 -0.1443  0.4601 -0.0735
 5701TIP3    H138594   0.155   6.300  14.440 -0.9764 -0.3348  0.5883
 5701TIP3    H238595   0.189   6.213  14.559  0.9653  0.4364  0.6396
 5702TIP3   OH238596   2.691   3.753   5.132 -0.1124  0.0614 -0.4417
 5702TIP3    H138597   2.777   3.712   5.146  0.0102 -0.4182 -2.2785
 5702TIP3    H238598   2.667   3.728   5.042 -1.6258  1.1984 -0.3970
 5703TIP3   OH238599   4.189   0.317   5.382 -0.3204  0.2109 -0.0708
 5703TIP3    H138600   4.151   0.397   5.417  0.2851  1.6146 -2.3488
 5703TIP3    H238601   4.281   0.339   5.368 -0.0746 -0.9893 -0.4590
 5704TIP3   OH238602   1.646   0.318  11.328 -0.2620 -0.0108 -0.0677
 5704TIP3    H138603   1.711   0.369  11.280  1.0265 -1.1225  0.4089
 5704TIP3    H238604   1.684   0.307  11.415 -1.6536  0.3157  0.6063
 5705TIP3   OH238605   0.854   3.162  14.509 -0.1675  0.5152 -0.0182
 5705TIP3    H138606   0.888   3.138  14.423 -0.1785 -0.3332  0.2031
 5705TIP3    H238607   0.880   3.254  14.520 -1.5293  1.1265 -1.5743
 5706TIP3   OH238608   1.524   0.217  15.185  0.0199 -0.3200  0.2974
 5706TIP3    H138609   1.508   0.216  15.091  1.1402  1.0813  0.0501
 5706TIP3    H238610   1.565   0.133  15.204 -0.9847 -0.9619 -0.2975
 5707TIP3   OH238611   6.839   2.954   1.145 -0.2183 -0.2867  0.0795
 5707TIP3    H138612   6.809   2.960   1.055  3.3063 -0.8814 -1.3182
 5707TIP3    H238613   6.912   2.892   1.142  0.2517 -0.0829  3.2866
 5708TIP3   OH238614   6.664   1.928  15.080 -0.6530  0.2979 -0.1585
 5708TIP3    H138615   6.720   1.899  15.008 -1.0654  0.9627 -0.7544
 5708TIP3    H238616   6.630   1.846  15.118 -1.9558 -0.0422 -1.9414
 5709TIP3   OH238617   0.510   0.115   5.505 -0.6474 -0.6424 -0.2199
 5709TIP3    H138618   0.586   0.104   5.448  0.1130 -1.7967  0.9532
 5709TIP3    H238619   0.435   0.118   5.446  0.2284 -0.3739 -1.3517
 5710TIP3   OH238620   5.824   5.449   0.032 -0.2090  0.5656 -0.4718
 5710TIP3    H138621   5.855   5.371  -0.014  0.8661 -0.0642  1.2460
 5710TIP3    H238622   5.746   5.476  -0.017 -2.1190 -3.0251  0.2120
 5711TIP3   OH238623   6.648   5.851  16.937  0.5252 -0.0078 -0.2327
 5711TIP3    H138624   6.706   5.787  16.895 -0.8402 -1.5666  0.1610
 5711TIP3    H238625   6.565   5.843  16.889 -0.0600  0.5180  0.6761
 5712TIP3   OH238626   0.958   5.197  12.263 -0.2141 -0.0797 -0.1411
 5712TIP3    H138627   1.045   5.160  12.247 -0.4356 -1.0112  0.7232
 5712TIP3    H238628   0.975   5.283  12.302  0.3335 -0.3651  0.2641
 5713TIP3   OH238629   0.304   1.292   4.735 -0.6680 -0.1413 -0.5112
 5713TIP3    H138630   0.231   1.342   4.773 -1.6294 -0.2124 -2.1806
 5713TIP3    H238631   0.270   1.204   4.725  0.2752 -0.6228  0.3351
 5714TIP3   OH238632   0.074   3.835  16.986 -0.7221 -0.3302  0.0640
 5714TIP3    H138633   0.024   3.913  17.011  0.5303  1.1884 -1.8533
 5714TIP3    H238634   0.102   3.796  17.069 -2.5905  0.4164  1.1008
 5715TIP3   OH238635   5.398   4.059  12.214 -0.2977 -0.1902  0.3144
 5715TIP3    H138636   5.363   4.148  12.220 -0.3860 -0.0347 -1.7118
 5715TIP3    H238637   5.326   4.003  12.241 -0.3936  0.3357  1.1724
 5716TIP3   OH238638   2.312   3.996   2.975  0.7464  0.2069  0.0084
 5716TIP3    H138639   2.280   3.956   3.056  2.4163 -0.5116  0.3650
 5716TIP3    H238640   2.355   3.924   2.928  3.1664  1.3370  0.3127
 5717TIP3   OH238641   0.005   6.041   1.392 -0.5179 -0.0425 -0.1370
 5717TIP3    H138642  -0.071   6.071   1.341 -1.0415  1.0080  1.1856
 5717TIP3    H238643  -0.005   5.946   1.397 -3.2129  0.2229  2.0916
 5718TIP3   OH238644   2.786   3.948   2.210 -0.1348  0.8150 -0.4250
 5718TIP3    H138645   2.729   3.951   2.133 -1.0782  1.1001  0.2653
 5718TIP3    H238646   2.812   3.856   2.217  0.6640  0.9295 -1.5698
 5719TIP3   OH238647   0.951   0.889   3.710 -0.0201 -0.1437 -0.0253
 5719TIP3    H138648   0.856   0.899   3.710 -0.3050 -2.0967  2.5387
 5719TIP3    H238649   0.983   0.966   3.758 -0.1822  0.7857 -1.3260
 5720TIP3   OH238650   6.047   0.999   1.952  0.4870  0.0968 -0.0666
 5720TIP3    H138651   6.057   1.095   1.952  0.1854  0.1488  1.5906
 5720TIP3    H238652   5.976   0.983   1.889 -0.9900  1.1582  1.2506
 5721TIP3   OH238653   2.956   0.148  12.197  0.4127 -0.1958  0.0275
 5721TIP3    H138654   3.027   0.107  12.147  0.5045  0.4778 -0.4044
 5721TIP3    H238655   2.975   0.242  12.193 -0.7441  0.0342 -0.4706
 5722TIP3   OH238656   2.956   0.173  13.460 -0.0511  0.2004  0.4921
 5722TIP3    H138657   2.943   0.081  13.439  1.0758  0.0076  0.5714
 5722TIP3    H238658   3.044   0.177  13.499  1.1302  1.6906 -2.0229
 5723TIP3   OH238659   1.821   2.101  16.055  0.6191  0.0442 -0.2632
 5723TIP3    H138660   1.784   2.048  15.984 -2.7367 -0.3410  1.5870
 5723TIP3    H238661   1.794   2.191  16.035  0.0625 -0.0023  0.2483
 5724TIP3   OH238662   1.650   2.559  16.893 -0.5712 -0.6546  0.1537
 5724TIP3    H138663   1.642   2.470  16.861 -0.3583 -0.8649  0.6845
 5724TIP3    H238664   1.721   2.556  16.957 -0.5679 -0.1088  0.1828
 5725TIP3   OH238665   6.529   0.817   6.163 -0.2514 -0.3460  0.2031
 5725TIP3    H138666   6.491   0.742   6.209  1.8480 -1.4273  0.2630
 5725TIP3    H238667   6.566   0.872   6.233 -1.0564  0.3690  0.0926
 5726TIP3   OH238668   2.467   6.470   5.681 -0.2759 -0.1309  0.1400
 5726TIP3    H138669   2.534   6.429   5.736  1.1155  0.7606 -0.8148
 5726TIP3    H238670   2.418   6.527   5.741  0.3606 -0.1656  0.7029
 5727TIP3   OH238671   6.213   4.733  12.522  0.2343 -0.2289 -0.0130
 5727TIP3    H138672   6.138   4.702  12.574  0.1056  1.4184  0.8264
 5727TIP3    H238673   6.192   4.707  12.433 -0.5039 -1.3282  0.4599
 5728TIP3   OH238674   6.217   4.839   4.321 -0.4759  0.3326 -0.3636
 5728TIP3    H138675   6.191   4.793   4.241  0.7185  2.1499 -1.9042
 5728TIP3    H238676   6.144   4.897   4.340 -1.4115 -1.1574  0.8086
 5729TIP3   OH238677   4.001   6.717  16.789 -0.0478  0.0414  0.1560
 5729TIP3    H138678   4.021   6.699  16.697  0.5529 -0.3669  0.3542
 5729TIP3    H238679   3.920   6.767  16.788  0.3617  0.7048 -0.6384
 5730TIP3   OH238680   5.320   4.048  13.607  0.0692 -0.7310  0.4534
 5730TIP3    H138681   5.251   4.018  13.548 -0.0434 -0.7859  0.6114
 5730TIP3    H238682   5.284   4.128  13.646  0.3923 -0.3509 -0.0140
 5731TIP3   OH238683   6.578   1.226  11.278 -0.1476 -0.3303  0.2726
 5731TIP3    H138684   6.547   1.201  11.191  2.8103  2.0185 -1.6489
 5731TIP3    H238685   6.590   1.321  11.274  1.5775 -0.3419  2.7060
 5732TIP3   OH238686   5.111   4.375  13.438  0.2580 -0.9770  0.2087
 5732TIP3    H138687   5.032   4.323  13.422  0.1200 -0.3922 -1.1516
 5732TIP3    H238688   5.177   4.338  13.379  0.2986  0.0559 -0.4091
 5733TIP3   OH238689   4.750   6.098   1.384  0.1072  0.0812  0.2885
 5733TIP3    H138690   4.753   6.109   1.479 -0.3419 -0.3680  0.3639
 5733TIP3    H238691   4.680   6.157   1.355 -0.3453 -0.4165  0.3473
 5734TIP3   OH238692   3.090   4.854  12.408  0.5455 -0.2392  0.0409
 5734TIP3    H138693   3.133   4.795  12.470 -0.6574 -0.1017  1.0726
 5734TIP3    H238694   3.161   4.895  12.360  1.6389  0.6160  2.2250
 5735TIP3   OH238695   4.559   4.121   0.779 -0.1828 -0.3434  0.3347
 5735TIP3    H138696   4.556   4.195   0.718 -0.6583  1.5738  2.5292
 5735TIP3    H238697   4.643   4.132   0.824  0.8920 -2.6501 -0.9823
 5736TIP3   OH238698   4.209   1.258  13.154 -0.4912  0.4568  0.9072
 5736TIP3    H138699   4.283   1.272  13.213  0.3528  2.7916 -0.5464
 5736TIP3    H238700   4.151   1.332  13.170 -1.6617 -0.4067  0.7738
 5737TIP3   OH238701   1.706   0.539   1.975 -0.0952 -0.3005 -0.4734
 5737TIP3    H138702   1.779   0.480   1.994 -0.0947  0.1058  0.9473
 5737TIP3    H238703   1.642   0.519   2.043 -0.6004  0.4900 -0.7106
 5738TIP3   OH238704   5.293   4.914   4.030  0.2756 -0.4239  0.1081
 5738TIP3    H138705   5.216   4.917   4.087  0.3870 -0.1404  0.2434
 5738TIP3    H238706   5.274   4.978   3.962  0.4421 -0.2712  0.2049
 5739TIP3   OH238707   1.176   0.542  12.902 -0.2760  0.8277  0.0713
 5739TIP3    H138708   1.234   0.577  12.969  1.0526 -1.7888  0.4113
 5739TIP3    H238709   1.230   0.537  12.823 -1.0348  1.3912 -0.5005
 5740TIP3   OH238710   5.062   3.595   4.300 -0.6612 -0.1941  0.0524
 5740TIP3    H138711   5.086   3.558   4.215 -0.5642  0.2566 -0.1149
 5740TIP3    H238712   4.967   3.580   4.307 -1.0429  1.4962 -0.9973
 5741TIP3   OH238713   1.100   5.515  10.979  0.2054 -0.1201  0.0886
 5741TIP3    H138714   1.061   5.442  10.932 -1.2804  0.3921  0.4766
 5741TIP3    H238715   1.035   5.539  11.045  1.8963 -0.3481  1.9574
 5742TIP3   OH238716   5.539   6.324   1.770 -0.1088  0.4768 -0.2214
 5742TIP3    H138717   5.455   6.326   1.724  0.1047 -1.0763 -0.7374
 5742TIP3    H238718   5.565   6.232   1.769  0.0025  0.3878  2.8709
 5743TIP3   OH238719   3.884   2.598  15.960  0.2225  0.3395  0.1828
 5743TIP3    H138720   3.883   2.635  16.048  0.1560  0.5810  0.0797
 5743TIP3    H238721   3.886   2.673  15.901 -1.7232  0.2374 -0.0768
 5744TIP3   OH238722   2.641   0.892   6.166 -0.5705  0.4855  0.2020
 5744TIP3    H138723   2.557   0.846   6.175 -0.7666  0.8886  0.4947
 5744TIP3    H238724   2.694   0.859   6.238  0.2765 -1.3062 -1.1705
 5745TIP3   OH238725   2.168   1.549   2.586 -0.1265 -0.4135 -0.1645
 5745TIP3    H138726   2.249   1.534   2.635 -0.0830 -1.6807 -0.5860
 5745TIP3    H238727   2.146   1.463   2.550 -2.3369 -0.3784  0.9526
 5746TIP3   OH238728   5.073   0.574   6.193 -0.1953  0.4475  0.0191
 5746TIP3    H138729   5.099   0.494   6.237  1.0714  0.8694  0.0827
 5746TIP3    H238730   5.150   0.630   6.198 -1.6464  2.4500  1.6871
 5747TIP3   OH238731   6.155   5.152  14.640  0.5749  0.0766 -0.2150
 5747TIP3    H138732   6.215   5.172  14.569  1.5804 -0.2817  0.5119
 5747TIP3    H238733   6.099   5.082  14.606  0.9984 -0.0466 -0.6701
 5748TIP3   OH238734   2.981   5.355   2.991 -0.0592 -0.0315 -0.4251
 5748TIP3    H138735   3.027   5.289   3.041 -0.4891  0.6499  0.9285
 5748TIP3    H238736   3.020   5.438   3.018 -1.5400  0.5016  0.2262
 5749TIP3   OH238737   4.168   1.974   2.359  0.0579 -0.6248 -0.0152
 5749TIP3    H138738   4.129   1.932   2.435  0.4674 -1.1288 -0.0768
 5749TIP3    H238739   4.251   1.927   2.345  0.1391 -0.3308 -0.5741
 5750TIP3   OH238740   2.603   5.296   3.816  0.2852  0.2953  0.1410
 5750TIP3    H138741   2.676   5.314   3.876  0.2123  3.0606 -0.4374
 5750TIP3    H238742   2.573   5.383   3.789 -0.4759 -0.7902 -2.9556
 5751TIP3   OH238743   0.275   6.073   5.031 -0.0198 -0.9069  0.1476
 5751TIP3    H138744   0.330   6.133   5.082  1.6317 -3.0837  1.1098
 5751TIP3    H238745   0.232   6.018   5.097 -0.8420 -1.3356 -0.7133
 5752TIP3   OH238746   6.269   1.198   6.542  0.3135  0.5308  0.7836
 5752TIP3    H138747   6.209   1.263   6.506 -1.2636 -1.0344  0.4383
 5752TIP3    H238748   6.229   1.172   6.625 -1.4295 -2.8674 -0.8933
 5753TIP3   OH238749   5.632   2.911   4.879  0.0468 -0.0429  0.1657
 5753TIP3    H138750   5.724   2.938   4.876 -0.5506  2.1913 -0.4336
 5753TIP3    H238751   5.609   2.894   4.788  0.2839 -2.3506  0.4893
 5754TIP3   OH238752   1.743   4.569   4.116  0.2294  0.2169  0.2992
 5754TIP3    H138753   1.817   4.520   4.150  0.7284  0.7452 -0.0088
 5754TIP3    H238754   1.758   4.573   4.022 -1.2323 -1.3899 -0.0571
 5755TIP3   OH238755   3.611   0.903  14.625 -0.0658  0.1117 -0.4543
 5755TIP3    H138756   3.537   0.934  14.574 -0.3320  1.8839  0.8958
 5755TIP3    H238757   3.686   0.909  14.565 -0.5583  1.0042 -1.0003
 5756TIP3   OH238758   0.636   3.774  11.303 -0.2982 -0.0729  0.1086
 5756TIP3    H138759   0.658   3.681  11.300 -0.8719 -0.1885 -0.8811
 5756TIP3    H238760   0.545   3.778  11.275  0.8020  1.1145 -3.8440
 5757TIP3   OH238761   5.347   0.384   1.393 -0.0155  0.4547 -0.2830
 5757TIP3    H138762   5.281   0.445   1.360 -0.9877  0.3601  1.3751
 5757TIP3    H238763   5.302   0.301   1.402  0.2737  0.4057  0.9453
 5758TIP3   OH238764   0.336   4.916   0.448  0.4052 -0.3733  0.0787
 5758TIP3    H138765   0.384   4.834   0.460  0.1380 -1.0070 -2.5874
 5758TIP3    H238766   0.244   4.889   0.444  0.3634 -0.0888 -1.5038
 5759TIP3   OH238767   0.287   6.311   1.051  0.1113  0.3570  0.1684
 5759TIP3    H138768   0.259   6.363   1.126  0.2905 -1.9874  1.9674
 5759TIP3    H238769   0.207   6.299   0.999 -0.5422  0.0683  1.2214
 5760TIP3   OH238770   2.118   1.493  16.496 -0.1490 -0.1466 -1.1599
 5760TIP3    H138771   2.062   1.560  16.536 -0.4094 -0.8806 -0.2547
 5760TIP3    H238772   2.148   1.533  16.415  1.6823  2.0452  0.4735
 5761TIP3   OH238773   6.442   0.130   1.375 -0.5442  0.3464  0.6933
 5761TIP3    H138774   6.517   0.159   1.323 -1.0794 -0.1242 -0.3930
 5761TIP3    H238775   6.394   0.211   1.395 -0.7291  0.4786 -0.2169
 5762TIP3   OH238776   0.761   0.029  16.463 -0.3448  0.2727  0.4077
 5762TIP3    H138777   0.786  -0.049  16.514 -0.9678  0.8931  1.7175
 5762TIP3    H238778   0.839   0.050  16.412  0.9478  0.6059  2.3959
 5763TIP3   OH238779   4.260   4.060  17.109  0.1485 -0.2693  0.4778
 5763TIP3    H138780   4.233   4.150  17.130 -0.0119  0.3504 -2.0102
 5763TIP3    H238781   4.350   4.054  17.140  1.0291  1.6476 -1.3890
 5764TIP3   OH238782   0.339   6.694   3.996  0.2364  0.6470  0.3910
 5764TIP3    H138783   0.415   6.744   3.968 -0.6463  2.0798  0.4931
 5764TIP3    H238784   0.266   6.755   3.991 -1.2374 -1.1420 -1.3042
 5765TIP3   OH238785   3.778   2.861   5.955  0.0411 -0.0415  0.1298
 5765TIP3    H138786   3.789   2.954   5.978  1.6806 -0.4934  1.3605
 5765TIP3    H238787   3.848   2.816   6.003 -1.4644 -2.0863  0.5427
 5766TIP3   OH238788   4.816   4.275   4.707 -0.3678 -0.2489  0.4116
 5766TIP3    H138789   4.792   4.347   4.766 -0.7255  0.9708 -1.1398
 5766TIP3    H238790   4.747   4.210   4.719 -0.5636  0.0808  1.1410
 5767TIP3   OH238791   1.078   3.258   1.315 -0.0686 -0.2873 -0.0312
 5767TIP3    H138792   1.080   3.339   1.365  0.7390  1.1076 -2.1586
 5767TIP3    H238793   1.169   3.228   1.314 -0.2608 -0.9085  0.2229
 5768TIP3   OH238794   4.338   4.763  11.503 -0.3038 -0.4646  0.3420
 5768TIP3    H138795   4.342   4.672  11.535 -0.3532  0.2814  2.6344
 5768TIP3    H238796   4.418   4.803  11.535 -0.9269  0.6573  0.5439
 5769TIP3   OH238797   4.373   4.272   4.944  0.1366  0.7817 -0.0464
 5769TIP3    H138798   4.385   4.276   4.850  0.5885 -0.0112 -0.0376
 5769TIP3    H238799   4.441   4.329   4.980  0.2258  0.7631 -0.1882
 5770TIP3   OH238800   0.902   4.887  13.758 -0.1214  0.7478 -0.5004
 5770TIP3    H138801   0.953   4.927  13.828  3.3210 -2.1963 -1.0480
 5770TIP3    H238802   0.818   4.866  13.798  0.9205  1.1609  2.0611
 5771TIP3   OH238803   2.975   0.440  12.480  0.1913  0.2157 -0.2404
 5771TIP3    H138804   2.929   0.506  12.530  2.1133  1.8262 -0.4793
 5771TIP3    H238805   3.053   0.420  12.532  1.3198  0.6140 -1.7084
 5772TIP3   OH238806   4.927   5.403  14.711  0.2582 -0.3463  0.0354
 5772TIP3    H138807   4.919   5.477  14.771  1.2907  0.5461 -0.8552
 5772TIP3    H238808   4.843   5.400  14.665  0.7236  1.3667 -1.0555
 5773TIP3   OH238809   6.110   4.922   1.814  0.7792  0.0460  0.6265
 5773TIP3    H138810   6.039   4.979   1.845 -0.4060 -0.7142 -0.5761
 5773TIP3    H238811   6.142   4.880   1.893 -3.3847 -3.2573  0.9436
 5774TIP3   OH238812   2.816   6.241   2.134 -0.4339 -0.2277  0.4071
 5774TIP3    H138813   2.721   6.236   2.122 -0.6083 -0.0519  1.5797
 5774TIP3    H238814   2.835   6.181   2.206  0.5905 -1.5070 -0.8611
 5775TIP3   OH238815   1.715   2.345   3.774 -0.1522  0.0612  0.2896
 5775TIP3    H138816   1.642   2.405   3.761  1.0716  2.0138  1.7916
 5775TIP3    H238817   1.791   2.402   3.787  1.1762 -1.8293  1.3121
 5776TIP3   OH238818   1.939   1.492   0.607 -0.1518  0.6226 -0.2218
 5776TIP3    H138819   1.938   1.570   0.552  1.7510  0.4446 -0.5816
 5776TIP3    H238820   1.880   1.431   0.563 -2.1585  2.0090  0.3927
 5777TIP3   OH238821   3.650   5.266   4.388 -0.5176 -0.2491 -0.0231
 5777TIP3    H138822   3.710   5.311   4.329  0.2155  0.6923  1.4045
 5777TIP3    H238823   3.652   5.175   4.359  1.0417 -0.1006 -0.4540
 5778TIP3   OH238824   4.204   5.785   4.707  0.7374  0.2082  0.2431
 5778TIP3    H138825   4.296   5.809   4.691  1.3707 -1.5966  0.8511
 5778TIP3    H238826   4.156   5.868   4.704  2.2381  1.0738 -1.0854
 5779TIP3   OH238827   5.488   2.186   6.024  0.0754 -0.0777  0.1522
 5779TIP3    H138828   5.422   2.153   5.963  0.2964  0.3980 -0.3519
 5779TIP3    H238829   5.439   2.242   6.085 -0.0307  0.0339 -0.0353
 5780TIP3   OH238830   3.845   1.519   4.597 -0.1067  0.0919  0.7072
 5780TIP3    H138831   3.923   1.472   4.625 -0.8877 -0.7973  1.4332
 5780TIP3    H238832   3.873   1.568   4.519  1.4860  0.7669  1.6567
 5781TIP3   OH238833   2.783   4.085  13.197 -0.0809 -0.0536 -0.3245
 5781TIP3    H138834   2.865   4.039  13.213  0.8812  0.6147 -2.8538
 5781TIP3    H238835   2.787   4.162  13.253  1.3822  0.3129 -0.8769
 5782TIP3   OH238836   2.049   0.351   4.058 -0.1480 -0.7248 -0.3191
 5782TIP3    H138837   1.964   0.358   4.014 -0.2687 -0.4900 -0.0525
 5782TIP3    H238838   2.099   0.424   4.023  0.1992 -1.2770 -1.0159
 5783TIP3   OH238839   3.017   5.243  12.234 -0.7294  0.5743 -0.1725
 5783TIP3    H138840   2.953   5.248  12.162  0.1593  2.8151 -0.8826
 5783TIP3    H238841   3.099   5.220  12.192 -0.7613 -1.0279  0.5728
 5784TIP3   OH238842   3.413   1.033  10.370 -0.2744  0.1007  0.8472
 5784TIP3    H138843   3.359   1.033  10.449 -3.6394  0.2479 -1.2411
 5784TIP3    H238844   3.439   1.124  10.358 -1.0361  0.3482  1.0231
 5785TIP3   OH238845   1.384   3.896  10.461 -0.2292 -0.3044  0.0175
 5785TIP3    H138846   1.393   3.972  10.404  0.8378  0.5494  1.2966
 5785TIP3    H238847   1.290   3.877  10.460 -0.7770  2.0760  1.0027
 5786TIP3   OH238848   3.318   2.032  13.467  0.3126  0.1145  0.1681
 5786TIP3    H138849   3.289   1.962  13.409  0.1410 -0.2493  0.6880
 5786TIP3    H238850   3.279   2.111  13.430 -1.5467 -0.3703  0.9339
 5787TIP3   OH238851   4.160   5.952  11.955 -0.2007  0.2568  0.1383
 5787TIP3    H138852   4.200   5.867  11.973  0.0265 -0.2466 -2.3903
 5787TIP3    H238853   4.107   5.938  11.877 -1.5207  2.0667  0.6352
 5788TIP3   OH238854   3.009   2.225  12.840 -0.6669  0.0910 -0.6414
 5788TIP3    H138855   2.939   2.162  12.859  1.0560 -1.5689  0.6454
 5788TIP3    H238856   3.055   2.235  12.924  1.2577  0.2963 -1.6660
 5789TIP3   OH238857   2.431   0.694   0.734 -0.2302  0.6980  0.1151
 5789TIP3    H138858   2.406   0.742   0.655 -1.2548 -1.9657 -1.2870
 5789TIP3    H238859   2.502   0.636   0.705  0.0320  0.3569  1.4001
 5790TIP3   OH238860   3.226   6.786   5.088 -0.2876 -0.1661  0.1634
 5790TIP3    H138861   3.221   6.811   5.181  1.8911  0.6341  0.1399
 5790TIP3    H238862   3.251   6.867   5.044  1.0050 -1.0377 -0.7747
 5791TIP3   OH238863   2.639   1.793  12.345 -0.2836  0.2656  0.7594
 5791TIP3    H138864   2.707   1.761  12.285  0.6421  0.4720  1.6763
 5791TIP3    H238865   2.569   1.825  12.287  0.7526  0.8141 -0.2144
 5792TIP3   OH238866   2.088   1.831  14.759 -0.4033 -0.1691  0.0854
 5792TIP3    H138867   2.113   1.810  14.849 -1.3087 -0.6784  0.2337
 5792TIP3    H238868   2.038   1.755  14.730 -1.4472  0.6445 -0.3123
 5793TIP3   OH238869   5.214   4.340  13.701  0.1325  0.1428  0.7102
 5793TIP3    H138870   5.161   4.362  13.624 -0.0634 -1.0521  0.4902
 5793TIP3    H238871   5.232   4.425  13.742 -0.9204  0.6797  0.1184
 5794TIP3   OH238872   5.270   1.276   0.536  0.1334 -0.8019 -1.1530
 5794TIP3    H138873   5.312   1.259   0.621 -0.7651 -0.8254 -0.7036
 5794TIP3    H238874   5.335   1.328   0.488  1.7163 -2.8827 -1.4430
 5795TIP3   OH238875   5.455   2.076   4.006  0.5905 -0.0916  0.2981
 5795TIP3    H138876   5.422   1.986   4.004 -0.5261  0.2957 -1.5056
 5795TIP3    H238877   5.525   2.075   4.071 -0.6542 -1.8095  1.7117
 5796TIP3   OH238878   2.161   3.272  12.462  0.3237  0.1259 -0.3497
 5796TIP3    H138879   2.106   3.349  12.447  0.6845  0.2632 -1.0274
 5796TIP3    H238880   2.175   3.235  12.374 -0.8688 -1.4526  0.0726
 5797TIP3   OH238881   1.008   4.351  13.082  0.0448  0.6134  0.6397
 5797TIP3    H138882   0.925   4.366  13.127 -0.1494 -0.8883  0.8321
 5797TIP3    H238883   1.034   4.263  13.109  0.6623  0.2567 -1.0196
 5798TIP3   OH238884   2.098   4.989  10.569  0.0702 -0.2694 -0.1499
 5798TIP3    H138885   2.003   4.988  10.581  0.1418 -0.0145  0.4617
 5798TIP3    H238886   2.134   4.992  10.658  0.6054  1.7848 -0.3926
 5799TIP3   OH238887   6.500   5.729  13.065 -0.1488  0.8700 -0.1119
 5799TIP3    H138888   6.582   5.699  13.027  0.0911 -0.3853  1.2669
 5799TIP3    H238889   6.454   5.648  13.088 -2.9164  1.4229 -3.0308
 5800TIP3   OH238890   5.541   2.333   6.640 -0.1269  0.4348  0.0535
 5800TIP3    H138891   5.625   2.372   6.613  0.4422 -0.7110  0.1141
 5800TIP3    H238892   5.481   2.357   6.570 -0.0839  2.3168  0.5992
 5801TIP3   OH238893   2.378   6.588   3.397 -0.4777 -0.4429  0.2590
 5801TIP3    H138894   2.392   6.663   3.454 -0.2126  0.0193 -0.4026
 5801TIP3    H238895   2.449   6.592   3.333 -1.6631 -0.0227 -1.0748
 5802TIP3   OH238896   0.769   0.293  15.340 -0.4030  0.0002  0.7185
 5802TIP3    H138897   0.797   0.289  15.248  1.3929 -0.4355  1.2435
 5802TIP3    H238898   0.694   0.353  15.339 -0.2587  0.2201 -0.9859
 5803TIP3   OH238899   2.521   3.644  16.741 -0.0492 -0.4737 -0.2964
 5803TIP3    H138900   2.525   3.684  16.827 -0.8619 -0.6606 -0.1644
 5803TIP3    H238901   2.602   3.671  16.698  1.6592 -2.4478  1.4163
 5804TIP3   OH238902   6.067   1.138   2.883 -0.3919 -0.2194 -0.1682
 5804TIP3    H138903   6.105   1.110   2.966 -0.5322 -0.8879 -0.3176
 5804TIP3    H238904   6.142   1.162   2.828 -0.3418  0.9196  0.3891
 5805TIP3   OH238905   6.329   1.518   4.360  0.2197  0.2217  0.0612
 5805TIP3    H138906   6.333   1.457   4.434  1.6522 -1.3267 -1.1960
 5805TIP3    H238907   6.267   1.478   4.299  0.2421  0.6596 -0.2563
 5806TIP3   OH238908   4.943   5.170   2.741  0.4045  0.1615  0.0037
 5806TIP3    H138909   5.038   5.176   2.736  0.6593 -2.7609 -0.3602
 5806TIP3    H238910   4.911   5.223   2.668  1.9628 -1.5796 -2.0596
 5807TIP3   OH238911   5.743   6.322   2.652 -0.2154  0.1009  0.0930
 5807TIP3    H138912   5.704   6.355   2.734 -2.1309 -1.4196 -0.1322
 5807TIP3    H238913   5.834   6.304   2.674 -0.2219  1.4480  1.3737
 5808TIP3   OH238914   5.491   4.436   5.622  0.6798  0.3502  0.1822
 5808TIP3    H138915   5.488   4.368   5.556 -1.1232  0.6625 -0.1239
 5808TIP3    H238916   5.572   4.420   5.670  1.5465 -0.4606 -1.4679
 5809TIP3   OH238917   4.252   5.514   2.563  0.6528  0.1397  0.2713
 5809TIP3    H138918   4.321   5.492   2.627 -0.2147 -1.3215  0.7740
 5809TIP3    H238919   4.215   5.429   2.539  1.0743  0.6250 -2.3795
 5810TIP3   OH238920   0.688   4.303  15.839 -0.3440  0.1936  0.3201
 5810TIP3    H138921   0.688   4.398  15.841 -0.2803  0.1911  0.4679
 5810TIP3    H238922   0.704   4.280  15.748  0.8301  0.3149  0.4855
 5811TIP3   OH238923   5.609   0.251  15.096  0.4300  0.6042  0.3008
 5811TIP3    H138924   5.595   0.228  15.004  1.5939 -0.2209  0.3074
 5811TIP3    H238925   5.687   0.201  15.121 -0.0177  0.6231  1.8031
 5812TIP3   OH238926   6.101   3.337  15.642 -0.1219  0.1007 -0.1233
 5812TIP3    H138927   6.074   3.347  15.733 -2.2044  0.1272 -0.6770
 5812TIP3    H238928   6.142   3.251  15.638 -0.2373 -0.0090  0.7893
 5813TIP3   OH238929   5.547   2.506  16.452  0.1772  0.0099  0.2891
 5813TIP3    H138930   5.472   2.467  16.408  0.5057  0.8542 -1.1006
 5813TIP3    H238931   5.554   2.459  16.535 -0.5530 -1.5633 -0.5019
 5814TIP3   OH238932   2.629   6.746  11.636 -1.0050  0.0294 -0.2032
 5814TIP3    H138933   2.658   6.783  11.720  0.3817 -1.5082  0.0538
 5814TIP3    H238934   2.588   6.663  11.660  0.2056 -0.8545 -1.0774
 5815TIP3   OH238935   1.903   6.529  15.122  0.3344  0.2641 -0.0255
 5815TIP3    H138936   1.883   6.470  15.050  0.0672 -0.0352  0.2852
 5815TIP3    H238937   1.999   6.531  15.126  0.3580  0.8893 -0.8691
 5816TIP3   OH238938   1.358   4.973   2.505  0.2008  0.2519 -0.2355
 5816TIP3    H138939   1.274   5.014   2.488  0.8934  2.0021  0.4093
 5816TIP3    H238940   1.355   4.891   2.455 -1.7386  0.4293 -0.4693
 5817TIP3   OH238941   3.331   0.933   2.093  0.1540 -0.5070 -0.5424
 5817TIP3    H138942   3.374   0.920   2.009  0.3173  0.6420 -0.6477
 5817TIP3    H238943   3.403   0.937   2.156  0.4940  3.3175 -0.9352
 5818TIP3   OH238944   6.664   5.271  16.552  0.0287 -0.2222  0.0510
 5818TIP3    H138945   6.592   5.332  16.534 -0.9268 -0.9418  1.2637
 5818TIP3    H238946   6.738   5.307  16.505 -0.9008  1.0466 -0.5009
 5819TIP3   OH238947   2.932   3.507   6.171 -0.4796 -0.1779 -0.0878
 5819TIP3    H138948   2.838   3.505   6.189 -0.7820  1.0777 -1.3613
 5819TIP3    H238949   2.957   3.415   6.166 -1.8132 -0.5455 -0.5701
 5820TIP3   OH238950   6.756   6.750  14.693 -0.2856  0.6849 -0.2807
 5820TIP3    H138951   6.677   6.698  14.683 -0.0656  0.4853 -1.0305
 5820TIP3    H238952   6.821   6.688  14.728  0.3136  0.1137 -2.2849
 5821TIP3   OH238953   6.595   0.930   1.098  0.6831 -0.5304  0.2331
 5821TIP3    H138954   6.529   0.959   1.160  1.3327 -0.2471  0.8113
 5821TIP3    H238955   6.643   1.009   1.073 -0.0504 -0.5143 -1.2399
 5822TIP3   OH238956   2.111   2.322   3.554  0.6359 -0.4112 -0.0144
 5822TIP3    H138957   2.034   2.268   3.572  0.7281 -0.2858  0.7912
 5822TIP3    H238958   2.103   2.344   3.461 -0.3435 -0.3370  0.0727
 5823TIP3   OH238959   1.502   3.067  13.146 -0.3236  0.5204 -0.5086
 5823TIP3    H138960   1.519   3.155  13.179  0.3208  0.6599 -1.1953
 5823TIP3    H238961   1.507   3.011  13.224 -1.0395  1.1132 -0.0184
 5824TIP3   OH238962   0.450   5.055   3.910 -0.7960 -0.3819 -0.1426
 5824TIP3    H138963   0.538   5.093   3.913 -0.5483 -0.9248 -0.2756
 5824TIP3    H238964   0.398   5.109   3.969 -0.5639  0.4246 -0.6603
 5825TIP3   OH238965   4.729   2.624   0.254  0.1051 -0.1087  0.2246
 5825TIP3    H138966   4.700   2.602   0.342  1.8810 -1.9411  0.4334
 5825TIP3    H238967   4.679   2.566   0.197  0.4540 -0.4180  0.2293
 5826TIP3   OH238968   5.863   5.680   3.313  0.2429  0.4134  0.4095
 5826TIP3    H138969   5.912   5.760   3.294 -0.4721  0.3092 -2.2569
 5826TIP3    H238970   5.774   5.711   3.333 -0.5715  0.3024 -2.6150
 5827TIP3   OH238971   5.015   3.050  14.932  0.2099 -0.3097  0.1867
 5827TIP3    H138972   5.006   2.968  14.980  4.7037  0.2739  2.5922
 5827TIP3    H238973   5.103   3.047  14.894  0.8390  3.5064  0.8711
 5828TIP3   OH238974   3.176   0.062   3.439  0.0607  0.5530 -0.1451
 5828TIP3    H138975   3.232  -0.013   3.419 -1.0434  0.1052 -1.6505
 5828TIP3    H238976   3.090   0.039   3.405 -1.0110  1.3823  1.8079
 5829TIP3   OH238977   4.623   3.905   4.508  0.3378 -0.5479 -0.2011
 5829TIP3    H138978   4.586   3.971   4.566 -0.7020  0.5822 -2.0659
 5829TIP3    H238979   4.718   3.917   4.518  0.1834  0.1530  0.6466
 5830TIP3   OH238980   3.861   4.933   3.218 -0.0347 -0.4030  0.2521
 5830TIP3    H138981   3.848   4.890   3.302  0.1338 -1.4267 -0.2340
 5830TIP3    H238982   3.776   4.928   3.174 -0.8211  2.2328  1.2639
 5831TIP3   OH238983   2.228   1.932   5.343 -0.1850 -0.2213  0.2197
 5831TIP3    H138984   2.296   1.897   5.401  1.4044  1.9929 -0.1865
 5831TIP3    H238985   2.145   1.904   5.384  0.8560 -3.9909  0.1003
 5832TIP3   OH238986   6.059   1.763   4.332  0.9776  0.3957 -0.2729
 5832TIP3    H138987   6.123   1.833   4.345 -2.0933  3.0998  2.2260
 5832TIP3    H238988   6.066   1.709   4.411  2.2670 -1.3205 -1.4867
 5833TIP3   OH238989   4.824   5.233   4.929 -0.4673 -0.2067  1.1582
 5833TIP3    H138990   4.754   5.203   4.871 -0.7522  0.9133  0.8890
 5833TIP3    H238991   4.783   5.303   4.981  1.0926  2.4932 -0.9454
 5834TIP3   OH238992   4.169   4.767   5.210 -0.1842  0.5773  0.3093
 5834TIP3    H138993   4.132   4.692   5.164  0.0228 -0.2610  1.4590
 5834TIP3    H238994   4.098   4.831   5.214 -1.3197 -0.7043  1.8059
 5835TIP3   OH238995   2.934   5.033  11.186  0.2680  0.2068 -0.1145
 5835TIP3    H138996   2.928   4.965  11.118  1.7924 -2.5221  2.2387
 5835TIP3    H238997   2.887   4.996  11.261 -0.4322  2.6353  0.7215
 5836TIP3   OH238998   5.787   6.006   6.776  0.1583 -0.0119  0.2820
 5836TIP3    H138999   5.821   6.094   6.792 -2.0785  1.5618 -2.5361
 5836TIP3    H239000   5.845   5.970   6.708 -0.9385  0.8029 -1.1451
 5837TIP3   OH239001   1.379   0.538   5.206 -0.0276  0.2827 -0.1560
 5837TIP3    H139002   1.418   0.620   5.177  0.1954  0.1650 -0.1916
 5837TIP3    H239003   1.330   0.561   5.285  0.1450  0.4239 -0.0891
 5838TIP3   OH239004   1.527   0.215   5.642 -0.3509  0.1892  0.2796
 5838TIP3    H139005   1.607   0.162   5.642 -1.2780 -1.2711  0.9590
 5838TIP3    H239006   1.521   0.250   5.730 -0.0028  1.0487 -0.0289
 5839TIP3   OH239007   0.971   4.807   2.128  0.0657  0.4402 -0.0805
 5839TIP3    H139008   0.896   4.858   2.100  0.2895  2.3038  2.3820
 5839TIP3    H239009   1.033   4.871   2.163  1.3895 -1.3087  0.9884
 5840TIP3   OH239010   1.059   2.448   2.222 -0.5686 -0.1320 -0.0835
 5840TIP3    H139011   1.108   2.366   2.214  2.4016  1.6304 -2.9210
 5840TIP3    H239012   1.060   2.468   2.315  0.7684 -2.1490  0.4036
 5841TIP3   OH239013   6.044   4.388  11.370  0.3799  0.4842  0.2183
 5841TIP3    H139014   6.048   4.316  11.433  0.7496  0.9038  0.6828
 5841TIP3    H239015   6.114   4.369  11.307 -0.3133 -0.1998 -0.3690
 5842TIP3   OH239016   2.992   4.370  16.430 -0.8264  0.3262 -0.0919
 5842TIP3    H139017   3.083   4.373  16.460 -0.5113 -1.6028 -0.7143
 5842TIP3    H239018   2.941   4.352  16.509 -0.5906  0.6364  0.1326
 5843TIP3   OH239019   3.395   5.990  12.800  0.4763 -0.3964  0.1221
 5843TIP3    H139020   3.477   6.008  12.845 -0.2446  1.5016  0.7468
 5843TIP3    H239021   3.376   6.070  12.751 -1.0967 -0.7338  0.1357
 5844TIP3   OH239022   3.010   4.140   3.400  0.4077  0.0433 -0.4798
 5844TIP3    H139023   2.996   4.207   3.467 -1.4060 -1.4924  0.8022
 5844TIP3    H239024   2.923   4.109   3.379  1.1892 -2.1221 -0.7812
 5845TIP3   OH239025   2.946   2.144   5.839  0.6778 -0.2696  0.3779
 5845TIP3    H139026   2.982   2.135   5.928 -1.3097  1.0692  1.3978
 5845TIP3    H239027   2.964   2.234   5.815 -1.6406  0.3906  0.8430
 5846TIP3   OH239028   1.287   0.238   4.179  0.0619  0.6648  0.2955
 5846TIP3    H139029   1.310   0.328   4.202 -0.1112  0.5031  1.1657
 5846TIP3    H239030   1.347   0.214   4.109 -0.6483  1.8411 -0.7612
 5847TIP3   OH239031   2.322   3.930  11.175 -0.3062  0.1544 -0.2209
 5847TIP3    H139032   2.395   3.949  11.234 -1.4435 -0.7510  1.5817
 5847TIP3    H239033   2.300   3.838  11.194 -2.3824  0.6247 -0.1263
 5848TIP3   OH239034   4.979   3.280  10.718 -0.0925  0.2499 -0.2656
 5848TIP3    H139035   5.060   3.332  10.715 -0.4998  0.8874 -0.4491
 5848TIP3    H239036   4.911   3.340  10.686 -0.4520 -0.6219 -1.2105
 5849TIP3   OH239037   1.347   3.850  15.403 -0.2082  0.5080  0.1064
 5849TIP3    H139038   1.425   3.807  15.369 -0.1111  0.3664  0.4953
 5849TIP3    H239039   1.374   3.886  15.487 -0.8469 -0.5097  0.7788
 5850TIP3   OH239040   0.477   2.898   5.846 -0.0900  0.8147 -0.5521
 5850TIP3    H139041   0.387   2.916   5.821 -0.4720 -0.3103 -0.0608
 5850TIP3    H239042   0.487   2.804   5.835  0.0226  0.3698  2.3848
 5851TIP3   OH239043   0.955   2.558   3.190 -0.4185 -0.1156 -0.2540
 5851TIP3    H139044   0.936   2.629   3.251  1.1228  0.4339 -0.3767
 5851TIP3    H239045   0.981   2.485   3.246  0.7296  0.3042 -0.2195
 5852TIP3   OH239046   4.920   4.332   3.152 -0.3345 -0.5313  0.5114
 5852TIP3    H139047   4.945   4.270   3.221  1.7844  0.6244  0.8431
 5852TIP3    H239048   4.948   4.417   3.185  0.7437  0.0716 -1.7617
 5853TIP3   OH239049   6.583   5.280  15.789 -0.0088 -0.0483  0.0256
 5853TIP3    H139050   6.532   5.203  15.814 -0.3550  0.4597  0.9600
 5853TIP3    H239051   6.667   5.269  15.833  0.0394 -0.0256 -0.0603
 5854TIP3   OH239052   4.529   2.622  12.195 -0.7303  0.1226  0.1338
 5854TIP3    H139053   4.595   2.570  12.149  0.2644  1.9314 -0.5780
 5854TIP3    H239054   4.445   2.582  12.171  0.0129 -1.6142  0.2639
 5855TIP3   OH239055   0.443   0.070   2.551  0.6047  0.1159 -0.2740
 5855TIP3    H139056   0.377   0.118   2.501  0.7928  0.5547 -0.1020
 5855TIP3    H239057   0.404  -0.017   2.564 -0.7469  0.9058  1.4014
 5856TIP3   OH239058   3.318   2.207   6.193 -0.1027  0.1314 -0.1907
 5856TIP3    H139059   3.230   2.170   6.197 -0.5179  1.0315 -0.6480
 5856TIP3    H239060   3.348   2.189   6.104 -0.3994  1.0686 -0.4901
 5857TIP3   OH239061   0.185   6.587  16.596  0.4022  1.2135 -0.1274
 5857TIP3    H139062   0.216   6.578  16.687  2.3877 -1.1216 -0.9134
 5857TIP3    H239063   0.249   6.645  16.555  0.3824  1.0449 -0.3937
 5858TIP3   OH239064   2.821   0.008   4.047 -0.7542 -0.1674 -0.0935
 5858TIP3    H139065   2.889  -0.033   4.100  0.5109  2.2941  0.3370
 5858TIP3    H239066   2.746   0.015   4.106 -0.6081 -0.8111  0.1743
 5859TIP3   OH239067   2.649   5.114   5.540 -0.2531  0.4046 -0.2505
 5859TIP3    H139068   2.697   5.097   5.459  0.8452 -0.7330  0.6084
 5859TIP3    H239069   2.706   5.171   5.591 -1.2715  1.7582 -0.5464
 5860TIP3   OH239070   5.581   5.563   4.377 -0.0670  0.4600 -0.3712
 5860TIP3    H139071   5.488   5.586   4.368  0.0062  0.5945 -0.7805
 5860TIP3    H239072   5.605   5.595   4.464  0.4042  3.2948 -1.4320
 5861TIP3   OH239073   0.665   3.722   2.425 -0.4764  0.4313 -0.0320
 5861TIP3    H139074   0.713   3.739   2.506 -0.9881  2.7961 -0.1627
 5861TIP3    H239075   0.727   3.674   2.370  0.3074 -0.0998  1.2594
 5862TIP3   OH239076   6.579   1.527  12.689  0.0187  0.0867  0.6650
 5862TIP3    H139077   6.603   1.470  12.762  1.5957 -0.8017 -0.4808
 5862TIP3    H239078   6.656   1.581  12.674 -0.1378 -0.0049 -0.5724
 5863TIP3   OH239079   6.746   0.755   1.716 -0.4455  0.5057 -0.7072
 5863TIP3    H139080   6.689   0.805   1.774 -2.1089 -1.7530 -0.2245
 5863TIP3    H239081   6.827   0.744   1.766 -0.6717  1.2953 -0.1507
 5864TIP3   OH239082   1.474   2.589   2.219  0.0868 -0.0172 -0.1749
 5864TIP3    H139083   1.461   2.571   2.312  0.7519 -0.1889 -0.1108
 5864TIP3    H239084   1.513   2.509   2.185  1.6683  0.7363 -0.1987
 5865TIP3   OH239085   3.762   1.187   0.190  0.2789  0.2092  0.3904
 5865TIP3    H139086   3.765   1.282   0.204  0.3558 -0.1619  3.7535
 5865TIP3    H239087   3.679   1.172   0.146 -1.4630  1.6259  2.9540
 5866TIP3   OH239088   0.660   2.183  11.320  0.2831  0.6562  0.3942
 5866TIP3    H139089   0.754   2.169  11.312  0.0290 -0.4038 -0.9831
 5866TIP3    H239090   0.620   2.105  11.282 -1.1550  1.7364 -0.4035
 5867TIP3   OH239091   1.299   2.207   4.600 -0.4312 -0.5497  0.0347
 5867TIP3    H139092   1.314   2.209   4.505  0.5444  0.5511  0.1937
 5867TIP3    H239093   1.203   2.206   4.609 -0.6358  2.1048 -0.9606
 5868TIP3   OH239094   2.795   4.556  16.713  0.7935  0.2008  0.4653
 5868TIP3    H139095   2.753   4.641  16.700  0.9377  0.3162  0.7404
 5868TIP3    H239096   2.833   4.561  16.801 -0.1126 -0.5317  0.9256
 5869TIP3   OH239097   5.156   6.091  15.597  0.2367  0.4047 -0.7422
 5869TIP3    H139098   5.107   6.024  15.548  0.6666 -0.3869 -0.1005
 5869TIP3    H239099   5.161   6.165  15.536 -2.6838  0.9512 -0.4696
 5870TIP3   OH239100   2.347   1.329   5.531 -0.3379 -0.6368  0.4614
 5870TIP3    H139101   2.266   1.374   5.507 -0.0834 -0.8697 -0.9237
 5870TIP3    H239102   2.385   1.302   5.447  1.4043 -0.1265  1.0441
 5871TIP3   OH239103   2.166   0.303  11.746 -0.3999  0.0503  0.2925
 5871TIP3    H139104   2.190   0.278  11.835  1.0293  0.4101  0.0364
 5871TIP3    H239105   2.182   0.225  11.694 -1.1589 -0.1355  0.3244
 5872TIP3   OH239106   1.355   3.857  16.608  0.1910  0.0808  0.2645
 5872TIP3    H139107   1.385   3.947  16.618 -3.5264  1.3905  1.2108
 5872TIP3    H239108   1.319   3.834  16.694  1.0318 -2.3525  0.0477
 5873TIP3   OH239109   5.262   5.620  10.729 -0.5321  0.0399 -0.0092
 5873TIP3    H139110   5.207   5.542  10.740 -1.2923  0.1728 -2.3122
 5873TIP3    H239111   5.211   5.691  10.768  0.0712 -0.5460  1.9125
 5874TIP3   OH239112   5.443   0.790  12.506  0.4953  0.3076 -0.7791
 5874TIP3    H139113   5.475   0.880  12.509 -1.3403  0.9839  0.5334
 5874TIP3    H239114   5.473   0.751  12.588  0.9709 -0.1672 -1.1764
 5875TIP3   OH239115   1.345   6.091   0.160 -0.3665  0.7016 -0.4909
 5875TIP3    H139116   1.388   6.010   0.135 -2.1839 -0.2253 -0.7740
 5875TIP3    H239117   1.416   6.148   0.191  0.8481 -1.2610  0.4850
 5876TIP3   OH239118   3.562   5.433  11.245  0.2678  0.2955 -0.0147
 5876TIP3    H139119   3.487   5.404  11.193  1.6721  1.2640 -2.7762
 5876TIP3    H239120   3.526   5.448  11.333 -2.4944 -0.3403 -0.9351
 5877TIP3   OH239121   2.349   3.069  12.782  0.1638 -0.0201 -0.5295
 5877TIP3    H139122   2.261   3.049  12.815  0.3133 -1.4637 -0.9632
 5877TIP3    H239123   2.337   3.076  12.687  0.8341 -2.1743 -0.8126
 5878TIP3   OH239124   6.482   6.240  11.547  0.5391 -0.3381  0.3392
 5878TIP3    H139125   6.392   6.214  11.567  0.3336 -0.6824 -0.9374
 5878TIP3    H239126   6.489   6.330  11.576 -1.0674  0.6007 -1.9143
 5879TIP3   OH239127   4.984   3.173  15.324  0.2683 -0.2095  0.1900
 5879TIP3    H139128   5.069   3.177  15.368  0.0503 -0.5251  0.6599
 5879TIP3    H239129   5.001   3.198  15.234  0.6155  1.1643  0.6127
 5880TIP3   OH239130   3.958   3.293  13.093  0.0892  0.5247 -0.1606
 5880TIP3    H139131   3.946   3.385  13.118 -0.6314  0.1131  1.0462
 5880TIP3    H239132   3.952   3.244  13.175 -1.1995 -0.7693 -0.9789
 5881TIP3   OH239133   5.252   4.379  10.677  0.2438  0.3102 -0.5862
 5881TIP3    H139134   5.317   4.348  10.740 -0.8947  0.4527  0.6908
 5881TIP3    H239135   5.202   4.301  10.654 -2.0848  0.8951  1.9960
 5882TIP3   OH239136   4.642   6.333  16.684  0.2841  0.5185 -0.0349
 5882TIP3    H139137   4.710   6.348  16.619 -0.2105  2.8218 -0.1294
 5882TIP3    H239138   4.657   6.244  16.716  1.8963  0.1532 -1.6809
 5883TIP3   OH239139   4.577   4.804  10.452  0.7947  0.0878  0.2289
 5883TIP3    H139140   4.604   4.768  10.368  0.5672  0.3948  0.0228
 5883TIP3    H239141   4.575   4.728  10.511 -0.4793 -0.3955 -0.3923
 5884TIP3   OH239142   2.772   3.846  15.393  0.3966 -0.5677  0.4248
 5884TIP3    H139143   2.756   3.845  15.487 -0.1144  0.8909  0.3696
 5884TIP3    H239144   2.685   3.848  15.354  0.5995 -1.5791 -0.1018
 5885TIP3   OH239145   4.983   4.164  15.816 -0.6111  0.3814  0.3557
 5885TIP3    H139146   4.891   4.167  15.845 -0.7588 -0.4346  0.0081
 5885TIP3    H239147   4.979   4.120  15.732  0.0357  0.9780  0.0044
 5886TIP3   OH239148   2.267   2.641  15.879 -0.4411  0.4711  0.3122
 5886TIP3    H139149   2.278   2.582  15.953  0.6890 -1.9973 -1.6910
 5886TIP3    H239150   2.354   2.678  15.865 -0.3502 -0.0338 -0.5027
 5887TIP3   OH239151   0.288   5.744   4.974  0.1368 -0.1210  0.0604
 5887TIP3    H139152   0.271   5.833   4.944 -1.1688 -0.2790  0.2726
 5887TIP3    H239153   0.381   5.744   4.998  0.0431  1.3240  0.5272
 5888TIP3   OH239154   3.821   3.290   3.767 -0.2184 -0.0338 -0.1970
 5888TIP3    H139155   3.896   3.252   3.814  0.8572  1.2204 -0.8299
 5888TIP3    H239156   3.837   3.385   3.769 -2.3542  0.3682  0.5646
 5889TIP3   OH239157   1.288   1.768   4.633  0.9450 -0.2438  0.0536
 5889TIP3    H139158   1.264   1.798   4.721 -2.9752 -1.9929 -0.1944
 5889TIP3    H239159   1.349   1.696   4.648 -0.8312 -1.5264  1.5326
 5890TIP3   OH239160   6.294   1.666  11.766  0.7149  0.7449  0.4542
 5890TIP3    H139161   6.271   1.738  11.826  1.7925 -0.3110  2.2329
 5890TIP3    H239162   6.215   1.651  11.715 -0.8482  0.6116  2.7727
 5891TIP3   OH239163   3.238   3.545  10.890 -0.0232 -0.0969 -0.7564
 5891TIP3    H139164   3.198   3.484  10.828 -1.0770  1.2003 -1.4118
 5891TIP3    H239165   3.170   3.558  10.956 -0.0835  0.8737 -0.9982
 5892TIP3   OH239166   4.586   1.465   4.653  0.7109  0.2938 -0.7482
 5892TIP3    H139167   4.532   1.388   4.672  0.7430  0.6578  0.9345
 5892TIP3    H239168   4.641   1.475   4.730  0.3809  2.2785 -0.7207
 5893TIP3   OH239169   5.307   6.373   5.408 -0.6621  0.8042 -0.1116
 5893TIP3    H139170   5.317   6.332   5.322 -0.9903  1.5831 -0.5310
 5893TIP3    H239171   5.363   6.321   5.466 -1.7003 -0.7389 -0.4345
 5894TIP3   OH239172   4.394   6.846  13.339 -0.3531  0.3759 -0.2018
 5894TIP3    H139173   4.338   6.773  13.367  1.5561 -0.9305  0.3728
 5894TIP3    H239174   4.398   6.903  13.416 -0.2744  0.0678  0.0261
 5895TIP3   OH239175   3.434   1.319   1.818 -0.1691  0.5220 -0.5405
 5895TIP3    H139176   3.416   1.383   1.886 -0.3439  1.1607 -1.1727
 5895TIP3    H239177   3.365   1.253   1.828  0.0454  0.3918  0.1470
 5896TIP3   OH239178   2.747   6.732   2.397 -0.2520 -0.7747 -0.5504
 5896TIP3    H139179   2.789   6.797   2.452  0.4482 -1.4017 -0.3300
 5896TIP3    H239180   2.653   6.748   2.409 -0.1699 -1.4769  1.5828
 5897TIP3   OH239181   2.854   1.244  11.743 -0.2803  0.2048  0.2671
 5897TIP3    H139182   2.900   1.179  11.691 -0.5363  2.1611 -2.6325
 5897TIP3    H239183   2.764   1.212  11.748 -0.5979  0.6247 -1.8432
 5898TIP3   OH239184   4.282   5.538  16.316 -0.6223 -0.2897  0.0113
 5898TIP3    H139185   4.213   5.473  16.312  1.2425 -2.5048  1.5592
 5898TIP3    H239186   4.237   5.622  16.304 -3.3659 -1.6841 -0.0957
 5899TIP3   OH239187   5.096   3.561   6.017  0.1766 -0.2458  0.4754
 5899TIP3    H139188   5.069   3.636   5.965 -0.1061 -1.4515 -1.2127
 5899TIP3    H239189   5.014   3.518   6.043  0.2608  0.8360  2.8019
 5900TIP3   OH239190   3.622   0.238  16.726 -0.0184 -0.4968 -0.5988
 5900TIP3    H139191   3.539   0.227  16.772  1.4682 -0.1498  2.4359
 5900TIP3    H239192   3.670   0.157  16.744  0.7409 -0.2215 -1.3295
 5901TIP3   OH239193   5.166   5.885  14.461  0.2268  0.0714 -0.5466
 5901TIP3    H139194   5.089   5.829  14.475  0.2344  0.4315  1.1763
 5901TIP3    H239195   5.207   5.850  14.382 -0.0062 -2.1220  0.2221
 5902TIP3   OH239196   4.447   2.302  15.754  0.0256  0.3689 -0.4209
 5902TIP3    H139197   4.484   2.348  15.830 -0.0591  0.8991 -0.7003
 5902TIP3    H239198   4.500   2.223  15.746  1.0532  1.0761 -0.7585
 5903TIP3   OH239199   0.436   1.729  14.076  0.4313 -0.2874 -0.2975
 5903TIP3    H139200   0.483   1.788  14.135  0.7608 -1.1800  0.3513
 5903TIP3    H239201   0.503   1.670  14.042  0.0332 -0.5795 -0.5778
 5904TIP3   OH239202   5.906   6.227   1.783  0.2053 -0.1344 -0.4350
 5904TIP3    H139203   5.851   6.173   1.726 -0.4390 -0.4109  0.4376
 5904TIP3    H239204   5.892   6.193   1.871  2.0245 -0.4024 -0.2135
 5905TIP3   OH239205   3.652   5.338   0.439 -0.4895  0.0461  0.3083
 5905TIP3    H139206   3.674   5.430   0.422 -1.2454  1.1078  4.1234
 5905TIP3    H239207   3.736   5.292   0.432  0.0011  1.0607 -1.0746
 5906TIP3   OH239208   3.115   2.620  10.358  0.2347 -0.5532  0.3322
 5906TIP3    H139209   3.120   2.545  10.418 -0.7666 -1.4592 -0.6787
 5906TIP3    H239210   3.207   2.639  10.336  0.5501 -0.9195  1.2568
 5907TIP3   OH239211   4.528   3.070   1.978  0.0883  0.1496 -0.2622
 5907TIP3    H139212   4.528   3.061   1.883  2.9455  0.6822 -0.4025
 5907TIP3    H239213   4.522   3.165   1.993  3.3791  0.4382 -0.1462
 5908TIP3   OH239214   5.225   1.467   2.273  0.3168  0.1370 -0.3223
 5908TIP3    H139215   5.222   1.385   2.223  0.9017  0.2767 -0.5879
 5908TIP3    H239216   5.245   1.440   2.362  1.3891  0.0569 -0.5801
 5909TIP3   OH239217   2.914   2.686  16.106 -0.2616 -0.3350 -0.1692
 5909TIP3    H139218   2.922   2.692  16.011  1.1315 -0.7163 -0.0987
 5909TIP3    H239219   2.821   2.668  16.121 -0.3011 -1.5036 -1.5291
 5910TIP3   OH239220   0.374   6.035   2.312  0.7113  0.4098 -0.1744
 5910TIP3    H139221   0.430   6.098   2.266  0.2180  1.3883  0.5283
 5910TIP3    H239222   0.295   6.029   2.259  0.0552  1.6969  0.6058
 5911TIP3   OH239223   5.124   5.262  12.603 -0.1872  0.0422  0.6386
 5911TIP3    H139224   5.066   5.334  12.627 -0.8290 -0.2809  0.0826
 5911TIP3    H239225   5.065   5.192  12.576  0.4314 -0.7374  1.2901
 5912TIP3   OH239226   6.164   2.302   5.675 -0.6357 -0.3431 -0.5963
 5912TIP3    H139227   6.192   2.390   5.701 -0.6904 -0.8723  1.4587
 5912TIP3    H239228   6.076   2.315   5.640 -0.2285  0.5484 -1.3340
 5913TIP3   OH239229   5.525   1.931  11.564 -0.1586 -0.1869  0.1928
 5913TIP3    H139230   5.478   1.993  11.508  1.6349  0.8648 -0.2332
 5913TIP3    H239231   5.612   1.970  11.575  0.9388 -2.4723  0.1887
 5914TIP3   OH239232   5.057   3.454   0.259 -0.5025 -0.0572  0.0221
 5914TIP3    H139233   5.065   3.548   0.272  1.4307 -0.1794  0.0634
 5914TIP3    H239234   4.974   3.431   0.300 -0.1339  1.3544  1.6701
 5915TIP3   OH239235   1.816   0.758  11.172 -0.0598 -0.0492 -0.0145
 5915TIP3    H139236   1.867   0.723  11.100 -1.9269  0.9556 -1.9297
 5915TIP3    H239237   1.881   0.788  11.236  1.6427 -0.8860 -1.2781
 5916TIP3   OH239238   2.264   1.212   0.008 -0.7161  0.6088  0.1078
 5916TIP3    H139239   2.347   1.255   0.027  0.1779 -0.4762 -1.1109
 5916TIP3    H239240   2.211   1.278  -0.036  0.0867  0.8860 -0.4601
 5917TIP3   OH239241   5.881   3.085  13.081 -0.5689 -0.0299  0.1878
 5917TIP3    H139242   5.813   3.027  13.047 -1.0557  0.4101  0.4059
 5917TIP3    H239243   5.851   3.109  13.169  0.7728 -1.3235  1.0601
 5918TIP3   OH239244   0.922   1.931  13.680 -0.2509  0.3418  0.3354
 5918TIP3    H139245   0.897   2.023  13.688 -0.1349  0.3535  0.5789
 5918TIP3    H239246   1.016   1.930  13.699  0.1842  0.4437 -1.5844
 5919TIP3   OH239247   5.394   2.417   5.118  1.1171  0.6597 -0.1605
 5919TIP3    H139248   5.378   2.383   5.031  1.5798  0.9670 -0.3694
 5919TIP3    H239249   5.456   2.355   5.157 -0.4867 -0.5140  0.6376
 5920TIP3   OH239250   5.325   1.339   0.859 -0.9256 -0.0946 -0.4516
 5920TIP3    H139251   5.333   1.432   0.839  1.2492 -0.5229 -1.9084
 5920TIP3    H239252   5.353   1.332   0.950 -1.1101  0.6713 -0.3277
 5921TIP3   OH239253   2.828   4.691  16.305  0.0019 -0.3230  1.1536
 5921TIP3    H139254   2.758   4.732  16.355 -1.5388 -0.7147 -0.5904
 5921TIP3    H239255   2.785   4.622  16.254  1.6153 -0.4392 -0.1424
 5922TIP3   OH239256   1.607   1.523  14.023  0.1132  0.3511  0.2106
 5922TIP3    H139257   1.632   1.491  13.936  0.3275 -0.8005  0.6782
 5922TIP3    H239258   1.516   1.494  14.033  1.0152 -2.2528  1.5691
 5923TIP3   OH239259   0.819   0.353   2.613 -0.4515  0.2499  0.0284
 5923TIP3    H139260   0.809   0.397   2.528  0.2903  0.5569  0.0864
 5923TIP3    H239261   0.859   0.269   2.592 -1.0446 -0.0240 -0.0019
 5924TIP3   OH239262   2.387   3.506   0.043 -0.5148  0.0372  0.2374
 5924TIP3    H139263   2.450   3.513   0.115  2.7241  0.5032 -2.3526
 5924TIP3    H239264   2.310   3.554   0.073  0.3506 -0.4358  3.5886
 5925TIP3   OH239265   6.844   0.355   0.003  0.0049 -0.1597  0.1304
 5925TIP3    H139266   6.783   0.350   0.078 -0.5116 -0.8637 -0.3223
 5925TIP3    H239267   6.902   0.280   0.015  0.3819  0.1473  0.2173
 5926TIP3   OH239268   1.192   5.607  13.785  0.8625 -0.2744  0.5632
 5926TIP3    H139269   1.204   5.597  13.691  1.1500 -0.1269  0.5834
 5926TIP3    H239270   1.277   5.638  13.817  0.5733  0.3003  0.7787
 5927TIP3   OH239271   1.286   0.533   4.252  0.4340  0.2085  0.2061
 5927TIP3    H139272   1.235   0.495   4.323  0.8571  1.8728  1.4587
 5927TIP3    H239273   1.245   0.618   4.235  1.4388  0.6108 -0.2992
 5928TIP3   OH239274   5.191   4.691  14.465  0.4027  0.7193 -0.1141
 5928TIP3    H139275   5.101   4.724  14.469 -0.7336 -2.1203  0.3644
 5928TIP3    H239276   5.230   4.736  14.391 -1.1720  2.5419  0.0912
 5929TIP3   OH239277   4.625   2.107  11.507 -0.1541  0.0033  0.2529
 5929TIP3    H139278   4.705   2.101  11.455 -0.9661 -0.4178 -1.0021
 5929TIP3    H239279   4.628   2.031  11.565 -0.3252 -0.8747 -0.8390
 5930TIP3   OH239280   1.546   1.220  13.375 -0.5686 -0.0812  0.0702
 5930TIP3    H139281   1.520   1.308  13.349  0.7264 -0.4391 -2.7961
 5930TIP3    H239282   1.642   1.221  13.371 -0.5437 -1.7130 -0.4628
 5931TIP3   OH239283   2.243   0.218  11.990 -0.2876  0.0106 -0.0447
 5931TIP3    H139284   2.262   0.127  11.968 -1.0938  0.5358 -3.4500
 5931TIP3    H239285   2.329   0.261  11.988 -0.0632 -0.4097  0.3064
 5932TIP3   OH239286   1.074   0.650   4.971 -0.1836 -0.0723 -0.3644
 5932TIP3    H139287   1.003   0.689   4.921  0.1575  2.0153  0.6110
 5932TIP3    H239288   1.072   0.697   5.055  1.5978 -0.7617  0.1189
 5933TIP3   OH239289   1.727   2.955   2.284  0.1838  0.5438  0.5534
 5933TIP3    H139290   1.644   2.937   2.241  0.3779 -0.0500  0.4100
 5933TIP3    H239291   1.790   2.898   2.239  0.7645  1.3584  0.3124
 5934TIP3   OH239292   4.563   1.657  12.836  0.2555 -0.1438 -0.0690
 5934TIP3    H139293   4.470   1.636  12.838 -0.0943  1.1786 -0.9579
 5934TIP3    H239294   4.575   1.706  12.754  1.2006  2.0003  1.2571
 5935TIP3   OH239295   2.390   3.394  12.724  0.1422 -0.1722  0.3618
 5935TIP3    H139296   2.314   3.365  12.775 -0.9102  1.8290  0.0388
 5935TIP3    H239297   2.402   3.326  12.658 -0.7079 -1.0398  1.0684
 5936TIP3   OH239298   4.172   4.012  11.395  0.2684 -0.4130 -0.2182
 5936TIP3    H139299   4.187   4.033  11.303  1.7736  0.3722  0.1740
 5936TIP3    H239300   4.126   4.088  11.430  0.1759 -0.4782 -0.1976
 5937TIP3   OH239301   3.613   3.424  14.871  0.5396 -0.1844  0.5317
 5937TIP3    H139302   3.635   3.343  14.824 -2.3279 -0.6862 -0.1575
 5937TIP3    H239303   3.526   3.408  14.906  0.8011  1.8498  2.3094
 5938TIP3   OH239304   0.969   3.293  12.550 -0.4526  0.0490  0.1702
 5938TIP3    H139305   0.971   3.233  12.476 -0.7894  0.2876 -0.0327
 5938TIP3    H239306   0.899   3.260  12.606 -0.7904  0.3811 -0.0526
 5939TIP3   OH239307   3.055   1.755  11.400  0.4439  0.1001 -0.2387
 5939TIP3    H139308   3.048   1.747  11.305  0.8261  1.6442 -0.4318
 5939TIP3    H239309   3.127   1.696  11.425  0.2442 -0.4191 -0.8811
 5940TIP3   OH239310   6.260   0.848  14.334  0.5184 -0.3062  0.5849
 5940TIP3    H139311   6.264   0.769  14.387 -0.4110  0.0344  1.1835
 5940TIP3    H239312   6.167   0.864  14.320  0.7042  0.4459  0.1165
 5941TIP3   OH239313   3.576   3.920  15.605 -0.0230 -0.1528  0.1341
 5941TIP3    H139314   3.660   3.885  15.637  0.5918  0.7037 -0.4989
 5941TIP3    H239315   3.546   3.855  15.542  0.7518  0.0754 -0.4943
 5942TIP3   OH239316   4.346   5.743  14.333  0.7156 -0.2339 -0.5836
 5942TIP3    H139317   4.392   5.826  14.319 -1.1390  0.8004 -1.0643
 5942TIP3    H239318   4.289   5.735  14.256  0.8372 -1.9517 -0.5197
 5943TIP3   OH239319   2.512   5.882  16.340  0.1498 -0.1221  0.2959
 5943TIP3    H139320   2.595   5.929  16.338  0.3229 -0.4200 -1.9915
 5943TIP3    H239321   2.451   5.939  16.293 -0.6204 -0.4846  0.8422
 5944TIP3   OH239322   0.902   5.574   4.522 -0.0986  0.5660 -0.7512
 5944TIP3    H139323   0.913   5.504   4.587  0.2518  0.6830 -0.6824
 5944TIP3    H239324   0.818   5.615   4.545 -0.9817 -0.7017 -1.6290
 5945TIP3   OH239325   5.503   5.256   1.339  0.2200  0.1272 -0.1465
 5945TIP3    H139326   5.598   5.264   1.352  0.4103 -1.5366 -0.2445
 5945TIP3    H239327   5.487   5.161   1.340 -1.4719  0.3859  0.0450
 5946TIP3   OH239328   2.485   5.341  15.546  0.5405  0.2690  0.4837
 5946TIP3    H139329   2.394   5.324  15.571 -0.2762  1.9702 -1.0777
 5946TIP3    H239330   2.528   5.364  15.628 -0.3722 -0.7573  1.2891
 5947TIP3   OH239331   6.034   3.153  16.630 -0.3118 -0.0503  0.1035
 5947TIP3    H139332   6.007   3.245  16.625 -0.9073 -0.2328 -0.0513
 5947TIP3    H239333   6.062   3.142  16.721  1.1997  0.6701 -0.2375
 5948TIP3   OH239334   6.237   0.447  12.052  0.0524  0.7410 -0.7643
 5948TIP3    H139335   6.263   0.372  11.999 -0.1644  0.2141 -0.1382
 5948TIP3    H239336   6.238   0.521  11.991 -3.2038 -0.3331 -2.3517
 5949TIP3   OH239337   2.379   6.592  15.010  0.1926  0.4965  0.2048
 5949TIP3    H139338   2.403   6.503  14.986 -2.3908 -1.0579  2.6742
 5949TIP3    H239339   2.452   6.624  15.063  0.5992 -0.6803  0.3777
 5950TIP3   OH239340   5.783   1.582   6.252 -0.0881 -0.0079  0.1970
 5950TIP3    H139341   5.750   1.525   6.321  1.0521  0.0085  0.7791
 5950TIP3    H239342   5.850   1.635   6.296 -0.6221  1.2737 -0.4985
 5951TIP3   OH239343   2.815   5.785  17.120  0.3223 -0.7691 -0.4773
 5951TIP3    H139344   2.818   5.733  17.201 -0.0518 -0.7005 -0.4180
 5951TIP3    H239345   2.831   5.875  17.149  1.6233 -0.9249 -0.6583
 5952TIP3   OH239346   2.450   6.106  16.852  0.2605 -0.4057 -0.1458
 5952TIP3    H139347   2.451   6.039  16.921 -1.5935 -1.8009 -1.3713
 5952TIP3    H239348   2.506   6.070  16.783 -0.2152 -0.3760 -0.5474
 5953TIP3   OH239349   2.334   4.517  12.282 -0.3833  0.2913 -0.5619
 5953TIP3    H139350   2.367   4.427  12.274  0.8684  0.7295 -0.6900
 5953TIP3    H239351   2.398   4.561  12.338 -0.5187  1.3075 -1.1768
 5954TIP3   OH239352   6.687   5.159  16.080 -0.0713  0.3013  0.6939
 5954TIP3    H139353   6.616   5.116  16.033 -1.6581  1.6208  1.7948
 5954TIP3    H239354   6.698   5.107  16.160  1.7916 -1.2107 -0.4496
 5955TIP3   OH239355   4.243   3.923   2.288  0.6993 -0.7362  0.2292
 5955TIP3    H139356   4.273   4.004   2.327  0.8370 -0.5074 -0.3327
 5955TIP3    H239357   4.249   3.938   2.193 -1.0737 -0.7285  0.0903
 5956TIP3   OH239358   0.386   4.300   4.675 -0.0025 -0.5203 -0.0008
 5956TIP3    H139359   0.415   4.368   4.736  1.5208  0.5355 -1.7892
 5956TIP3    H239360   0.395   4.218   4.724  0.2879  0.3588  1.4724
 5957TIP3   OH239361   3.412   2.676   5.807 -0.3485  0.0100 -0.4732
 5957TIP3    H139362   3.335   2.623   5.824 -0.1378 -0.1000  0.1681
 5957TIP3    H239363   3.388   2.764   5.836  0.7207 -0.5784  2.5904
 5958TIP3   OH239364   5.152   3.231   1.450 -0.1283  0.0132  0.1797
 5958TIP3    H139365   5.102   3.186   1.518 -0.5572 -1.6848 -1.1773
 5958TIP3    H239366   5.244   3.218   1.475 -0.2958  0.5721  1.1154
 5959TIP3   OH239367   1.139   4.242  12.611 -0.3656 -0.0548  0.0656
 5959TIP3    H139368   1.169   4.301  12.680  1.2269  1.1438 -1.5600
 5959TIP3    H239369   1.207   4.176  12.604 -1.2221 -1.0219  0.5838
 5960TIP3   OH239370   6.218   1.488   4.047 -0.0394 -0.0193  0.2356
 5960TIP3    H139371   6.151   1.497   4.115  0.0286  0.1703  0.2790
 5960TIP3    H239372   6.278   1.421   4.082  0.9268  1.2700  1.1471
 5961TIP3   OH239373   6.605   4.946   5.122  0.2675 -0.3528 -0.2045
 5961TIP3    H139374   6.619   4.878   5.056 -1.5159 -0.8390 -0.1448
 5961TIP3    H239375   6.692   4.965   5.156  0.9715 -1.6111 -1.2143
 5962TIP3   OH239376   0.660   2.156  16.484  0.1554 -0.1221 -0.6256
 5962TIP3    H139377   0.566   2.139  16.473  0.1920  0.3366 -1.8357
 5962TIP3    H239378   0.674   2.153  16.579 -0.8607 -1.3204 -0.4805
 5963TIP3   OH239379   3.540   3.231  12.729  0.6771  0.2544  0.5277
 5963TIP3    H139380   3.520   3.250  12.637  1.9083  1.4857  0.4833
 5963TIP3    H239381   3.616   3.173  12.725  1.0228  0.6888  0.7700
 5964TIP3   OH239382   0.014   5.651  10.517  0.0350  0.3891 -0.3679
 5964TIP3    H139383   0.088   5.705  10.544 -0.1469 -0.0593  1.1266
 5964TIP3    H239384  -0.029   5.625  10.599 -0.2204 -1.5355 -1.0391
 5965TIP3   OH239385   5.444   2.867  14.818  0.5580  0.0001  0.2480
 5965TIP3    H139386   5.442   2.869  14.723 -0.2830 -1.8609  0.1933
 5965TIP3    H239387   5.404   2.950  14.844  0.4947  0.3848 -1.0200
 5966TIP3   OH239388   6.555   0.490  14.710 -0.1201  0.0997 -0.1817
 5966TIP3    H139389   6.535   0.422  14.645  1.3787 -0.3652 -0.2166
 5966TIP3    H239390   6.476   0.498  14.762 -0.6918 -0.9315 -0.8550
 5967TIP3   OH239391   1.024   0.372  13.209 -0.5598 -0.5141 -0.2497
 5967TIP3    H139392   0.958   0.359  13.276 -0.3327 -0.1385  0.0494
 5967TIP3    H239393   0.977   0.413  13.136 -0.0710  2.9602  1.2019
 5968TIP3   OH239394   1.513   3.827   0.382  0.2088 -0.0634  0.3045
 5968TIP3    H139395   1.570   3.772   0.436  1.6792  0.9938 -0.1028
 5968TIP3    H239396   1.540   3.917   0.403 -1.5312  0.4913  0.3003
 5969TIP3   OH239397   1.140   0.224   2.431 -0.8335 -0.1180  0.0280
 5969TIP3    H139398   1.051   0.192   2.451 -1.1433  1.4950  1.4149
 5969TIP3    H239399   1.127   0.313   2.399  0.2428 -0.1159 -0.4360
 5970TIP3   OH239400   3.615   6.298   0.884 -0.7153  0.2150 -0.0472
 5970TIP3    H139401   3.532   6.269   0.922  0.7074 -0.0897  3.0867
 5970TIP3    H239402   3.673   6.222   0.893 -0.0636  0.3797 -2.3067
 5971TIP3   OH239403   4.211   3.725  15.691 -0.1529  0.0235  0.1568
 5971TIP3    H139404   4.128   3.678  15.681  1.2767 -2.4148 -1.4424
 5971TIP3    H239405   4.202   3.800  15.633 -1.5443  0.3021  0.6826
 5972TIP3   OH239406   1.823   6.640   2.853  0.1217 -0.3137  0.3862
 5972TIP3    H139407   1.791   6.556   2.818  0.7414 -0.6536  0.6067
 5972TIP3    H239408   1.784   6.706   2.797 -1.1268 -0.6966  0.7797
 5973TIP3   OH239409   2.773   0.946   5.121 -0.2355  0.2160  0.7774
 5973TIP3    H139410   2.849   0.956   5.178  0.9386 -0.2467 -0.6306
 5973TIP3    H239411   2.796   0.872   5.063 -0.8619  1.3631 -1.0338
 5974TIP3   OH239412   6.098   5.247   0.308  0.5275  0.0085  0.7416
 5974TIP3    H139413   6.125   5.331   0.272  0.2565 -0.3653 -0.3794
 5974TIP3    H239414   6.157   5.231   0.381  0.0982  1.5195  1.4556
 5975TIP3   OH239415   3.832   3.823  13.885  0.0949 -0.0018  0.2484
 5975TIP3    H139416   3.754   3.851  13.933 -1.1431 -0.6960 -1.2656
 5975TIP3    H239417   3.798   3.769  13.813  1.9932 -0.4880 -0.3467
 5976TIP3   OH239418   2.379   3.538  11.069 -0.3214  0.0010  0.0638
 5976TIP3    H139419   2.353   3.511  10.981 -0.8566 -0.5880  0.3960
 5976TIP3    H239420   2.303   3.516  11.124  0.7674 -1.5139  1.0157
 5977TIP3   OH239421   6.184   2.704  14.954 -0.2252 -0.2272 -0.2246
 5977TIP3    H139422   6.200   2.776  14.893 -2.3970  2.6646  2.3339
 5977TIP3    H239423   6.090   2.689  14.948 -0.2372 -0.9029  1.3186
 5978TIP3   OH239424   0.705   1.126   1.690  0.5671  0.1673  0.3355
 5978TIP3    H139425   0.670   1.188   1.626  0.2840 -1.9736 -1.7080
 5978TIP3    H239426   0.628   1.091   1.735  0.5276 -0.2679 -0.0583
 5979TIP3   OH239427   5.847   5.804  13.580 -0.0719 -0.8214 -0.2212
 5979TIP3    H139428   5.821   5.783  13.490 -1.9919 -1.4816  0.4450
 5979TIP3    H239429   5.788   5.752  13.635 -0.1775  0.9577  1.4471
 5980TIP3   OH239430   5.416   0.466  12.791 -0.4382 -0.1022 -0.1417
 5980TIP3    H139431   5.498   0.516  12.790  0.5265 -1.5821  0.3088
 5980TIP3    H239432   5.410   0.430  12.702 -1.1421  0.8063 -0.4727
 5981TIP3   OH239433   0.039   4.509   0.394 -0.0266  0.4203  0.0219
 5981TIP3    H139434  -0.022   4.461   0.339 -1.1308  2.7667 -0.9280
 5981TIP3    H239435  -0.015   4.545   0.465  0.6963  0.5922  0.4991
 5982TIP3   OH239436   0.999   3.133   4.600 -0.0015 -0.0293 -0.3183
 5982TIP3    H139437   1.049   3.211   4.623  0.5568 -0.6960  0.8479
 5982TIP3    H239438   0.929   3.129   4.666 -1.0797  0.4104 -1.4003
 5983TIP3   OH239439   4.447   3.764  12.051 -0.0801  0.5669 -0.4292
 5983TIP3    H139440   4.447   3.707  11.974  0.9830 -0.9930  0.6885
 5983TIP3    H239441   4.509   3.724  12.112 -0.2815  2.2055  0.9410
 5984TIP3   OH239442   2.008   6.591  16.519  0.1461 -0.6348  0.2425
 5984TIP3    H139443   2.027   6.685  16.514 -1.1298 -0.3732 -0.0889
 5984TIP3    H239444   2.059   6.560  16.593 -0.0103  0.4817  0.8452
 5985TIP3   OH239445   3.816   5.645  15.524 -0.0525 -0.0864 -0.0050
 5985TIP3    H139446   3.805   5.740  15.516 -0.4275 -0.0100  1.2530
 5985TIP3    H239447   3.885   5.624  15.460  0.3859  1.0995  0.0406
 5986TIP3   OH239448   0.999   6.099   2.314  0.3353 -0.0095 -1.1299
 5986TIP3    H139449   1.060   6.172   2.323  1.4147 -0.9469 -0.6026
 5986TIP3    H239450   0.921   6.127   2.362  0.9708  0.5586 -0.4087
 5987TIP3   OH239451   1.014   5.251   6.507  0.6341 -0.0284 -0.4158
 5987TIP3    H139452   1.046   5.285   6.591 -0.1521  0.2632 -0.2260
 5987TIP3    H239453   0.960   5.322   6.472  0.6477 -0.2980 -0.9880
 5988TIP3   OH239454   0.443   0.030  16.869  0.1488  0.1092  0.2995
 5988TIP3    H139455   0.483   0.100  16.920 -0.8191  1.2423 -0.4312
 5988TIP3    H239456   0.367   0.071  16.827  0.5711 -0.9121 -1.5870
 5989TIP3   OH239457   4.627   5.956   5.288 -0.4042  0.6067 -0.1327
 5989TIP3    H139458   4.629   6.045   5.322  0.3228 -0.7856  4.1306
 5989TIP3    H239459   4.533   5.934   5.286 -0.5972  1.4263 -1.3478
 5990TIP3   OH239460   5.781   2.616  12.326  0.5624 -0.0501 -0.3117
 5990TIP3    H139461   5.766   2.593  12.418  0.5422  1.1673 -0.0059
 5990TIP3    H239462   5.872   2.591  12.309  0.3591 -0.9184 -0.1671
 5991TIP3   OH239463   5.647   4.062   1.547  0.3479 -0.6612  0.1153
 5991TIP3    H139464   5.683   4.113   1.619  1.2366 -1.1183  0.0172
 5991TIP3    H239465   5.649   3.972   1.578 -0.4829 -0.7208  0.0025
 5992TIP3   OH239466   4.651   4.293  14.709 -0.0734 -0.3695 -0.3222
 5992TIP3    H139467   4.611   4.375  14.679  0.9205  0.4427  0.4997
 5992TIP3    H239468   4.736   4.290  14.664  1.1482  0.5288  1.7479
 5993TIP3   OH239469   0.088   5.054  13.018 -0.1508 -0.0921 -0.4696
 5993TIP3    H139470   0.157   5.052  13.084 -0.4054 -0.1972 -0.2064
 5993TIP3    H239471   0.099   5.138  12.975 -0.4741  0.3199  0.2335
 5994TIP3   OH239472   0.840   2.125  12.156 -0.1966  0.1474 -0.0055
 5994TIP3    H139473   0.904   2.059  12.131 -1.2963 -1.5357  1.3668
 5994TIP3    H239474   0.889   2.207  12.160  1.6916 -0.9520  0.3271
 5995TIP3   OH239475   6.769   6.066   2.400  0.5261  0.0219  0.4465
 5995TIP3    H139476   6.726   6.088   2.317 -1.7958 -0.3872  1.4627
 5995TIP3    H239477   6.698   6.034   2.456  2.6243 -3.8881  1.1947
 5996TIP3   OH239478   6.037   0.447   4.711  0.2339 -0.5873  0.3941
 5996TIP3    H139479   6.130   0.455   4.732  0.4101 -0.8837 -0.2481
 5996TIP3    H239480   5.992   0.469   4.793  0.8067  1.2901  0.2639
 5997TIP3   OH239481   4.821   2.703   6.028 -0.3867  0.0526  0.0407
 5997TIP3    H139482   4.845   2.794   6.010  0.0879 -0.2792 -1.0352
 5997TIP3    H239483   4.766   2.708   6.107  1.6823  1.0025  1.5066
 5998TIP3   OH239484   6.061   4.611   6.074  0.6391  0.4537 -0.4684
 5998TIP3    H139485   6.127   4.670   6.111  0.0387  0.1902  1.0817
 5998TIP3    H239486   5.980   4.663   6.075  0.1768 -0.2602  0.6010
 5999TIP3   OH239487   1.743   6.191  10.580 -0.0100 -0.0622  0.1808
 5999TIP3    H139488   1.698   6.108  10.588  0.0296 -0.4513 -2.6838
 5999TIP3    H239489   1.691   6.242  10.518 -0.0139  2.0941  1.8078
 6000TIP3   OH239490   1.211   1.217   2.703  1.0552  0.5181 -0.0063
 6000TIP3    H139491   1.119   1.245   2.700  1.0427  0.7046  1.4454
 6000TIP3    H239492   1.207   1.124   2.726  1.2410  0.8592  1.4916
 6001TIP3   OH239493   0.137   5.418   5.226 -0.1727  0.3684 -0.0386
 6001TIP3    H139494   0.084   5.479   5.278 -2.4965 -0.9648 -0.7153
 6001TIP3    H239495   0.154   5.344   5.285  0.9647  0.7645  0.1598
 6002TIP3   OH239496   5.497   2.604  15.792 -0.0741 -0.0382  0.0320
 6002TIP3    H139497   5.514   2.698  15.789 -0.4172  0.0038 -1.8835
 6002TIP3    H239498   5.404   2.597  15.814 -0.1432  0.1036 -0.2048
 6003TIP3   OH239499   4.219   0.799  16.434  0.0620  0.1296  0.1648
 6003TIP3    H139500   4.272   0.791  16.513 -0.7202  0.3373  0.7163
 6003TIP3    H239501   4.283   0.794  16.362  0.7534 -0.2923  0.7924
 6004TIP3   OH239502   3.590   5.466  16.413 -0.3829  0.0651 -0.2416
 6004TIP3    H139503   3.516   5.468  16.352 -1.2445  0.2648  0.7971
 6004TIP3    H239504   3.601   5.557  16.440  0.1855  0.0195 -0.2950
 6005TIP3   OH239505   6.336   5.717  15.211  0.0127  0.0848 -0.1634
 6005TIP3    H139506   6.359   5.714  15.303  2.9716 -2.6078 -0.8304
 6005TIP3    H239507   6.355   5.806  15.184  1.1799  0.3318  1.3691
 6006TIP3   OH239508   0.146   1.301  11.744 -0.1134 -0.4144  0.2266
 6006TIP3    H139509   0.234   1.301  11.706  0.0780 -0.0758  0.6688
 6006TIP3    H239510   0.119   1.392  11.740  0.1131 -0.2890  1.3784
 6007TIP3   OH239511   2.848   4.360  14.840  0.3729  0.1164 -0.3226
 6007TIP3    H139512   2.940   4.387  14.834  0.5380 -0.2883  0.2514
 6007TIP3    H239513   2.812   4.377  14.753  0.9078  0.5767 -0.4612
 6008TIP3   OH239514   3.718   6.300  13.688 -1.0478  0.1192 -0.5939
 6008TIP3    H139515   3.761   6.220  13.721 -1.8545 -0.8939 -1.8836
 6008TIP3    H239516   3.787   6.366  13.690 -0.3235 -0.6310  0.4314
 6009TIP3   OH239517   0.798   1.625  11.931  0.1723  0.1561  0.0086
 6009TIP3    H139518   0.756   1.671  12.004 -0.7048 -1.3381  0.4888
 6009TIP3    H239519   0.728   1.572  11.893  0.9712 -0.2195 -0.9838
 6010TIP3   OH239520   6.589   6.159  14.720 -0.0252  0.1613 -0.5840
 6010TIP3    H139521   6.576   6.065  14.707  0.6403 -0.0430  0.1585
 6010TIP3    H239522   6.684   6.170  14.714 -0.2241  1.5193 -5.4721
 6011TIP3   OH239523   0.586   2.460   1.375  0.4902 -0.2542 -0.2780
 6011TIP3    H139524   0.564   2.506   1.455 -0.4112  2.3712 -1.9140
 6011TIP3    H239525   0.561   2.369   1.392 -3.0468  0.8543  1.2181
 6012TIP3   OH239526   4.966   1.677  15.426  0.1558 -0.1006  0.7388
 6012TIP3    H139527   4.977   1.591  15.387 -0.1990  0.2260 -0.1084
 6012TIP3    H239528   5.055   1.702  15.454  0.5810  0.0121 -0.6473
 6013TIP3   OH239529   1.435   4.877  16.488  0.3052 -0.2061  0.0905
 6013TIP3    H139530   1.421   4.969  16.466  1.8774  0.0260 -0.0800
 6013TIP3    H239531   1.396   4.828  16.415  0.3872  0.3705 -0.3447
 6014TIP3   OH239532   5.929   3.022  16.000  0.1430 -0.0484 -0.1060
 6014TIP3    H139533   5.889   3.093  15.951  1.3233  0.1846 -0.7741
 6014TIP3    H239534   5.881   2.944  15.972 -0.8532  0.3941  0.2920
 6015TIP3   OH239535   5.683   6.453   5.879  0.0019 -0.7222  0.4737
 6015TIP3    H139536   5.610   6.396   5.903 -0.5880 -0.4557 -0.6464
 6015TIP3    H239537   5.728   6.407   5.808  2.1441 -1.8244  2.4189
 6016TIP3   OH239538   5.606   3.739  12.968  0.2762 -0.2064  0.4310
 6016TIP3    H139539   5.617   3.834  12.961  1.8767 -0.4475 -1.6992
 6016TIP3    H239540   5.513   3.723  12.952  0.3529  0.9169 -1.3886
 6017TIP3   OH239541   3.725   2.917   3.760 -0.0457  0.4186  0.4203
 6017TIP3    H139542   3.748   2.831   3.795 -0.9968  0.8339  2.2393
 6017TIP3    H239543   3.731   2.907   3.665  1.9681 -1.0128  0.6334
 6018TIP3   OH239544   6.834   0.559  11.654  0.0134  0.2403 -0.2163
 6018TIP3    H139545   6.754   0.607  11.675  0.1303  0.4472 -0.2401
 6018TIP3    H239546   6.900   0.627  11.639  0.4232  0.0702  0.6990
 6019TIP3   OH239547   0.189   4.003   5.082  0.3328  0.2675  0.0013
 6019TIP3    H139548   0.179   4.089   5.123 -3.3169 -1.3428  3.1337
 6019TIP3    H239549   0.255   3.959   5.135 -0.8856 -0.2021  1.1732
 6020TIP3   OH239550   2.968   6.289   5.714 -0.1088 -0.4313  0.2676
 6020TIP3    H139551   3.021   6.211   5.697  0.2723  0.0046 -0.5871
 6020TIP3    H239552   2.993   6.316   5.802 -1.2387 -2.0412  1.1378
 6021TIP3   OH239553   1.522   2.951  14.521  0.1102 -0.2478  0.0643
 6021TIP3    H139554   1.444   2.905  14.553  0.7956 -0.4902  1.4719
 6021TIP3    H239555   1.489   3.008  14.451 -1.8249  1.5986  2.2837
 6022TIP3   OH239556   5.045   3.343  13.097  0.0292 -0.1138  0.2520
 6022TIP3    H139557   4.978   3.302  13.151  0.9460 -1.9446  0.0661
 6022TIP3    H239558   5.009   3.340  13.008  0.0413 -0.3956  0.2565
 6023TIP3   OH239559   0.564   1.061  12.757  0.5832  0.2409 -0.3984
 6023TIP3    H139560   0.650   1.048  12.796  0.4073 -1.7091 -0.5927
 6023TIP3    H239561   0.559   0.995  12.688 -1.5309 -0.5022  0.4074
 6024TIP3   OH239562   5.609   0.651   2.664 -0.2178  0.0510 -0.2543
 6024TIP3    H139563   5.640   0.683   2.579 -0.9794 -1.4900 -1.1441
 6024TIP3    H239564   5.675   0.587   2.691  0.0010  0.5074  0.3103
 6025TIP3   OH239565   2.073   5.084  12.825  0.2587 -0.3764 -0.3693
 6025TIP3    H139566   2.023   5.054  12.749 -0.3883 -0.4546  0.0812
 6025TIP3    H239567   2.077   5.180  12.815  1.4487 -0.4948 -1.2681
 6026TIP3   OH239568   6.640   4.525   2.697  0.6887  0.1192  0.5340
 6026TIP3    H139569   6.571   4.572   2.745  0.3185 -0.3531  0.4681
 6026TIP3    H239570   6.691   4.595   2.656 -1.0087  0.4433 -1.1776
 6027TIP3   OH239571   2.477   3.636  13.097 -0.2277 -0.2250 -0.4819
 6027TIP3    H139572   2.525   3.717  13.084  0.7731 -0.3251  2.0170
 6027TIP3    H239573   2.423   3.652  13.174  0.6043 -2.1507  0.5758
 6028TIP3   OH239574   5.649   6.805   3.576 -0.0584 -0.3031 -0.1013
 6028TIP3    H139575   5.692   6.858   3.643 -0.5814  0.2183 -0.1796
 6028TIP3    H239576   5.572   6.855   3.550 -0.9723 -1.4263  0.3402
 6029TIP3   OH239577   0.414   2.142   0.691  0.3150 -0.1391  0.0690
 6029TIP3    H139578   0.397   2.227   0.652  1.3668  0.1379  0.1748
 6029TIP3    H239579   0.392   2.153   0.784  0.8213  0.1445  0.1610
 6030TIP3   OH239580   6.364   4.811  14.753 -0.3735  0.6363 -0.3405
 6030TIP3    H139581   6.398   4.875  14.816 -0.5825 -0.7664  1.2762
 6030TIP3    H239582   6.406   4.833  14.670  1.6353  1.2093  0.7707
 6031TIP3   OH239583   6.004   6.367   4.363 -0.5454 -0.3681  0.3102
 6031TIP3    H139584   6.097   6.351   4.349 -0.4351 -0.9627  1.5256
 6031TIP3    H239585   5.976   6.295   4.419 -1.5560  0.2335  0.6062
 6032TIP3   OH239586   3.615   4.567  11.441 -0.1616 -0.2201 -0.9270
 6032TIP3    H139587   3.664   4.621  11.379 -0.3565  1.0670 -0.0096
 6032TIP3    H239588   3.608   4.622  11.519  1.4531 -2.3495  0.8483
 6033TIP3   OH239589   3.998   1.474  17.029  0.1097  0.4105 -0.4189
 6033TIP3    H139590   3.913   1.435  17.051  0.3777  0.2746  0.4389
 6033TIP3    H239591   4.023   1.522  17.108  0.6178  0.8391 -0.8325
 6034TIP3   OH239592   1.089   1.185   1.843  0.1649 -0.2520  0.1450
 6034TIP3    H139593   0.997   1.166   1.860 -0.5090  1.7770 -0.8549
 6034TIP3    H239594   1.105   1.150   1.756  0.3749 -0.7169  0.3710
 6035TIP3   OH239595   1.343   1.389  12.049  0.0768  0.0921  0.1890
 6035TIP3    H139596   1.272   1.418  11.993 -0.6061 -1.4608  0.1963
 6035TIP3    H239597   1.411   1.456  12.039 -0.4110  0.3543 -1.7120
 6036TIP3   OH239598   3.172   5.295  15.507 -0.0264  0.2074  0.6041
 6036TIP3    H139599   3.199   5.362  15.569  0.4077 -0.9754  1.7476
 6036TIP3    H239600   3.080   5.314  15.490 -0.5114 -0.1141  2.5664
 6037TIP3   OH239601   3.257   0.441  13.258 -0.9645  0.1522 -0.8265
 6037TIP3    H139602   3.200   0.485  13.320 -0.3977 -0.6923  0.3177
 6037TIP3    H239603   3.319   0.508  13.231 -0.5170  0.2524  0.3958
 6038TIP3   OH239604   4.109   0.691   0.587  0.2201  0.3535 -0.0925
 6038TIP3    H139605   4.073   0.626   0.648  1.0837  0.1458  0.2254
 6038TIP3    H239606   4.200   0.663   0.576  0.7877  1.8742  0.5411
 6039TIP3   OH239607   0.311   5.661  14.493  0.6308 -0.0185  0.6031
 6039TIP3    H139608   0.335   5.603  14.421 -2.5995 -0.8603  0.0428
 6039TIP3    H239609   0.373   5.734  14.487  0.7777 -0.2664 -2.7436
 6040TIP3   OH239610   2.902   2.959  15.706 -1.0595 -0.1868 -0.2281
 6040TIP3    H139611   2.865   2.991  15.789  0.8353 -0.5708  0.8332
 6040TIP3    H239612   2.969   3.024  15.683  0.4340 -1.5143  0.1283
 6041TIP3   OH239613   2.185   3.264  13.764 -0.8405  0.2440  0.3329
 6041TIP3    H139614   2.127   3.189  13.778 -1.2725  0.5775  0.3447
 6041TIP3    H239615   2.231   3.244  13.682  0.1238 -0.7118  1.0672
 6042TIP3   OH239616   0.115   5.387   3.066 -0.1509  0.2403  0.6791
 6042TIP3    H139617   0.069   5.431   3.137 -1.3558 -1.1400  0.8172
 6042TIP3    H239618   0.190   5.345   3.108  0.0259  0.7288  0.8513
 6043TIP3   OH239619   2.683   5.386  15.321 -0.0804  0.3039  0.6823
 6043TIP3    H139620   2.692   5.331  15.243  2.3782 -2.9232  2.9581
 6043TIP3    H239621   2.609   5.349  15.369 -0.7007  1.3718  0.5819
 6044TIP3   OH239622   1.462   2.880   0.105  0.8350 -0.2021 -1.0010
 6044TIP3    H139623   1.430   2.807   0.159  1.1854  0.0188 -0.4890
 6044TIP3    H239624   1.465   2.844   0.017  1.0777 -0.8380 -0.7463
 6045TIP3   OH239625   1.598   5.561   2.459  0.2990 -0.0843 -0.2654
 6045TIP3    H139626   1.672   5.514   2.421 -0.6363 -2.5076  0.6996
 6045TIP3    H239627   1.532   5.564   2.390  1.5594  3.1104 -1.5305
 6046TIP3   OH239628   2.186   2.135   4.813  0.3367 -0.0080 -0.1922
 6046TIP3    H139629   2.260   2.182   4.851 -0.7079  0.8635  0.8173
 6046TIP3    H239630   2.148   2.196   4.751  0.4118 -0.4311 -0.6601
 6047TIP3   OH239631   4.491   0.027   0.114 -0.3795  0.2754  0.1404
 6047TIP3    H139632   4.572   0.013   0.065 -0.3906  1.0382 -0.1098
 6047TIP3    H239633   4.475  -0.056   0.158 -0.5287 -0.5188 -1.3748
 6048TIP3   OH239634   2.882   2.180  12.224  0.1677 -0.7045  0.0349
 6048TIP3    H139635   2.890   2.275  12.227  3.0178 -0.8325 -0.2622
 6048TIP3    H239636   2.813   2.159  12.287 -0.9888  1.5656 -0.3860
 6049TIP3   OH239637   2.927   3.273  16.543  0.1126  0.1089 -0.0121
 6049TIP3    H139638   2.947   3.361  16.576  0.2102 -0.2805  0.9897
 6049TIP3    H239639   3.004   3.221  16.566 -0.7349 -0.6836  1.1276
 6050TIP3   OH239640   4.921   1.296  15.767 -0.0556  0.2486 -0.4757
 6050TIP3    H139641   4.835   1.297  15.726  0.4996 -0.2594 -1.6743
 6050TIP3    H239642   4.904   1.268  15.857 -1.3155  1.6381 -0.2280
 6051TIP3   OH239643   4.938   4.742  14.080  0.1229  0.3736 -0.3122
 6051TIP3    H139644   4.846   4.738  14.054 -0.5170 -0.5612  1.8375
 6051TIP3    H239645   4.948   4.672  14.144  2.1065  1.0492  0.1975
 6052TIP3   OH239646   4.788   1.480  13.318 -1.0916  0.1237  0.0331
 6052TIP3    H139647   4.823   1.449  13.234 -1.0079 -1.1078  0.4986
 6052TIP3    H239648   4.797   1.404  13.376 -2.7375  0.4053  0.6933
 6053TIP3   OH239649   0.015   0.528   4.722  0.1837  0.1492 -0.3345
 6053TIP3    H139650   0.024   0.433   4.721  2.5512  0.2694  1.2205
 6053TIP3    H239651  -0.078   0.543   4.740 -0.0731 -1.8823  0.2698
 6054TIP3   OH239652   1.919   2.772  14.292 -0.5145  0.5836 -0.1174
 6054TIP3    H139653   1.847   2.750  14.234 -0.8221 -0.8294  0.7541
 6054TIP3    H239654   1.884   2.840  14.350 -1.5261 -0.7771  0.9425
 6055TIP3   OH239655   5.408   0.844   3.814 -0.3064  0.1793  0.0043
 6055TIP3    H139656   5.334   0.882   3.860 -0.9450 -1.1764  0.1366
 6055TIP3    H239657   5.485   0.876   3.862 -0.9401 -0.9694  1.8735
 6056TIP3   OH239658   4.053   3.839   0.721  0.0830  0.0035 -0.2515
 6056TIP3    H139659   3.995   3.786   0.666  1.0437 -0.5871 -0.7353
 6056TIP3    H239660   4.141   3.811   0.695  0.5935  1.2923  0.0509
 6057TIP3   OH239661   1.097   6.415  15.586 -0.1323  0.8321  0.6082
 6057TIP3    H139662   1.160   6.484  15.565 -0.5088  1.8235  2.5207
 6057TIP3    H239663   1.012   6.457  15.573 -0.6297 -1.0410 -3.8579
 6058TIP3   OH239664   4.490   6.284  14.172  0.1785 -0.3414 -0.2231
 6058TIP3    H139665   4.411   6.327  14.140 -1.5151 -2.2774  1.1115
 6058TIP3    H239666   4.525   6.238  14.095  1.4305  2.3930 -1.4030
 6059TIP3   OH239667   2.473   1.587   4.604 -0.3112 -0.3484 -0.1678
 6059TIP3    H139668   2.462   1.519   4.538  0.0930 -2.4944  1.8587
 6059TIP3    H239669   2.540   1.553   4.663 -0.3356  1.6705  1.1327
 6060TIP3   OH239670   5.161   3.827  14.403  0.2564  0.1369  0.7360
 6060TIP3    H139671   5.086   3.883  14.381 -0.6247 -0.9377  0.9066
 6060TIP3    H239672   5.154   3.815  14.498  1.9955  1.8765  1.1541
 6061TIP3   OH239673   6.411   4.807   1.938  0.5070 -0.7275  0.2694
 6061TIP3    H139674   6.424   4.901   1.939  0.5656 -0.7289 -0.1635
 6061TIP3    H239675   6.452   4.776   2.019 -1.4575 -0.1510  1.5441
 6062TIP3   OH239676   0.430   5.358  15.346 -0.3652  0.1636 -0.1765
 6062TIP3    H139677   0.430   5.270  15.310 -0.1980  0.5437 -1.1395
 6062TIP3    H239678   0.511   5.398  15.314 -0.9765  1.0275 -0.6820
 6063TIP3   OH239679   5.721   1.277  14.276 -0.6032 -0.0171  0.1667
 6063TIP3    H139680   5.769   1.304  14.198 -1.9848 -2.0678 -1.5055
 6063TIP3    H239681   5.631   1.308  14.261 -1.1412 -1.4030  0.3467
 6064TIP3   OH239682   0.336   6.031   4.597 -0.0572 -0.5131  0.5300
 6064TIP3    H139683   0.280   5.956   4.578  1.1375 -1.6241  1.2589
 6064TIP3    H239684   0.384   6.006   4.676  0.4757  0.9630  0.6983
 6065TIP3   OH239685   2.648   5.247  11.784  0.8581 -0.6633  0.4238
 6065TIP3    H139686   2.620   5.337  11.767  3.3373  0.2493  0.7233
 6065TIP3    H239687   2.618   5.229  11.873 -0.0070 -0.3000  0.2130
 6066TIP3   OH239688   2.466   1.620  16.704 -0.0513 -0.0992  0.6431
 6066TIP3    H139689   2.392   1.565  16.732 -1.0712  0.9213  0.0589
 6066TIP3    H239690   2.517   1.635  16.783 -1.3711  0.4964  1.4075
 6067TIP3   OH239691   6.313   6.518  10.658  0.5075 -0.1612  0.4075
 6067TIP3    H139692   6.308   6.422  10.661  0.3013 -0.1762 -0.3061
 6067TIP3    H239693   6.377   6.536  10.589  0.6698  0.2159  0.6580
 6068TIP3   OH239694   0.886   3.136  11.892  0.2205  0.3832 -0.0950
 6068TIP3    H139695   0.917   3.167  11.807  1.6511  0.5677  0.4603
 6068TIP3    H239696   0.791   3.144  11.888  0.3915  2.5539 -0.8556
 6069TIP3   OH239697   5.882   0.044  12.855  0.3602 -0.6912  0.2472
 6069TIP3    H139698   5.913  -0.008  12.929  1.1098 -1.9354 -0.9031
 6069TIP3    H239699   5.961   0.084  12.818  0.0087 -0.1921  0.0171
 6070TIP3   OH239700   1.719   2.236   4.011 -0.1592 -0.2271 -0.1086
 6070TIP3    H139701   1.747   2.281   3.931 -1.4059 -0.0580 -0.4828
 6070TIP3    H239702   1.785   2.169   4.026 -0.4513 -0.9886 -1.9222
 6071TIP3   OH239703   1.871   4.381   6.236  0.0219  0.2384  0.1112
 6071TIP3    H139704   1.881   4.301   6.288  2.7107  1.0019  0.9280
 6071TIP3    H239705   1.790   4.421   6.270 -1.5833 -2.1967 -0.5424
 6072TIP3   OH239706   1.510   4.665  16.189 -0.2065  0.2972 -0.2867
 6072TIP3    H139707   1.430   4.671  16.240 -0.8065 -2.3640 -0.7241
 6072TIP3    H239708   1.482   4.629  16.105  1.4929 -1.8988 -0.0214
 6073TIP3   OH239709   5.858   1.938  13.807 -0.3885  0.3919  0.2381
 6073TIP3    H139710   5.848   1.932  13.712  0.9232  2.1709 -0.0655
 6073TIP3    H239711   5.783   1.991  13.836  0.0290  1.1482 -0.0334
 6074TIP3   OH239712   2.602   1.694  13.574 -0.0454  0.0112  0.0149
 6074TIP3    H139713   2.655   1.747  13.634  0.6859  1.5920 -1.8962
 6074TIP3    H239714   2.652   1.694  13.492 -1.3263 -1.4734 -0.8150
 6075TIP3   OH239715   3.124   3.391  10.678  0.0629  0.4277 -0.5408
 6075TIP3    H139716   3.032   3.402  10.701  0.6388  1.6197  1.4548
 6075TIP3    H239717   3.123   3.337  10.599 -2.4126  1.7791 -1.5503
 6076TIP3   OH239718   0.537   3.070   5.285 -0.3592  0.6479  0.6793
 6076TIP3    H139719   0.493   3.022   5.355  0.7617 -2.3319 -0.4982
 6076TIP3    H239720   0.467   3.096   5.225 -0.8737 -1.5021  0.2743
 6077TIP3   OH239721   1.957   5.534   1.450 -0.7012 -0.2134 -0.4217
 6077TIP3    H139722   1.862   5.533   1.437 -0.4079  0.4689 -3.3206
 6077TIP3    H239723   1.984   5.443   1.441 -0.8949 -0.1518 -1.8859
 6078TIP3   OH239724   2.491   3.051  13.142 -0.3464 -0.0749 -0.0810
 6078TIP3    H139725   2.475   3.049  13.236 -1.3833 -1.1442 -0.2487
 6078TIP3    H239726   2.574   3.004  13.130  0.7206  1.6025  0.4208
 6079TIP3   OH239727   5.240   4.253  16.396 -0.2369  0.5154 -0.6279
 6079TIP3    H139728   5.308   4.192  16.369 -0.2473  0.1462  0.1522
 6079TIP3    H239729   5.195   4.209  16.468 -0.8684  1.0385 -0.6884
 6080TIP3   OH239730   3.940   3.695   4.918  0.4782  0.2274 -0.1701
 6080TIP3    H139731   3.974   3.780   4.891 -1.9594  1.0662 -0.8888
 6080TIP3    H239732   3.906   3.710   5.006  1.4715 -0.4451  0.3351
 6081TIP3   OH239733   4.821   3.157  15.909 -0.1866  0.3692 -0.1811
 6081TIP3    H139734   4.784   3.138  15.824 -1.9046 -0.4107  0.6947
 6081TIP3    H239735   4.797   3.248  15.927 -1.2341  0.0391  0.1403
 6082TIP3   OH239736   4.484   5.858  13.477  0.5772 -0.5418  0.3298
 6082TIP3    H139737   4.497   5.778  13.426 -1.9093 -0.8271  0.0127
 6082TIP3    H239738   4.455   5.923  13.414 -0.2183 -0.2159  1.0111
 6083TIP3   OH239739   2.242   4.037  13.817  0.2597 -0.0396 -0.0035
 6083TIP3    H139740   2.170   3.982  13.847  1.0448 -0.6753  0.7824
 6083TIP3    H239741   2.233   4.118  13.868  1.3952 -0.9877  1.8139
 6084TIP3   OH239742   6.488   1.966  12.078  0.8281 -0.2023  0.5017
 6084TIP3    H139743   6.549   2.002  12.143  1.1719  0.9004 -0.4054
 6084TIP3    H239744   6.540   1.959  11.998  1.1172 -3.8378  0.8389
 6085TIP3   OH239745   4.422   6.173   2.134 -0.1954 -0.3319 -0.9373
 6085TIP3    H139746   4.395   6.254   2.176 -0.2896 -0.6744 -0.3252
 6085TIP3    H239747   4.515   6.165   2.155 -0.4079 -0.8684 -0.1778
 6086TIP3   OH239748   4.886   4.365  12.409  0.3893  0.3683 -0.4476
 6086TIP3    H139749   4.889   4.285  12.357  0.5434  0.6944 -0.9414
 6086TIP3    H239750   4.936   4.429  12.358 -0.3663  0.9910 -0.4178
 6087TIP3   OH239751   6.269   2.783   4.432 -0.3874  0.1465  0.1033
 6087TIP3    H139752   6.227   2.722   4.493 -0.6178 -0.4937 -0.6772
 6087TIP3    H239753   6.246   2.749   4.345 -0.7942  1.5354 -0.3460
 6088TIP3   OH239754   4.108   1.051   2.558  0.5217  0.5140  0.3906
 6088TIP3    H139755   4.047   1.120   2.586 -1.1400 -1.0007  0.7471
 6088TIP3    H239756   4.102   0.985   2.627  1.1356 -0.5262 -0.5233
 6089TIP3   OH239757   0.343   1.937  14.402  0.2461 -0.6659 -0.3135
 6089TIP3    H139758   0.292   1.863  14.435  0.4095 -0.2580  0.8865
 6089TIP3    H239759   0.287   1.977  14.335  0.2654 -2.0142 -1.1777
 6090TIP3   OH239760   5.183   1.973  15.550 -0.3633  0.0446 -0.0529
 6090TIP3    H139761   5.277   1.975  15.568  0.0307 -0.2155 -1.8333
 6090TIP3    H239762   5.144   1.933  15.627  0.9488  0.4419  0.8467
 6091TIP3   OH239763   2.413   6.484  12.049  0.3351 -0.4420  0.4688
 6091TIP3    H139764   2.366   6.416  12.001  2.2698 -1.9019  0.5643
 6091TIP3    H239765   2.350   6.513  12.115 -0.7140 -1.7571  0.0964
 6092TIP3   OH239766   1.751   0.965  15.758  0.0105  0.3638 -0.5663
 6092TIP3    H139767   1.794   0.969  15.844 -1.4845 -1.4472  0.3417
 6092TIP3    H239768   1.682   0.900  15.769  0.4263 -0.7089 -3.4682
 6093TIP3   OH239769   4.364   3.828   0.203  0.3989  0.2055  1.1235
 6093TIP3    H139770   4.402   3.909   0.170 -0.4875 -0.5368 -2.0421
 6093TIP3    H239771   4.276   3.853   0.232 -1.1209  0.1106 -2.7243
 6094TIP3   OH239772   0.187   0.253  15.694  0.1045  0.3517  0.0472
 6094TIP3    H139773   0.208   0.190  15.764  1.1277 -1.5368 -1.8562
 6094TIP3    H239774   0.092   0.264  15.700  0.2179  0.6604  2.0299
 6095TIP3   OH239775   5.696   2.403  13.205 -0.8368  0.3198  0.2307
 6095TIP3    H139776   5.768   2.402  13.268 -2.3728  0.4513  2.0678
 6095TIP3    H239777   5.662   2.313  13.206 -0.6267  0.2221 -0.7246
 6096TIP3   OH239778   6.771   1.445  16.755  0.2324 -0.1977  0.1505
 6096TIP3    H139779   6.704   1.406  16.697  1.2426 -0.6103 -0.7735
 6096TIP3    H239780   6.771   1.389  16.832  0.2554 -0.8320 -0.3041
 6097TIP3   OH239781   2.833   5.963   5.394 -0.0795  1.1016 -0.6555
 6097TIP3    H139782   2.923   5.939   5.375 -0.7127 -1.4596 -0.7413
 6097TIP3    H239783   2.837   6.057   5.415  3.1007  0.4279  2.6829
 6098TIP3   OH239784   2.432   1.794  15.636  0.2220  0.0817  0.5627
 6098TIP3    H139785   2.384   1.836  15.708  0.4979  0.3709  0.5789
 6098TIP3    H239786   2.494   1.861  15.606  1.4165 -0.6514  1.2954
 6099TIP3   OH239787   2.028   6.473  11.003 -0.8645 -0.0326 -0.4290
 6099TIP3    H139788   2.105   6.504  10.956 -0.5739 -0.9497 -0.5919
 6099TIP3    H239789   1.964   6.543  10.993  0.4447  1.4697  1.0840
 6100TIP3   OH239790   5.224   4.334  14.763 -0.0634 -0.1410  0.0881
 6100TIP3    H139791   5.289   4.268  14.787  1.6566  2.0542  2.0494
 6100TIP3    H239792   5.185   4.359  14.847  0.0378  1.9416 -0.4380
 6101TIP3   OH239793   2.988   6.636   5.180  0.1576  0.4291 -0.3823
 6101TIP3    H139794   2.933   6.705   5.218 -0.8491 -0.2521 -0.5655
 6101TIP3    H239795   3.066   6.682   5.150 -0.9798  1.6948 -1.5367
 6102TIP3   OH239796   3.547   0.573   2.894 -0.1010  0.4450  0.0069
 6102TIP3    H139797   3.553   0.488   2.850  0.7419  0.5206 -0.0339
 6102TIP3    H239798   3.549   0.637   2.823  0.4069  0.5381  0.1037
 6103TIP3   OH239799   3.684   3.180  14.810 -0.2125  0.1726 -0.1621
 6103TIP3    H139800   3.687   3.145  14.721  1.1020 -3.0858  1.0136
 6103TIP3    H239801   3.625   3.121  14.857  0.9944  0.3632  1.6665
 6104TIP3   OH239802   4.030   1.892  11.205  0.0216 -0.2431  0.0722
 6104TIP3    H139803   4.124   1.876  11.198 -0.2895 -1.7624 -1.1962
 6104TIP3    H239804   3.990   1.806  11.196 -1.5246  0.4628 -0.1485
 6105TIP3   OH239805   2.773   1.500   0.022 -0.4404 -0.4078 -0.1558
 6105TIP3    H139806   2.722   1.577   0.047 -0.5062 -0.6658  0.5288
 6105TIP3    H239807   2.708   1.430   0.013 -0.1843 -0.8239  1.0787
 6106TIP3   OH239808   4.186   3.547  14.725 -0.4994 -0.6948 -0.8593
 6106TIP3    H139809   4.130   3.623  14.737 -0.0558 -0.1913 -1.8730
 6106TIP3    H239810   4.200   3.542  14.631  0.2010 -1.5059 -0.7247
 6107TIP3   OH239811   2.550   2.316   1.556 -0.1324 -0.3622 -0.0127
 6107TIP3    H139812   2.463   2.309   1.595  0.0146 -0.6328  0.2691
 6107TIP3    H239813   2.551   2.403   1.516  0.3312  0.6404  2.0844
 6108TIP3   OH239814   5.435   5.896  11.791 -0.2519 -0.2653  0.2533
 6108TIP3    H139815   5.381   5.822  11.762 -0.7303  1.0964 -2.6497
 6108TIP3    H239816   5.391   5.973  11.754  2.5114  1.0805 -0.4439
 6109TIP3   OH239817   6.193   4.093  14.596  0.4996 -0.1486  0.1431
 6109TIP3    H139818   6.193   4.074  14.690  0.3080 -0.0563  0.1610
 6109TIP3    H239819   6.212   4.187  14.591  2.7529 -0.5552  0.0151
 6110TIP3   OH239820   4.378   0.103   2.091 -0.1468  0.0438 -0.2659
 6110TIP3    H139821   4.436   0.081   2.164  1.0144  0.1968 -1.1149
 6110TIP3    H239822   4.395   0.035   2.025 -1.3203 -0.2073 -0.3436
 6111TIP3   OH239823   1.898   4.424   1.602  0.2443  0.8851  0.2948
 6111TIP3    H139824   1.975   4.474   1.577  0.8213  0.1110  0.4714
 6111TIP3    H239825   1.933   4.346   1.645 -0.6741  1.1876  1.6459
 6112TIP3   OH239826   1.099   3.016  13.808  0.2391 -0.0443 -0.0656
 6112TIP3    H139827   1.151   3.007  13.887  0.8836 -0.7206 -0.5523
 6112TIP3    H239828   1.082   3.110  13.801  0.2502  0.0251  0.8242
 6113TIP3   OH239829   6.474   1.995  12.963 -0.5986 -0.3683  0.0675
 6113TIP3    H139830   6.420   1.960  12.892 -1.5751 -0.9758  1.0935
 6113TIP3    H239831   6.508   1.917  13.007  2.3447 -0.0729 -1.3884
 6114TIP3   OH239832   3.966   2.880  11.244 -0.4786  0.6483  0.0673
 6114TIP3    H139833   4.043   2.861  11.189 -1.6193  0.6962 -1.6259
 6114TIP3    H239834   3.974   2.820  11.318  1.2132  0.6803 -0.0541
 6115TIP3   OH239835   0.704   3.349   2.295 -0.1359 -0.0304 -0.1283
 6115TIP3    H139836   0.714   3.270   2.242 -1.4381 -0.7139  0.5849
 6115TIP3    H239837   0.694   3.420   2.231  1.6768 -0.3056 -0.7852
 6116TIP3   OH239838   1.582   4.488  13.052  0.0971 -0.3081 -0.0642
 6116TIP3    H139839   1.575   4.583  13.053  0.4125 -0.2348 -1.6005
 6116TIP3    H239840   1.499   4.457  13.090  0.6219  0.5561  1.8527
 6117TIP3   OH239841   2.936   3.992   0.692  0.1649 -0.5918  0.0944
 6117TIP3    H139842   2.893   3.910   0.667  0.0067 -0.0796 -1.3886
 6117TIP3    H239843   3.029   3.977   0.674  0.0534 -0.2280 -0.8142
 6118TIP3   OH239844   4.266   6.428   2.421 -0.5537 -0.3255 -0.1674
 6118TIP3    H139845   4.190   6.372   2.430 -1.7404  1.2634  0.1251
 6118TIP3    H239846   4.295   6.444   2.511  0.1250 -0.9025 -0.2760
 6119TIP3   OH239847   4.130   6.356   1.171  0.2663  0.3934  0.5099
 6119TIP3    H139848   4.139   6.397   1.256 -0.5046  1.6435  0.0140
 6119TIP3    H239849   4.037   6.366   1.149  0.8044  1.9081 -1.3397
 6120TIP3   OH239850   4.528   4.987  16.799 -0.1087 -0.2278  0.0838
 6120TIP3    H139851   4.606   4.964  16.748 -1.3795 -2.6957 -0.9352
 6120TIP3    H239852   4.455   4.958  16.744 -1.8279  2.4345  0.7874
 6121TIP3   OH239853   5.685   1.227   1.881 -0.2830  0.4266 -0.6559
 6121TIP3    H139854   5.725   1.276   1.953  0.8613 -0.8046 -0.4090
 6121TIP3    H239855   5.591   1.240   1.893 -0.1418  0.1245  1.1809
 6122TIP3   OH239856   3.528   5.873  15.272 -0.2513  0.5316 -0.7617
 6122TIP3    H139857   3.591   5.936  15.239  2.6646 -0.9049  1.5656
 6122TIP3    H239858   3.533   5.799  15.212  0.7588  0.2048 -0.2923
 6123TIP3   OH239859   6.540   1.317   1.693  0.2824  0.3309  0.2715
 6123TIP3    H139860   6.574   1.273   1.771 -0.0465 -1.7789 -0.6759
 6123TIP3    H239861   6.615   1.321   1.633  0.3424  1.2356  0.3980
 6124TIP3   OH239862   1.741   1.653  15.727  0.2639 -0.2542  0.1457
 6124TIP3    H139863   1.674   1.630  15.663 -0.1725  0.8602  0.1726
 6124TIP3    H239864   1.794   1.574  15.736  0.3710 -0.4232 -1.6319
 6125TIP3   OH239865   6.410   1.143  11.885 -0.4200 -0.1700 -0.2587
 6125TIP3    H139866   6.437   1.055  11.912 -0.6434 -0.2322 -0.2316
 6125TIP3    H239867   6.427   1.145  11.791  0.2976  0.0241 -0.1295
 6126TIP3   OH239868   0.464   4.769  14.725  0.7366  0.3682 -0.2768
 6126TIP3    H139869   0.485   4.740  14.813 -1.1411 -2.0504 -0.5407
 6126TIP3    H239870   0.401   4.840  14.737  1.4433  0.9066  0.3193
 6127TIP3   OH239871   3.167   4.169  14.437 -0.7338  0.6809 -0.1282
 6127TIP3    H139872   3.091   4.151  14.491  0.1719  0.8619  1.2571
 6127TIP3    H239873   3.134   4.224  14.366 -2.0084  0.1834  0.0588
 6128TIP3   OH239874   5.883   0.203  15.598 -0.5689  0.0849  0.3213
 6128TIP3    H139875   5.821   0.235  15.532  0.0052  0.3945 -0.0834
 6128TIP3    H239876   5.854   0.114  15.618  0.6530 -0.9613 -2.1717
 6129TIP3   OH239877   6.660   0.204   1.228 -0.4230  0.0882 -0.6206
 6129TIP3    H139878   6.702   0.135   1.177  1.6948  0.4093  0.5869
 6129TIP3    H239879   6.647   0.276   1.166  4.0096  1.2944 -0.4785
 6130TIP3   OH239880   3.850   6.752  14.102  0.0375  0.4061  0.0380
 6130TIP3    H139881   3.933   6.783  14.137  1.1405  0.0468 -2.1031
 6130TIP3    H239882   3.811   6.830  14.061 -1.6967  1.0592  2.6488
 6131TIP3   OH239883   3.607   2.701  16.609  0.1571 -0.3257 -0.4890
 6131TIP3    H139884   3.646   2.785  16.631 -0.3392  0.4691 -2.4075
 6131TIP3    H239885   3.541   2.686  16.676  0.8399  0.3801  0.3611
 6132TIP3   OH239886   3.882   6.797   2.693 -0.2277 -0.6438  0.0248
 6132TIP3    H139887   3.827   6.719   2.685 -0.5999 -0.3661 -0.1124
 6132TIP3    H239888   3.969   6.768   2.664 -0.6714 -0.6589 -1.3726
 6133TIP3   OH239889   0.287   4.990   4.839 -0.1942 -0.8265 -0.2536
 6133TIP3    H139890   0.293   5.064   4.778 -0.7427 -1.6240 -1.3013
 6133TIP3    H239891   0.272   5.031   4.924  1.8590  0.3790 -0.3943
 6134TIP3   OH239892   1.038   0.253   3.526 -0.1238 -0.0656  0.1722
 6134TIP3    H139893   1.044   0.236   3.620  0.0363  0.6815  0.3065
 6134TIP3    H239894   0.947   0.278   3.511 -0.0114  0.3980  0.2386
 6135TIP3   OH239895   5.031   2.301  11.777 -0.1632 -0.0095 -0.2012
 6135TIP3    H139896   5.062   2.210  11.772 -0.9436 -0.2683 -0.5175
 6135TIP3    H239897   4.944   2.298  11.737 -0.1250  0.9140 -0.3573
 6136TIP3   OH239898   1.021   0.205  11.114 -0.1260 -0.2701 -0.6564
 6136TIP3    H139899   1.062   0.266  11.176 -3.7588  2.3161 -0.4829
 6136TIP3    H239900   1.083   0.200  11.041  1.7540  1.0675  0.7307
 6137TIP3   OH239901   5.168   6.358  14.971  0.7252  0.2427  0.3111
 6137TIP3    H139902   5.177   6.394  15.059  0.4733  0.5670  0.2048
 6137TIP3    H239903   5.228   6.283  14.970  0.2160 -0.1989  0.9934
 6138TIP3   OH239904   2.932   1.201  12.910  0.0823  0.3100  0.3539
 6138TIP3    H139905   2.878   1.277  12.929 -0.2040  0.1121  0.3423
 6138TIP3    H239906   3.013   1.237  12.872  0.8902  0.7500  2.3609
 6139TIP3   OH239907   5.724   5.458   4.883  0.2407 -0.1534 -0.2033
 6139TIP3    H139908   5.813   5.428   4.865  0.9424 -0.6819  3.4735
 6139TIP3    H239909   5.693   5.401   4.953 -2.2818  1.3110 -0.0066
 6140TIP3   OH239910   4.077   3.446  14.994 -0.0332 -0.3561 -0.3212
 6140TIP3    H139911   4.152   3.502  15.010 -0.7500  0.8025 -0.8382
 6140TIP3    H239912   4.044   3.474  14.908 -0.1989 -1.8362 -0.7696
 6141TIP3   OH239913   3.317   4.241   0.318 -0.0485  0.6482  0.1761
 6141TIP3    H139914   3.338   4.312   0.380 -0.8390  1.0754 -0.0334
 6141TIP3    H239915   3.392   4.182   0.323  0.6731  1.5590  0.2714
 6142TIP3   OH239916   5.888   4.009  12.284 -0.7925  0.4553  0.4721
 6142TIP3    H139917   5.887   3.942  12.215 -0.4243  0.6656  0.2604
 6142TIP3    H239918   5.798   4.008  12.318 -1.4842  1.5417 -1.1864
 6143TIP3   OH239919   4.274   3.119  12.143  0.2387 -0.4789  0.0911
 6143TIP3    H139920   4.321   3.037  12.159  0.3048 -0.4746 -0.0837
 6143TIP3    H239921   4.278   3.165  12.227 -0.2913 -0.9026  0.3551
 6144TIP3   OH239922   3.668   4.135  10.790  0.0205  0.2549 -0.2746
 6144TIP3    H139923   3.652   4.048  10.753 -0.1596  0.3461 -0.4115
 6144TIP3    H239924   3.594   4.150  10.849 -1.0858  1.2039 -1.8533
 6145TIP3   OH239925   5.569   5.677  15.172  0.2538 -0.9072 -0.6714
 6145TIP3    H139926   5.507   5.741  15.207  1.5682  0.4141 -0.6205
 6145TIP3    H239927   5.517   5.599  15.155 -0.9816 -0.6406  1.4972
 6146TIP3   OH239928   4.405   2.081   0.163  0.8016 -0.3175  0.2952
 6146TIP3    H139929   4.401   2.157   0.222  1.0186 -0.1715  0.1227
 6146TIP3    H239930   4.328   2.091   0.107  1.5200  0.4914 -0.5881
 6147TIP3   OH239931   4.806   0.985  14.176 -0.1398 -0.8000  0.0667
 6147TIP3    H139932   4.750   0.907  14.172  1.2762 -1.9206  0.8413
 6147TIP3    H239933   4.854   0.985  14.093 -1.2335  0.1505 -0.5900
 6148TIP3   OH239934   5.467   2.530  12.328  0.7930  0.2389 -0.2597
 6148TIP3    H139935   5.508   2.493  12.406  1.7612 -0.4708 -1.0860
 6148TIP3    H239936   5.453   2.622  12.350  0.2345 -0.1328  1.0723
 6149TIP3   OH239937   6.610   6.473   0.054 -0.6065 -0.4415  0.9437
 6149TIP3    H139938   6.701   6.483   0.082 -0.2673 -0.0967 -0.2451
 6149TIP3    H239939   6.608   6.388   0.010 -0.7477 -0.2322  0.5470
 6150TIP3   OH239940   1.881   2.173   5.496  0.0205  0.0156  0.5387
 6150TIP3    H139941   1.947   2.236   5.467 -1.4700  1.1971 -0.4738
 6150TIP3    H239942   1.853   2.205   5.582  0.6104 -0.3859  0.8893
 6151TIP3   OH239943   5.056   5.901   0.960  0.5029 -0.5680  0.1918
 6151TIP3    H139944   5.028   5.973   1.017  1.2129 -0.4924  0.4515
 6151TIP3    H239945   5.039   5.822   1.012  0.1878 -0.5623  0.1006
 6152TIP3   OH239946   5.540   5.130  13.164  0.4018 -0.3702 -0.1711
 6152TIP3    H139947   5.533   5.225  13.179  1.9085 -0.3213  0.3837
 6152TIP3    H239948   5.517   5.091  13.249  0.4382 -0.4731 -0.2085
 6153TIP3   OH239949   2.277   6.837   2.669 -0.3697 -0.2226 -0.4123
 6153TIP3    H139950   2.195   6.802   2.704  0.0646 -0.0665  0.8169
 6153TIP3    H239951   2.345   6.790   2.716  0.2359  0.5078 -0.5356
 6154TIP3   OH239952   6.308   3.619  15.749 -0.1621 -0.1796  0.2090
 6154TIP3    H139953   6.372   3.567  15.700  0.7209  1.0602  0.0016
 6154TIP3    H239954   6.236   3.631  15.687  0.0388 -0.3670 -0.0667
 6155TIP3   OH239955   2.520   5.763  11.862  0.1027  0.2092 -0.7815
 6155TIP3    H139956   2.598   5.818  11.861  0.5197 -0.3396  0.1564
 6155TIP3    H239957   2.491   5.763  11.953  1.1585 -2.5051 -0.3330
 6156TIP3   OH239958   6.563   3.626  10.993 -0.1906  0.6944  0.1882
 6156TIP3    H139959   6.482   3.615  10.944  0.2543 -0.5703 -0.3206
 6156TIP3    H239960   6.632   3.609  10.929  0.4284  0.1862  0.9650
 6157TIP3   OH239961   0.387   6.018  15.952  0.4921  0.0728  0.3115
 6157TIP3    H139962   0.304   5.989  15.916 -0.4859  2.9420  0.0130
 6157TIP3    H239963   0.448   6.014  15.878 -0.1833  0.9225 -0.2988
 6158TIP3   OH239964   1.207   5.801  13.280 -0.1827 -0.4351 -0.2197
 6158TIP3    H139965   1.172   5.714  13.259  0.6740 -0.1973 -3.0476
 6158TIP3    H239966   1.245   5.832  13.198  0.6113  2.1400  1.0148
 6159TIP3   OH239967   0.619   5.229  10.509  0.2194  0.2018  0.1998
 6159TIP3    H139968   0.701   5.254  10.551  0.4285  1.0512 -0.6702
 6159TIP3    H239969   0.645   5.187  10.427 -0.1955 -0.8344  0.5814
 6160TIP3   OH239970   4.332   4.592   3.605 -0.1541 -0.0056  0.3096
 6160TIP3    H139971   4.259   4.647   3.632  0.0879 -0.0821  1.1379
 6160TIP3    H239972   4.386   4.649   3.549 -1.2280 -0.1779 -0.9430
 6161TIP3   OH239973   1.268   6.038  11.855 -0.5577  0.3857  0.0478
 6161TIP3    H139974   1.336   6.011  11.793 -0.7538 -1.7908  0.7118
 6161TIP3    H239975   1.316   6.080  11.926 -0.2403  1.9321 -1.0251
 6162TIP3   OH239976   5.729   6.132   0.032  0.7591  0.3725  0.1147
 6162TIP3    H139977   5.684   6.062  -0.014  2.1255 -0.2977 -0.2592
 6162TIP3    H239978   5.747   6.096   0.119  0.6164  0.6252  0.2516
 6163TIP3   OH239979   1.611   1.368   0.841 -0.1423 -0.0406 -0.2953
 6163TIP3    H139980   1.631   1.447   0.790  0.3359 -0.9957 -1.6351
 6163TIP3    H239981   1.524   1.342   0.811  0.1589 -0.6356 -0.6498
 6164TIP3   OH239982   4.935   3.593  11.571  0.1000 -0.3069  0.8465
 6164TIP3    H139983   4.861   3.542  11.605 -1.1846  0.4231 -0.7044
 6164TIP3    H239984   4.922   3.681  11.607 -0.9720  0.3348 -0.9628
 6165TIP3   OH239985   6.223   0.218   0.293 -0.1171 -0.1769 -0.1333
 6165TIP3    H139986   6.150   0.257   0.342 -0.4278 -0.2860 -0.5036
 6165TIP3    H239987   6.299   0.270   0.318 -0.3793  0.1380  0.0188
 6166TIP3   OH239988   6.703   5.873   1.946  0.1735  0.0860  0.5037
 6166TIP3    H139989   6.749   5.790   1.939  0.1366  0.0608  0.5640
 6166TIP3    H239990   6.653   5.879   1.864 -0.9606 -0.6395  1.1085
 6167TIP3   OH239991   0.043   1.661   2.548 -0.0204  0.1229 -0.0589
 6167TIP3    H139992   0.023   1.567   2.545  0.5750  0.0058 -0.4451
 6167TIP3    H239993   0.069   1.683   2.459  1.2408  0.3267  0.3272
 6168TIP3   OH239994   6.065   5.105  16.264  0.3852  0.6227  0.4990
 6168TIP3    H139995   6.019   5.177  16.307 -2.9397 -0.4568 -0.9355
 6168TIP3    H239996   6.025   5.099  16.178  1.2082 -2.3616  0.2147
 6169TIP3   OH239997   1.439   4.748   1.450  0.7903 -0.4763  0.4723
 6169TIP3    H139998   1.357   4.782   1.485  0.2301 -1.4361  0.1530
 6169TIP3    H239999   1.429   4.754   1.355  0.8401 -1.1247  0.4185
 6170TIP3   OH240000   0.469   4.328  13.255  0.7450 -0.7525 -0.3359
 6170TIP3    H140001   0.453   4.293  13.343  0.8782 -1.5044 -0.6026
 6170TIP3    H240002   0.396   4.388  13.239  2.0643  1.4711  1.3145
 6171TIP3   OH240003   2.757   3.117   0.309 -0.6072  0.8108 -0.0340
 6171TIP3    H140004   2.790   3.175   0.378 -0.3806  0.0811  0.4799
 6171TIP3    H240005   2.797   3.150   0.228  1.1248  0.1568  0.5295
 6172TIP3   OH240006   0.569   0.687  14.152  0.2130  0.0839 -0.6422
 6172TIP3    H140007   0.500   0.735  14.107 -1.2148  0.2823  1.6099
 6172TIP3    H240008   0.545   0.595  14.142  1.0441 -0.0145 -1.9839
 6173TIP3   OH240009   1.065   0.780  14.812 -0.1588  0.4519  0.9440
 6173TIP3    H140010   0.974   0.755  14.825 -0.1444 -1.3272 -1.6014
 6173TIP3    H240011   1.062   0.849  14.746  0.2873  1.4165  1.9100
 6174TIP3   OH240012   0.658   4.032  12.830 -0.3197  0.4419  0.1246
 6174TIP3    H140013   0.745   4.040  12.792 -0.7923  0.3030 -1.0230
 6174TIP3    H240014   0.631   4.122  12.849 -0.1066  0.5182  0.0604
 6175TIP3   OH240015   4.247   6.216  15.622 -0.3650  0.5921 -0.2043
 6175TIP3    H140016   4.271   6.271  15.696 -0.6373  0.2144  0.1672
 6175TIP3    H240017   4.330   6.200  15.577 -0.1878  0.7688  0.0543
 6176TIP3   OH240018   0.063   0.922  15.343  0.1565 -0.5578  0.1510
 6176TIP3    H140019  -0.024   0.903  15.309 -0.3516  3.4484 -1.4260
 6176TIP3    H240020   0.048   0.955  15.432  0.1303 -0.4932  0.1233
 6177TIP3   OH240021   2.516   1.475   2.381 -0.4511  0.0461 -0.0932
 6177TIP3    H140022   2.559   1.540   2.437 -0.7996 -1.6124  2.2497
 6177TIP3    H240023   2.589   1.432   2.336  0.0735 -0.2050  0.9564
 6178TIP3   OH240024   4.016   4.485   6.191 -0.4280  0.5431  0.1118
 6178TIP3    H140025   4.059   4.566   6.165  0.6044 -0.0540 -0.1020
 6178TIP3    H240026   4.087   4.428   6.219 -1.1333 -0.3011  0.2364
 6179TIP3   OH240027   3.719   4.718  14.619 -0.2373  0.2642  0.0669
 6179TIP3    H140028   3.726   4.724  14.714 -0.2661  0.1137  0.0795
 6179TIP3    H240029   3.624   4.716  14.603 -0.2401 -0.7185  0.1070
 6180TIP3   OH240030   0.579   2.742   3.979 -0.2333 -0.0076  0.1645
 6180TIP3    H140031   0.617   2.772   4.062 -0.3904  1.5796 -0.2988
 6180TIP3    H240032   0.538   2.820   3.941 -0.3604 -0.7428 -1.3132
 6181TIP3   OH240033   4.981   0.957   5.918  0.9138 -0.5874  0.2928
 6181TIP3    H140034   4.932   0.885   5.958 -0.4504  0.5589  0.7716
 6181TIP3    H240035   4.919   1.030   5.916  2.6636  1.0041  1.1017
 6182TIP3   OH240036   5.852   5.925   4.676 -0.1663  0.5423  0.0308
 6182TIP3    H140037   5.764   5.934   4.639 -0.1236  0.7004 -0.0324
 6182TIP3    H240038   5.885   5.844   4.637 -1.1904 -0.8623  1.9035
 6183TIP3   OH240039   4.334   5.621  15.217 -0.3410 -0.1228 -0.1644
 6183TIP3    H140040   4.388   5.669  15.280  2.7179 -1.1577 -1.7887
 6183TIP3    H240041   4.381   5.538  15.204 -2.9034 -1.5423 -0.9971
 6184TIP3   OH240042   4.609   5.556   0.151  0.0569 -0.0389 -0.1077
 6184TIP3    H140043   4.572   5.491   0.091 -0.3500  1.8177 -1.9639
 6184TIP3    H240044   4.695   5.576   0.114  1.0859 -0.9648  1.6225
 6185TIP3   OH240045   0.895   4.884   2.549 -0.2681 -0.1597 -0.0832
 6185TIP3    H140046   0.837   4.854   2.479 -1.6823 -1.2628  1.4867
 6185TIP3    H240047   0.843   4.874   2.629  2.6437 -2.9347  1.6519
 6186TIP3   OH240048   4.566   5.432  11.230 -0.4128 -0.2074  0.1182
 6186TIP3    H140049   4.560   5.361  11.294 -1.1164 -0.0340  0.2524
 6186TIP3    H240050   4.501   5.410  11.163 -0.4233  0.1565  0.0055
 6187TIP3   OH240051   0.897   6.658   5.565 -0.3478 -0.5661  0.3372
 6187TIP3    H140052   0.929   6.747   5.578 -0.9987 -0.3244  0.2922
 6187TIP3    H240053   0.899   6.618   5.652 -1.0135 -0.1843  0.5341
 6188TIP3   OH240054   1.517   1.840  16.932  0.2781  0.0910 -0.2785
 6188TIP3    H140055   1.549   1.759  16.971 -0.2227 -0.4983 -1.0465
 6188TIP3    H240056   1.595   1.891  16.913  0.5154  0.6435  1.9663
 6189TIP3   OH240057   2.195   6.183   4.693 -0.1763  0.1432  1.0217
 6189TIP3    H140058   2.141   6.128   4.750 -3.4879  2.6489  0.6144
 6189TIP3    H240059   2.163   6.272   4.708 -0.1261  1.1602 -3.4720
 6190TIP3   OH240060   5.722   0.229  11.843 -0.2199 -0.0373 -0.4845
 6190TIP3    H140061   5.658   0.260  11.780 -0.2457 -2.0589 -1.5433
 6190TIP3    H240062   5.684   0.247  11.929 -1.7804 -0.3641 -1.0913
 6191TIP3   OH240063   3.591   3.128  16.679  0.4352  0.0828 -0.1193
 6191TIP3    H140064   3.632   3.088  16.602  1.4718  0.4165  0.2530
 6191TIP3    H240065   3.623   3.078  16.753  1.1041  1.0698  0.2789
 6192TIP3   OH240066   2.758   4.200  17.068 -0.6439 -0.3308 -0.1152
 6192TIP3    H140067   2.739   4.187  17.161 -0.4952  0.7924  0.0852
 6192TIP3    H240068   2.737   4.116  17.027 -0.6318 -0.8652  0.9419
 6193TIP3   OH240069   5.167   0.866  14.230  0.0770  0.3901 -0.2506
 6193TIP3    H140070   5.212   0.821  14.302 -0.1146  0.0097 -0.3633
 6193TIP3    H240071   5.117   0.936  14.272  0.8673  0.8986 -0.1382
 6194TIP3   OH240072   1.105   2.718   5.650 -0.4725 -0.2134 -0.6221
 6194TIP3    H140073   1.168   2.649   5.666  0.7879  0.4852 -2.3243
 6194TIP3    H240074   1.071   2.740   5.737  0.9445 -1.2230  0.2263
 6195TIP3   OH240075   1.116   1.624   0.724  0.4107 -0.2250 -0.0439
 6195TIP3    H140076   1.144   1.707   0.687 -0.3790  0.4947  0.9094
 6195TIP3    H240077   1.126   1.635   0.819 -0.9527 -0.7129  0.1816
 6196TIP3   OH240078   2.826   1.728   5.169  0.0514 -0.1089 -0.2245
 6196TIP3    H140079   2.852   1.636   5.173  0.3295  0.0065  1.1726
 6196TIP3    H240080   2.810   1.744   5.076 -1.4680 -1.9645 -0.3537
 6197TIP3   OH240081   1.932   2.846  15.238  0.6628 -1.1202  0.1756
 6197TIP3    H140082   1.936   2.932  15.196  0.2672 -1.4428 -0.5385
 6197TIP3    H240083   1.898   2.864  15.326  0.5181 -0.5565  0.0075
 6198TIP3   OH240084   4.827   0.720   2.120 -0.2856 -0.3274 -0.5095
 6198TIP3    H140085   4.844   0.755   2.033 -2.1455 -0.3044 -0.9117
 6198TIP3    H240086   4.733   0.701   2.120 -0.4481  0.1946  1.6716
 6199TIP3   OH240087   1.131   2.958  11.904  0.1098 -0.1030  0.0516
 6199TIP3    H140088   1.079   2.924  11.976 -3.3840  0.9874 -1.7313
 6199TIP3    H240089   1.162   3.044  11.934  1.7371 -1.0939  1.4148
 6200TIP3   OH240090   5.026   4.713   5.121 -0.0863 -0.1539  0.5995
 6200TIP3    H140091   5.046   4.676   5.035 -0.3638 -0.5829  0.7165
 6200TIP3    H240092   4.986   4.641   5.169 -0.9173  0.3804  0.7330
 6201TIP3   OH240093   6.787   1.932  15.500  0.2688  0.1477  0.5000
 6201TIP3    H140094   6.767   1.964  15.588 -2.4753  0.0057  0.0137
 6201TIP3    H240095   6.741   1.848  15.494  2.4721 -1.0879 -0.2732
 6202TIP3   OH240096   5.735   2.749  16.012 -0.2572  0.7587 -0.2375
 6202TIP3    H140097   5.674   2.677  15.999  1.3563 -0.4889 -1.2727
 6202TIP3    H240098   5.821   2.711  15.997  0.9553  2.1399  2.3744
 6203TIP3   OH240099   2.121   1.686   5.793  0.0602  0.2460  0.4882
 6203TIP3    H140100   2.123   1.701   5.888 -0.0499  0.7701  0.4111
 6203TIP3    H240101   2.072   1.761   5.758 -0.6579 -0.3942  0.1021
 6204TIP3   OH240102   2.328   6.599   5.892  0.0179 -0.1435  0.0590
 6204TIP3    H140103   2.289   6.512   5.902 -0.1474 -0.3081 -1.7340
 6204TIP3    H240104   2.320   6.638   5.979  0.0729 -1.8925  0.9012
 6205TIP3   OH240105   4.678   5.699   6.906 -0.6927  0.6477  0.2246
 6205TIP3    H140106   4.583   5.703   6.900 -0.7721 -1.0123 -0.1810
 6205TIP3    H240107   4.710   5.742   6.827 -1.1256  0.8218  0.1457
 6206TIP3   OH240108   0.082   2.937  10.587 -0.6800 -0.2366  0.1661
 6206TIP3    H140109   0.003   2.922  10.535  0.7672 -0.0878 -2.2078
 6206TIP3    H240110   0.121   2.850  10.598  0.3357  0.0156 -1.2569
 6207TIP3   OH240111   5.659   6.014   0.904 -0.5590 -0.0924  0.3547
 6207TIP3    H140112   5.609   6.041   0.981 -0.9148  0.9167 -0.2105
 6207TIP3    H240113   5.747   5.996   0.938 -0.9532 -0.5812  1.1372
 6208TIP3   OH240114   1.006   1.280  15.216  0.5473  0.5843 -0.0881
 6208TIP3    H140115   0.943   1.237  15.157  0.6106 -0.5863  0.6705
 6208TIP3    H240116   0.979   1.372  15.216  0.1293  0.4835 -1.4071
 6209TIP3   OH240117   2.022   2.446   5.498  0.5653  0.1660  0.7206
 6209TIP3    H140118   1.979   2.521   5.457  0.2501 -0.4630 -0.1494
 6209TIP3    H240119   1.974   2.432   5.579  1.1098  1.3593  1.2694
 6210TIP3   OH240120   3.210   5.704  14.317 -0.6396 -0.3129  0.1121
 6210TIP3    H140121   3.277   5.772  14.319 -1.1328  0.1585  1.0640
 6210TIP3    H240122   3.129   5.748  14.343 -1.1221 -1.0923 -0.0272
 6211TIP3   OH240123   4.418   2.938  11.507  0.1833 -0.0568 -0.3573
 6211TIP3    H140124   4.364   2.860  11.515 -1.1564  0.9774  1.1885
 6211TIP3    H240125   4.506   2.904  11.487 -0.2571 -1.9888  0.7309
 6212TIP3   OH240126   1.586   2.476   5.409 -0.0663 -0.7510 -0.0427
 6212TIP3    H140127   1.646   2.489   5.336  2.6383  1.5748  2.3298
 6212TIP3    H240128   1.506   2.522   5.382  1.2228  0.9490 -1.2094
 6213TIP3   OH240129   0.238   6.300   0.039 -0.4362 -0.5244  0.8550
 6213TIP3    H140130   0.225   6.240  -0.034 -2.3171 -0.9631  1.4929
 6213TIP3    H240131   0.291   6.250   0.102 -0.7988 -1.0110  0.7799
 6214TIP3   OH240132   0.179   0.675  12.351 -0.2163  0.2430 -0.6447
 6214TIP3    H140133   0.205   0.759  12.314 -2.6894  2.3295  1.8635
 6214TIP3    H240134   0.214   0.676  12.440  1.1655 -2.2556 -1.0771
 6215TIP3   OH240135   6.178   6.792   2.483  0.3972 -0.7820 -0.5677
 6215TIP3    H140136   6.260   6.761   2.520  0.4149 -0.5217 -0.3872
 6215TIP3    H240137   6.205   6.857   2.417  0.2847  2.8027  2.5870
 6216TIP3   OH240138   2.015   5.642   3.516  0.1837  0.0056  0.0466
 6216TIP3    H140139   1.962   5.601   3.447  0.3362 -1.3208  0.6858
 6216TIP3    H240140   1.959   5.710   3.553  0.4773  1.4996 -2.0668
 6217TIP3   OH240141   4.439   3.283  15.141 -0.0050  0.0969 -0.3839
 6217TIP3    H140142   4.521   3.256  15.099 -0.3761 -1.2153 -0.3143
 6217TIP3    H240143   4.438   3.236  15.224 -0.3427  0.9259  0.0875
 6218TIP3   OH240144   2.494   2.792   0.643  0.1892 -0.3234  0.7613
 6218TIP3    H140145   2.441   2.863   0.606 -0.0105 -0.9119 -0.1144
 6218TIP3    H240146   2.583   2.809   0.611  0.2947 -0.0579  1.1768
 6219TIP3   OH240147   5.193   0.829   5.554  0.1938  0.4292 -0.1235
 6219TIP3    H140148   5.216   0.867   5.639 -3.7594  2.1265  0.4227
 6219TIP3    H240149   5.165   0.739   5.575 -1.1409  0.9659  0.5213
 6220TIP3   OH240150   4.325   4.649   3.930  0.0100 -0.0474  0.0742
 6220TIP3    H140151   4.349   4.721   3.873 -1.6900 -0.1397 -0.8059
 6220TIP3    H240152   4.235   4.668   3.957  0.0839 -1.0345  1.1119
 6221TIP3   OH240153   3.309   2.021  12.776 -0.2233 -0.2875 -0.3692
 6221TIP3    H140154   3.335   2.109  12.749  1.8978 -0.4111  1.0093
 6221TIP3    H240155   3.248   1.992  12.709  0.2469  1.6333 -1.7034
 6222TIP3   OH240156   5.099   0.626   4.181  0.0745 -0.0549  0.1437
 6222TIP3    H140157   5.187   0.652   4.156  0.1620 -1.0979 -0.6773
 6222TIP3    H240158   5.100   0.530   4.182 -1.5128 -0.1581 -1.7298
 6223TIP3   OH240159   6.683   5.943   5.946 -0.0342  0.8767 -0.0832
 6223TIP3    H140160   6.644   5.910   6.027  0.5553  0.9524  0.2417
 6223TIP3    H240161   6.668   6.037   5.949 -0.8722  0.7572 -0.5399
 6224TIP3   OH240162   0.159   0.699   5.927 -0.2131  0.0747 -0.1539
 6224TIP3    H140163   0.134   0.699   5.834 -0.9716  0.5808  0.0373
 6224TIP3    H240164   0.146   0.790   5.955  1.9954  0.4182 -0.0511
 6225TIP3   OH240165   4.762   2.289  11.181  0.1860 -0.4755 -0.0470
 6225TIP3    H140166   4.758   2.224  11.111 -3.6140 -0.4368 -0.0935
 6225TIP3    H240167   4.732   2.370  11.140  0.8197  0.3076  0.9784
 6226TIP3   OH240168   5.033   4.902  16.518 -0.0376 -0.1038  0.2260
 6226TIP3    H140169   5.120   4.889  16.480 -0.9224 -0.1309 -1.9147
 6226TIP3    H240170   5.038   4.989  16.557  0.8738  0.0116 -0.1064
 6227TIP3   OH240171   2.453   1.023   0.328 -0.1383  0.1394 -0.5554
 6227TIP3    H140172   2.482   0.978   0.248  0.5973 -0.7248  0.1704
 6227TIP3    H240173   2.378   1.075   0.300  0.5515  0.4450 -1.9768
 6228TIP3   OH240174   2.413   1.652   0.601 -0.3510  0.2611  0.5791
 6228TIP3    H140175   2.425   1.632   0.694 -1.0765 -0.6134  0.4944
 6228TIP3    H240176   2.413   1.748   0.597  1.5235  0.3204  1.2245
 6229TIP3   OH240177   0.267   6.493   0.659  0.1370  0.0012 -0.8324
 6229TIP3    H140178   0.249   6.406   0.625 -0.5030  0.3770 -1.4991
 6229TIP3    H240179   0.193   6.546   0.629  0.4225  0.7278 -0.2792
 6230TIP3   OH240180   5.837   1.546  10.877  0.0549 -0.0217  0.3490
 6230TIP3    H140181   5.919   1.549  10.828 -0.0205  1.1455  0.2694
 6230TIP3    H240182   5.792   1.468  10.845  0.6091 -0.0172 -0.4556
 6231TIP3   OH240183   5.922   1.467   1.440 -0.1826 -0.5542  0.0180
 6231TIP3    H140184   5.942   1.463   1.347  0.0854 -0.4907  0.0705
 6231TIP3    H240185   5.864   1.393   1.456 -1.1585  0.0980 -0.4182
 6232TIP3   OH240186   5.686   2.950  11.713  0.6063 -0.3282  0.2532
 6232TIP3    H140187   5.688   2.855  11.699  1.0983 -0.2778 -0.0433
 6232TIP3    H240188   5.778   2.977  11.708  0.4807  0.1512  0.4446
 6233TIP3   OH240189   0.460   1.100  15.902  0.4782  0.1471  0.0221
 6233TIP3    H140190   0.454   1.047  15.982 -0.2406  1.5567  0.9489
 6233TIP3    H240191   0.457   1.036  15.831 -0.2622 -1.0688  1.0917
 6234TIP3   OH240192   6.617   3.646   1.528 -0.3283  0.4021  0.0437
 6234TIP3    H140193   6.711   3.629   1.529 -0.4810 -0.4926 -0.4412
 6234TIP3    H240194   6.584   3.603   1.606 -0.5015 -0.3205 -0.4179
 6235TIP3   OH240195   5.835   1.528   0.466  0.3369 -0.4811 -0.1635
 6235TIP3    H140196   5.864   1.439   0.484  1.0803  0.2878  2.9210
 6235TIP3    H240197   5.762   1.543   0.526  0.0495  0.9204 -0.8044
 6236TIP3   OH240198   3.244   4.822   3.192  0.2900  0.1795 -0.1471
 6236TIP3    H140199   3.272   4.737   3.158 -0.5263  0.1711 -0.8221
 6236TIP3    H240200   3.250   4.881   3.117 -1.1362  0.2532 -0.2185
 6237TIP3   OH240201   1.962   5.695  16.187 -0.1715  0.6020 -0.4946
 6237TIP3    H140202   1.984   5.608  16.154 -0.8819  0.6754 -1.2104
 6237TIP3    H240203   1.994   5.755  16.119 -1.0443  0.7996 -0.7464
 6238TIP3   OH240204   2.644   3.248  14.662  0.5195  0.3950 -0.4966
 6238TIP3    H140205   2.725   3.299  14.650  0.9729 -0.3974 -0.8795
 6238TIP3    H240206   2.616   3.227  14.573  1.2503 -1.4170 -0.3362
 6239TIP3   OH240207   1.904   5.725  15.807  0.1491  0.2948  0.4155
 6239TIP3    H140208   1.934   5.634  15.818 -4.5319 -1.3630  2.1565
 6239TIP3    H240209   1.901   5.737  15.712  2.1754 -0.7569  0.1453
 6240TIP3   OH240210   3.689   2.809  12.301 -0.2626  0.4730  0.1277
 6240TIP3    H140211   3.766   2.866  12.309 -1.0180  1.3942  1.0767
 6240TIP3    H240212   3.688   2.783  12.209  1.9575 -0.6859  0.3507
 6241TIP3   OH240213   1.022   1.174  15.469  0.8833 -0.0107 -0.0538
 6241TIP3    H140214   0.948   1.113  15.461 -0.0948  1.1197  0.1879
 6241TIP3    H240215   1.036   1.206  15.380 -0.6929  1.7802  0.2847
 6242TIP3   OH240216   1.759   0.494  13.278 -0.4307 -0.3719  0.4176
 6242TIP3    H140217   1.793   0.512  13.366 -0.5213 -1.0256  0.5916
 6242TIP3    H240218   1.665   0.507  13.286 -0.6551 -1.9919  0.8488
 6243TIP3   OH240219   1.566   2.749  11.073 -0.7910 -0.2266  0.3031
 6243TIP3    H140220   1.657   2.722  11.059 -1.5527 -2.6481 -0.4943
 6243TIP3    H240221   1.560   2.835  11.033  0.5454 -1.1261 -2.0011
 6244TIP3   OH240222   4.418   4.054   2.795 -0.2469 -0.7654 -0.4691
 6244TIP3    H140223   4.334   4.099   2.810 -0.1684 -0.5964 -0.5385
 6244TIP3    H240224   4.446   4.027   2.883  2.1855  3.7019  0.3928
 6245TIP3   OH240225   1.420   2.259   1.103 -0.0921  0.2353  0.0799
 6245TIP3    H140226   1.488   2.210   1.055 -0.6684 -2.4273  1.7798
 6245TIP3    H240227   1.468   2.303   1.173  0.2052  0.5304 -0.3062
 6246TIP3   OH240228   4.865   0.053  10.611  0.4747  0.5282 -0.1251
 6246TIP3    H140229   4.917   0.108  10.670  1.0715  0.8624 -0.9564
 6246TIP3    H240230   4.916  -0.027  10.602  0.7361  0.7630 -0.7542
 6247TIP3   OH240231   0.251   4.543   1.264  0.2363  0.4989  0.0965
 6247TIP3    H140232   0.337   4.529   1.224 -0.8866 -1.0891 -1.9328
 6247TIP3    H240233   0.219   4.623   1.223  0.6996  1.0635  0.8159
 6248TIP3   OH240234   4.957   5.484   0.805 -0.5364 -0.1129 -0.6395
 6248TIP3    H140235   4.965   5.391   0.784 -1.6884 -0.6140  0.9662
 6248TIP3    H240236   4.867   5.507   0.782 -0.6468  0.2691  0.1208
 6249TIP3   OH240237   1.522   6.380  10.798  0.1109 -0.6689  0.4190
 6249TIP3    H140238   1.582   6.444  10.836  0.0999  0.3890 -1.2522
 6249TIP3    H240239   1.532   6.302  10.852  0.0676  0.7398  2.5682
 6250TIP3   OH240240   5.233   3.442   3.851  0.1229 -0.3153 -0.2369
 6250TIP3    H140241   5.233   3.508   3.781 -2.0237 -0.8970 -0.8579
 6250TIP3    H240242   5.325   3.416   3.859  0.8213  1.7342 -0.9276
 6251TIP3   OH240243   3.849   1.933   0.969 -0.0292  0.0419  0.2805
 6251TIP3    H140244   3.791   2.007   0.951 -0.5580  0.2868  2.6051
 6251TIP3    H240245   3.851   1.884   0.888 -0.6362  1.9449 -0.9648
 6252TIP3   OH240246   3.828   2.280  14.621 -0.2174  0.2771 -0.4491
 6252TIP3    H140247   3.863   2.192  14.639  0.8799  0.8845  0.5097
 6252TIP3    H240248   3.760   2.292  14.687  1.8019  1.3436  1.5842
 6253TIP3   OH240249   1.446   0.930   2.944 -0.9665  0.1707  0.0717
 6253TIP3    H140250   1.446   0.872   3.020 -0.1385 -0.7482 -0.5980
 6253TIP3    H240251   1.370   0.987   2.957 -1.4073 -0.6112  1.0956
 6254TIP3   OH240252   5.889   6.160   3.944  0.1577  0.4437 -0.4464
 6254TIP3    H140253   5.920   6.070   3.952 -1.3928 -0.0117  1.1930
 6254TIP3    H240254   5.969   6.213   3.941  1.1064 -0.9854 -2.1621
 6255TIP3   OH240255   1.739   6.209   4.156  0.1608  0.5507 -0.0132
 6255TIP3    H140256   1.780   6.278   4.104 -1.1556  0.1085 -1.7402
 6255TIP3    H240257   1.670   6.174   4.099  0.6499 -2.0754  0.8681
 6256TIP3   OH240258   3.223   3.749  11.184  0.1053 -0.3099 -0.1425
 6256TIP3    H140259   3.168   3.746  11.106 -1.0470  0.3750  0.6047
 6256TIP3    H240260   3.234   3.658  11.210 -0.3446 -0.4842 -0.5478
 6257TIP3   OH240261   2.763   3.656  16.137 -0.0976  0.2867  0.4686
 6257TIP3    H140262   2.812   3.632  16.059 -0.2610  0.1552  0.4068
 6257TIP3    H240263   2.714   3.734  16.112 -2.0942 -1.1452 -0.3540
 6258TIP3   OH240264   3.301   5.033   1.301 -0.3512 -0.0032  0.2073
 6258TIP3    H140265   3.328   4.942   1.307 -0.1568  0.1309  1.9818
 6258TIP3    H240266   3.382   5.083   1.310 -0.5374  0.3604 -0.0933
 6259TIP3   OH240267   5.844   0.940  15.377 -0.5047 -0.5928  0.0858
 6259TIP3    H140268   5.803   0.933  15.463  0.6606 -0.6673  0.6561
 6259TIP3    H240269   5.886   1.026  15.377 -1.8468  0.1029 -1.0473
 6260TIP3   OH240270   2.418   5.080   0.068  0.1617 -0.3560  0.3821
 6260TIP3    H140271   2.410   5.022   0.144 -2.3258 -0.2809  0.2498
 6260TIP3    H240272   2.402   5.168   0.103  1.0407 -0.0567  0.0772
 6261TIP3   OH240273   5.955   5.646   0.116 -0.4720 -0.2139  0.2336
 6261TIP3    H140274   5.968   5.620   0.207  0.9569  0.7630  0.3417
 6261TIP3    H240275   5.936   5.564   0.070  2.7967 -1.3851  0.7362
 6262TIP3   OH240276   5.515   6.238   1.416 -0.2603 -0.9148 -0.1994
 6262TIP3    H140277   5.559   6.318   1.390  0.5166 -0.8149  1.3052
 6262TIP3    H240278   5.460   6.215   1.341 -0.4341  0.9591 -0.6947
 6263TIP3   OH240279   2.381   5.187   1.586 -0.3338 -0.1706 -0.4160
 6263TIP3    H140280   2.442   5.115   1.604  0.5237  0.9496  1.4219
 6263TIP3    H240281   2.433   5.266   1.596 -2.1641  0.8681  2.0801
 6264TIP3   OH240282   2.944   0.336   3.394  0.3855 -0.1718 -0.3713
 6264TIP3    H140283   2.860   0.376   3.415  0.3586 -0.1275 -0.5556
 6264TIP3    H240284   2.943   0.328   3.298  0.6436 -0.0513 -0.3864
 6265TIP3   OH240285   1.891   2.269  12.508  0.4564 -0.1261  0.4645
 6265TIP3    H140286   1.930   2.320  12.579  1.3823  0.7406 -0.6211
 6265TIP3    H240287   1.880   2.181  12.544  1.5341  0.1304  1.4700
 6266TIP3   OH240288   5.103   5.579  16.899  0.5859 -0.3998  0.3722
 6266TIP3    H140289   5.023   5.612  16.859 -1.3595 -2.9087  1.8848
 6266TIP3    H240290   5.171   5.592  16.833 -1.2056  1.0472 -1.2917
 6267TIP3   OH240291   6.096   0.422  16.244  0.0094  0.0928  0.5816
 6267TIP3    H140292   6.040   0.462  16.311  1.5533  0.4342  1.7138
 6267TIP3    H240293   6.112   0.334  16.275 -1.1057 -0.5462 -0.5285
 6268TIP3   OH240294   4.024   4.510   5.500 -0.0589 -0.2127  0.0253
 6268TIP3    H140295   3.972   4.508   5.581  3.3020  2.1778  2.5464
 6268TIP3    H240296   3.986   4.582   5.449  0.4032  1.2302  1.6222
 6269TIP3   OH240297   3.525   4.972  14.872  0.3798  0.3053 -0.3674
 6269TIP3    H140298   3.557   4.901  14.927  0.5586  0.8924  0.2989
 6269TIP3    H240299   3.447   4.937  14.830  0.4906 -0.2953 -0.0840
 6270TIP3   OH240300   6.273   2.400  11.696  0.3160  0.1239 -0.2192
 6270TIP3    H140301   6.204   2.430  11.637  0.7082  2.9982  0.6417
 6270TIP3    H240302   6.317   2.331  11.647 -1.3347  0.2200 -1.9763
 6271TIP3   OH240303   2.042   0.616   4.719  0.0107  0.0526 -0.2018
 6271TIP3    H140304   2.073   0.707   4.717 -0.0328  0.0573 -0.6374
 6271TIP3    H240305   2.065   0.586   4.807  1.8108 -0.1239 -0.6891
 6272TIP3   OH240306   2.683   1.769   5.692  0.1883 -0.0320  0.0665
 6272TIP3    H140307   2.592   1.781   5.663  0.2592 -0.6491 -0.4221
 6272TIP3    H240308   2.682   1.796   5.784 -0.6286 -0.6135  0.2372
 6273TIP3   OH240309   0.170   5.399  16.046 -0.6389 -0.0722  0.0427
 6273TIP3    H140310   0.114   5.444  15.983  0.3845  0.5346 -0.4588
 6273TIP3    H240311   0.252   5.447  16.044  0.4275 -1.8067 -0.3422
 6274TIP3   OH240312   0.043   0.724  12.669  0.0132 -0.6779 -0.2799
 6274TIP3    H140313   0.073   0.800  12.717  0.3943 -0.3901 -0.9567
 6274TIP3    H240314   0.016   0.758  12.584 -0.1820 -1.2389 -0.4503
 6275TIP3   OH240315   3.843   5.420  11.475  0.7523  0.4066  0.7152
 6275TIP3    H140316   3.818   5.512  11.473  0.1206  0.2307  0.2996
 6275TIP3    H240317   3.762   5.373  11.457  1.3349 -0.1829 -0.4336
 6276TIP3   OH240318   2.491   4.121   5.328  0.3243 -0.0023 -0.6098
 6276TIP3    H140319   2.585   4.115   5.345  0.0358 -0.4028  1.0226
 6276TIP3    H240320   2.461   4.188   5.389 -0.7939 -1.4885  0.5470
 6277TIP3   OH240321   5.782   6.721  10.671  0.1241  0.0629  0.1257
 6277TIP3    H140322   5.729   6.801  10.663  0.3110  0.0738 -1.4019
 6277TIP3    H240323   5.854   6.735  10.610  0.6942 -0.8714  0.5748
 6278TIP3   OH240324   3.640   1.898  13.338 -0.7650 -0.4452 -0.2324
 6278TIP3    H140325   3.644   1.893  13.243 -1.1743 -0.0990 -0.2688
 6278TIP3    H240326   3.570   1.838  13.363 -0.9023 -0.2622 -0.1755
 6279TIP3   OH240327   0.828   0.439   4.370 -0.0682 -0.0153  0.4965
 6279TIP3    H140328   0.917   0.474   4.382  0.0661 -0.6247  1.3589
 6279TIP3    H240329   0.814   0.443   4.275  1.7835 -2.0228  0.0527
 6280TIP3   OH240330   3.520   2.605  15.447 -0.0943 -0.2562 -0.5079
 6280TIP3    H140331   3.525   2.602  15.351  0.6087  0.7241 -0.5143
 6280TIP3    H240332   3.455   2.538  15.469 -1.5484  0.6663 -1.7730
 6281TIP3   OH240333   3.344   4.026   1.607 -0.1830  0.1349  0.0790
 6281TIP3    H140334   3.282   4.089   1.644 -0.4513 -0.4506  0.6482
 6281TIP3    H240335   3.295   3.980   1.539 -0.0694  0.3483 -0.1494
 6282TIP3   OH240336   6.793   3.835  14.043  0.3629  0.3433  0.1911
 6282TIP3    H140337   6.815   3.829  13.950  0.1473  2.1767 -0.0024
 6282TIP3    H240338   6.698   3.845  14.045  0.2146 -0.9053  0.7024
 6283TIP3   OH240339   6.246   3.547   2.913 -0.0437  0.3456 -0.2322
 6283TIP3    H140340   6.241   3.642   2.904 -0.6807  0.2815 -0.6008
 6283TIP3    H240341   6.157   3.520   2.933  0.3579 -0.0564  1.1463
 6284TIP3   OH240342   0.641   3.935  15.882 -0.0233 -0.1705 -0.2641
 6284TIP3    H140343   0.559   3.954  15.835 -2.3117 -2.1014  2.5877
 6284TIP3    H240344   0.676   4.021  15.904 -0.9269  0.7236 -2.0996
 6285TIP3   OH240345   3.545   2.752  14.029 -0.2755 -0.0785  0.4814
 6285TIP3    H140346   3.545   2.846  14.049  0.2311 -0.0901  0.5600
 6285TIP3    H240347   3.514   2.710  14.110 -1.8076  0.0875  0.0181
 6286TIP3   OH240348   4.898   0.472   4.734 -0.0732 -0.4145 -0.2481
 6286TIP3    H140349   4.869   0.490   4.644  0.2240 -0.1307 -0.2887
 6286TIP3    H240350   4.973   0.530   4.747 -1.0975  0.7622  0.7407
 6287TIP3   OH240351   4.124   2.466   4.158  0.0141  0.1478  0.5213
 6287TIP3    H140352   4.125   2.510   4.243  0.5391  2.2671 -0.5178
 6287TIP3    H240353   4.197   2.506   4.110 -0.7882 -0.3987 -1.2026
 6288TIP3   OH240354   5.694   5.985   4.028  0.1545  0.3107  0.2410
 6288TIP3    H140355   5.770   6.037   4.001  0.5347 -0.0748  0.5691
 6288TIP3    H240356   5.623   6.015   3.970  0.8675 -0.2676 -0.9826
 6289TIP3   OH240357   0.305   5.182   3.193 -0.1608  0.5078 -0.1755
 6289TIP3    H140358   0.282   5.166   3.284  2.2645  0.6424  0.5257
 6289TIP3    H240359   0.388   5.135   3.180 -0.1530  0.9646 -2.1515
 6290TIP3   OH240360   1.920   5.243  13.730 -0.5376 -0.0909 -0.5680
 6290TIP3    H140361   1.834   5.284  13.734  0.3174  1.7622  0.1292
 6290TIP3    H240362   1.981   5.315  13.746  1.0927 -1.5661  0.1087
 6291TIP3   OH240363   0.632   1.433   0.511  0.1650 -0.0024 -0.1398
 6291TIP3    H140364   0.558   1.425   0.571 -0.9379  0.1574 -1.4375
 6291TIP3    H240365   0.597   1.482   0.436  1.8894  1.0882 -0.2902
 6292TIP3   OH240366   3.737   0.080  13.483  0.2310  0.4309  0.8139
 6292TIP3    H140367   3.652   0.052  13.514 -0.2483  0.1924 -0.6154
 6292TIP3    H240368   3.718   0.132  13.404  1.3821  0.5538  0.5881
 6293TIP3   OH240369   6.407   4.459   4.753  0.8045  0.2010  0.4475
 6293TIP3    H140370   6.358   4.376   4.752 -0.6796  1.0507  0.1438
 6293TIP3    H240371   6.343   4.524   4.781  2.1934  1.1289  1.5942
 6294TIP3   OH240372   3.475   2.395   0.461  0.5245  0.6799 -0.1339
 6294TIP3    H140373   3.426   2.400   0.543  0.5442 -0.4616 -0.0316
 6294TIP3    H240374   3.434   2.461   0.405  0.7366  1.7215  0.8905
 6295TIP3   OH240375   4.497   4.950  11.308  0.3346 -0.5044 -0.1708
 6295TIP3    H140376   4.523   4.864  11.339  3.6593  0.7340  0.9458
 6295TIP3    H240377   4.523   4.950  11.215  1.8108 -0.2808  0.2058
 6296TIP3   OH240378   1.079   6.251   4.254  0.3845  0.3945  0.4462
 6296TIP3    H140379   1.089   6.158   4.273  0.1183  0.3122  0.1841
 6296TIP3    H240380   0.985   6.263   4.242  0.4817  0.5802 -0.1341
 6297TIP3   OH240381   5.043   0.520   5.061  0.6505 -0.5500  0.0729
 6297TIP3    H140382   5.135   0.546   5.059  0.5553 -0.2708 -0.7736
 6297TIP3    H240383   5.013   0.530   4.971  0.1037 -1.8020  0.1033
 6298TIP3   OH240384   2.242   2.182  17.107 -0.1864  0.1741 -0.3494
 6298TIP3    H140385   2.338   2.178  17.112 -0.1539  0.6898 -0.4438
 6298TIP3    H240386   2.212   2.144  17.189  0.1165  0.3792 -0.1393
 6299TIP3   OH240387   0.114   3.474   4.178  0.0616 -0.2971  0.0858
 6299TIP3    H140388   0.206   3.458   4.154  0.4825 -0.3622  1.6681
 6299TIP3    H240389   0.076   3.513   4.099  1.1795 -1.2221 -0.9475
 6300TIP3   OH240390   1.530   0.801   5.955 -0.2246  0.0183  0.1957
 6300TIP3    H140391   1.448   0.771   5.915 -1.3460  1.0592  1.6178
 6300TIP3    H240392   1.517   0.895   5.968  1.9512  0.6016 -1.2292
 6301TIP3   OH240393   4.303   0.588  16.810  0.1525 -0.6240  0.5931
 6301TIP3    H140394   4.339   0.507  16.776 -0.3503 -0.3496 -0.6727
 6301TIP3    H240395   4.211   0.568  16.830 -0.1225 -0.2390 -0.2436
 6302TIP3   OH240396   0.820   3.581   3.803  0.4436 -0.3140  0.8651
 6302TIP3    H140397   0.838   3.663   3.848  2.1545 -0.6159  0.7826
 6302TIP3    H240398   0.882   3.519   3.840 -1.1487 -1.7271  1.2819
 6303TIP3   OH240399   1.787   5.568   5.776 -0.1937  0.1412 -0.7736
 6303TIP3    H140400   1.839   5.583   5.855 -1.0757 -1.7969  0.2360
 6303TIP3    H240401   1.837   5.504   5.726  0.4401  1.4836 -1.9087
 6304TIP3   OH240402   4.504   1.701   0.657 -0.0856  0.2460 -0.8960
 6304TIP3    H140403   4.567   1.665   0.719  0.2970  0.6622 -1.0344
 6304TIP3    H240404   4.553   1.769   0.611 -0.0768 -0.6919 -2.3224
 6305TIP3   OH240405   1.285   3.728   5.044  0.7364  0.4361 -0.1401
 6305TIP3    H140406   1.263   3.774   4.962 -1.4484 -0.0357  0.1259
 6305TIP3    H240407   1.338   3.654   5.016  1.3381  1.1532 -0.9526
 6306TIP3   OH240408   6.787   4.256   0.569 -0.0294  0.3668 -0.3240
 6306TIP3    H140409   6.858   4.193   0.559 -1.2994 -1.0697 -0.7262
 6306TIP3    H240410   6.722   4.229   0.505 -1.3677  1.0179  0.7022
 6307TIP3   OH240411   1.582   1.697   2.658  0.7515 -0.2032  0.4207
 6307TIP3    H140412   1.621   1.648   2.585  2.9701  1.4162  0.4437
 6307TIP3    H240413   1.572   1.786   2.625  1.6422  0.5234  2.0218
 6308TIP3   OH240414   0.652   2.469  13.920 -0.0609  0.4113  0.1805
 6308TIP3    H140415   0.682   2.536  13.981 -1.5903  0.8649  0.4595
 6308TIP3    H240416   0.605   2.405  13.973 -0.7300  0.4020 -0.3977
 6309TIP3   OH240417   0.041   1.046   4.012 -0.3080 -1.2078 -0.1087
 6309TIP3    H140418  -0.044   1.023   3.974 -0.8802 -0.9733  0.9813
 6309TIP3    H240419   0.061   0.973   4.071  0.2580 -1.2675 -0.3698
 6310TIP3   OH240420   5.520   1.360  11.735  0.5740  0.2451  0.1241
 6310TIP3    H140421   5.540   1.309  11.656  0.2182  0.7287 -0.2852
 6310TIP3    H240422   5.576   1.322  11.802 -1.3815 -2.2771  0.4535
 6311TIP3   OH240423   6.524   3.246   2.312 -0.3733 -0.0489  0.4356
 6311TIP3    H140424   6.432   3.235   2.338 -0.4730  1.1337  0.6338
 6311TIP3    H240425   6.531   3.338   2.288  0.8086 -0.0912  0.5728
 6312TIP3   OH240426   4.771   3.337  16.274  0.0126  0.0900  0.3543
 6312TIP3    H140427   4.786   3.306  16.185  0.3502  0.9923  0.0887
 6312TIP3    H240428   4.686   3.380  16.271  0.1916  0.4498  0.3757
 6313TIP3   OH240429   4.218   3.657  13.406  0.2364  0.4141  0.2257
 6313TIP3    H140430   4.187   3.709  13.480 -0.5825 -0.7136  0.6966
 6313TIP3    H240431   4.293   3.706  13.373 -0.1557  1.5904  1.0075
 6314TIP3   OH240432   5.739   5.254   3.789 -0.1333 -0.1407  0.3781
 6314TIP3    H140433   5.724   5.329   3.847 -1.1199 -0.5878  0.7327
 6314TIP3    H240434   5.651   5.225   3.764  0.0479 -2.6589  2.2053
 6315TIP3   OH240435   6.403   6.419   1.953 -0.6824  0.1116  0.1671
 6315TIP3    H140436   6.469   6.397   2.018 -0.8710 -1.7329 -0.2209
 6315TIP3    H240437   6.446   6.404   1.869 -0.9596  0.9009 -0.1268
 6316TIP3   OH240438   6.812   0.280  14.659 -0.1652  0.1127 -0.2544
 6316TIP3    H140439   6.787   0.373  14.663 -0.9019 -0.0731 -0.4264
 6316TIP3    H240440   6.737   0.234  14.696  0.7006 -0.3429  0.9857
 6317TIP3   OH240441   5.198   3.107  10.974  0.4225 -0.0535  0.5207
 6317TIP3    H140442   5.264   3.157  10.926  0.9858 -0.4570  0.8578
 6317TIP3    H240443   5.248   3.038  11.018 -0.2792 -0.6223  0.4434
 6318TIP3   OH240444   6.354   5.976   6.723 -0.0413  0.1295  0.3566
 6318TIP3    H140445   6.447   5.957   6.708  0.1045  2.2154 -1.8774
 6318TIP3    H240446   6.347   5.987   6.818  1.8325 -0.7183  0.6420
 6319TIP3   OH240447   6.618   2.850  11.309 -0.3022  0.5926 -0.4471
 6319TIP3    H140448   6.532   2.818  11.281  0.3841 -1.2031 -0.6351
 6319TIP3    H240449   6.615   2.844  11.404  0.8428 -3.1710 -0.5054
 6320TIP3   OH240450   5.350   0.515  14.117 -0.3032  0.4471  0.1436
 6320TIP3    H140451   5.359   0.445  14.052 -0.2901 -1.1504  1.7785
 6320TIP3    H240452   5.363   0.596  14.068 -1.9811 -0.5771 -2.1534
 6321TIP3   OH240453   6.524   6.104  12.534 -0.1423  0.0145 -0.0939
 6321TIP3    H140454   6.541   6.012  12.515 -1.9337 -0.0884 -1.3967
 6321TIP3    H240455   6.477   6.103  12.617  2.6108  0.0568  1.6039
 6322TIP3   OH240456   1.047   5.221   2.987  0.2814 -0.6902 -0.4001
 6322TIP3    H140457   1.081   5.229   3.076  0.2960  0.2634 -0.4761
 6322TIP3    H240458   1.044   5.127   2.971  1.2256 -0.8516  0.2474
 6323TIP3   OH240459   5.399   2.425   2.458 -0.1818 -0.3640  0.3001
 6323TIP3    H140460   5.402   2.346   2.403  1.7497  0.3905 -0.7686
 6323TIP3    H240461   5.438   2.494   2.404 -1.0621  1.1524  1.5115
 6324TIP3   OH240462   4.773   0.378   0.665  0.4305 -0.3454  0.1831
 6324TIP3    H140463   4.742   0.417   0.584 -3.5550 -2.6992  0.2942
 6324TIP3    H240464   4.783   0.285   0.644  0.1993 -0.8534  2.1011
 6325TIP3   OH240465   3.768   2.495   3.583 -0.0738 -0.3469  0.1881
 6325TIP3    H140466   3.709   2.522   3.513 -0.2478  0.5711  0.6797
 6325TIP3    H240467   3.771   2.399   3.576 -0.1810 -0.2755 -0.9868
 6326TIP3   OH240468   5.645   0.500  15.930  0.1684 -0.1967  0.0118
 6326TIP3    H140469   5.673   0.433  15.993 -0.0856 -0.1665  0.1607
 6326TIP3    H240470   5.643   0.454  15.846  0.2862 -0.2984  0.0637
 6327TIP3   OH240471   2.188   4.896  11.082 -0.2318 -0.2577 -0.4173
 6327TIP3    H140472   2.217   4.986  11.097  0.0313 -0.6578  1.8348
 6327TIP3    H240473   2.229   4.846  11.153 -3.9861 -1.3530  1.2218
 6328TIP3   OH240474   3.416   5.383   1.174 -0.5033 -0.4035  0.5249
 6328TIP3    H140475   3.338   5.357   1.224 -0.7694  0.3735  0.5339
 6328TIP3    H240476   3.436   5.471   1.207 -0.9473  0.3109 -1.0217
 6329TIP3   OH240477   1.405   2.688   1.450 -0.5701 -0.8181 -0.4707
 6329TIP3    H140478   1.440   2.777   1.456 -2.1728  0.0198 -2.4833
 6329TIP3    H240479   1.436   2.645   1.530 -2.8370  2.6104  2.5919
 6330TIP3   OH240480   2.717   5.802   2.279 -0.2064  0.5455 -0.0554
 6330TIP3    H140481   2.647   5.837   2.335  0.5497  0.6821  0.8366
 6330TIP3    H240482   2.702   5.843   2.194 -1.0603  0.7637  0.1857
 6331TIP3   OH240483   4.682   2.813   5.723 -0.6738 -0.1565  0.0242
 6331TIP3    H140484   4.755   2.767   5.765 -0.7655 -0.0322  0.3284
 6331TIP3    H240485   4.716   2.842   5.639 -0.2598  0.2045  0.3128
 6332TIP3   OH240486   1.639   3.191  14.287 -0.2188  0.0255  0.0269
 6332TIP3    H140487   1.714   3.156  14.333 -1.0423 -0.6920  0.8541
 6332TIP3    H240488   1.597   3.250  14.350  0.6746  1.8996 -1.0563
 6333TIP3   OH240489   6.731   2.012  10.593  0.3099 -0.6199  0.1052
 6333TIP3    H140490   6.732   2.042  10.684  0.4967 -1.0499  0.2446
 6333TIP3    H240491   6.638   2.008  10.571  0.2833  1.2778 -0.3237
 6334TIP3   OH240492   1.945   1.575   4.211 -0.8325 -0.2459  0.1472
 6334TIP3    H140493   1.955   1.525   4.129  0.9905 -0.0222  0.1821
 6334TIP3    H240494   1.915   1.511   4.275  1.6640 -1.4623  0.2418
 6335TIP3   OH240495   5.092   4.413  14.089 -0.2701 -0.0344 -0.0336
 6335TIP3    H140496   5.046   4.377  14.013 -1.0622  1.9709 -0.5741
 6335TIP3    H240497   5.022   4.436  14.150  0.2876 -0.4586  0.7815
 6336TIP3   OH240498   6.712   4.090   4.040 -0.2757  0.0060  0.4556
 6336TIP3    H140499   6.729   4.165   3.983  1.6524 -0.7869 -0.0918
 6336TIP3    H240500   6.686   4.020   3.981 -0.0591 -0.3223  0.7466
 6337TIP3   OH240501   6.643   2.320  12.590  0.1462  0.2580  0.3660
 6337TIP3    H140502   6.698   2.298  12.515 -2.4464 -1.8914 -1.0554
 6337TIP3    H240503   6.680   2.270  12.663 -0.7321 -2.4521 -0.9297
 6338TIP3   OH240504   3.654   2.242   1.424  0.5920  0.5427 -0.5683
 6338TIP3    H140505   3.724   2.282   1.474  0.6135  0.9044 -0.8839
 6338TIP3    H240506   3.589   2.311   1.413 -0.2979 -0.0736  0.5969
 6339TIP3   OH240507   1.718   4.699  13.286  0.2910 -0.5195 -0.7576
 6339TIP3    H140508   1.795   4.643  13.272  1.8133  1.1890  0.3073
 6339TIP3    H240509   1.661   4.648  13.342  1.6807 -1.0164  0.2669
 6340TIP3   OH240510   2.805   3.551  13.180  0.0686 -0.3395 -0.1124
 6340TIP3    H140511   2.736   3.556  13.246 -0.8470 -0.3791 -1.0229
 6340TIP3    H240512   2.881   3.592  13.220 -0.5549 -0.0967  0.8463
 6341TIP3   OH240513   5.700   1.225   1.022  0.0493 -0.7356 -0.4229
 6341TIP3    H140514   5.795   1.236   1.017  0.2253 -1.0240  1.4968
 6341TIP3    H240515   5.676   1.187   0.938  1.5717 -0.3157 -1.0905
 6342TIP3   OH240516   6.353   2.991  15.465 -0.4911 -0.6343 -0.3574
 6342TIP3    H140517   6.267   2.960  15.436  0.1204  0.6438 -3.9373
 6342TIP3    H240518   6.410   2.915  15.456 -0.3845 -0.3469 -2.3601
 6343TIP3   OH240519   1.642   5.086  13.739 -0.4109  0.0906 -0.1232
 6343TIP3    H140520   1.582   5.159  13.724  0.0938  0.8465  1.3241
 6343TIP3    H240521   1.667   5.057  13.651 -1.6414  0.8039 -0.7295
 6344TIP3   OH240522   5.249   0.102  16.523 -0.3765  0.1663 -0.2046
 6344TIP3    H140523   5.272   0.014  16.551  1.7106  0.9680  0.8873
 6344TIP3    H240524   5.206   0.141  16.599  0.2684  0.5980 -0.0461
 6345TIP3   OH240525   3.686   1.255  13.696  0.2085  0.0566 -0.1064
 6345TIP3    H140526   3.765   1.221  13.738  1.4513 -1.8394 -3.5641
 6345TIP3    H240527   3.715   1.333  13.649 -0.5698  0.7557  0.5533
 6346TIP3   OH240528   4.095   0.533  11.428 -0.6327  0.2691  0.2580
 6346TIP3    H140529   4.159   0.467  11.454 -0.7400  1.1475  3.0558
 6346TIP3    H240530   4.138   0.617  11.444 -1.9321  0.8779  0.7353
 6347TIP3   OH240531   4.463   1.544   3.400  0.6824 -0.3480  0.1183
 6347TIP3    H140532   4.486   1.480   3.467  1.6661 -0.9313 -0.7473
 6347TIP3    H240533   4.499   1.508   3.319  0.9917  1.1465 -0.4445
 6348TIP3   OH240534   6.113   3.049  15.736  0.2118 -0.4262  0.9736
 6348TIP3    H140535   6.062   3.000  15.801  0.3393 -1.0520  0.6084
 6348TIP3    H240536   6.127   2.987  15.665  0.2360  0.2005  0.4255
 6349TIP3   OH240537   3.946   5.032  15.477 -0.1221  0.3831 -0.2777
 6349TIP3    H140538   3.901   5.101  15.429 -1.0783 -1.4060 -2.1414
 6349TIP3    H240539   3.877   4.985  15.523  0.3246 -0.1681 -0.1549
 6350TIP3   OH240540   3.077   0.789   2.511  0.2281 -0.4044 -0.2257
 6350TIP3    H140541   3.143   0.722   2.494  0.4619 -0.2954  0.2494
 6350TIP3    H240542   2.994   0.741   2.509  0.5576 -1.2799  2.9147
 6351TIP3   OH240543   0.678   5.641  16.321  0.1785 -0.2911  0.3024
 6351TIP3    H140544   0.704   5.671  16.408 -2.6652 -1.5602  1.7093
 6351TIP3    H240545   0.633   5.716  16.282 -1.9060 -0.8220  1.5380
 6352TIP3   OH240546   0.910   0.843  15.151 -0.8477  0.5182 -0.2683
 6352TIP3    H140547   0.985   0.891  15.114 -0.0195 -1.4151 -1.2102
 6352TIP3    H240548   0.861   0.812  15.075 -1.0178 -0.6278  0.2878
 6353TIP3   OH240549   1.870   6.425  12.980  0.0254 -0.0680 -0.8091
 6353TIP3    H140550   1.853   6.497  13.041  0.3785 -1.7147  1.3480
 6353TIP3    H240551   1.946   6.454  12.929  0.8798  0.6216  0.8007
 6354TIP3   OH240552   4.127   5.250   2.427  0.7044  0.2079 -0.0596
 6354TIP3    H140553   4.055   5.188   2.435  0.8746 -0.1371 -1.0416
 6354TIP3    H240554   4.103   5.305   2.352  2.1608 -0.9092 -1.4134
 6355TIP3   OH240555   0.441   2.034   5.533 -0.7549  0.1327 -0.3207
 6355TIP3    H140556   0.446   2.118   5.486  2.3966 -0.3947 -1.1567
 6355TIP3    H240557   0.468   2.055   5.622 -0.6294  0.1147 -0.3543
 6356TIP3   OH240558   2.595   0.197  11.748  0.1497 -0.2673 -0.0018
 6356TIP3    H140559   2.622   0.283  11.715  0.8263 -0.4771 -0.0056
 6356TIP3    H240560   2.626   0.135  11.682  0.1252 -0.5620  0.2605
 6357TIP3   OH240561   0.595   0.205  11.812  0.1475 -0.3058  0.5586
 6357TIP3    H140562   0.620   0.296  11.822  1.2853 -0.3501 -1.3765
 6357TIP3    H240563   0.504   0.208  11.783  0.7579  0.3604 -1.4305
 6358TIP3   OH240564   4.231   3.440  11.632 -0.8522  0.7797  0.1373
 6358TIP3    H140565   4.287   3.364  11.619 -1.8929 -0.2271  1.2534
 6358TIP3    H240566   4.144   3.411  11.604 -1.3794  1.3611  1.1024
 6359TIP3   OH240567   5.819   6.064  13.891 -0.4706 -0.0058  0.0193
 6359TIP3    H140568   5.807   5.993  13.955 -2.1696  1.7483  1.8106
 6359TIP3    H240569   5.913   6.065  13.874  0.4703  0.6786  4.1637
 6360TIP3   OH240570   3.714   5.308  12.156 -0.0885 -0.2546  0.4893
 6360TIP3    H140571   3.651   5.259  12.103  0.0693 -1.3958  1.3142
 6360TIP3    H240572   3.784   5.245  12.173  1.2215  0.9420 -0.2855
 6361TIP3   OH240573   1.946   1.913   2.513  0.4579 -0.1336 -0.1090
 6361TIP3    H140574   1.924   1.837   2.568  2.4944 -0.0208  0.9712
 6361TIP3    H240575   1.915   1.988   2.564 -2.0964 -0.1496 -1.4428
 6362TIP3   OH240576   1.111   3.419  14.058 -0.7328 -0.4906  0.2133
 6362TIP3    H140577   1.159   3.366  14.122 -1.6108 -1.4116  0.1526
 6362TIP3    H240578   1.070   3.488  14.110  0.2264 -0.0004  0.3342
 6363TIP3   OH240579   2.256   6.695   5.137  0.4018  0.0356 -0.2822
 6363TIP3    H140580   2.193   6.759   5.105 -0.7985  0.3426  2.3822
 6363TIP3    H240581   2.278   6.725   5.225  1.2066 -2.2300  0.3721
 6364TIP3   OH240582   2.997   5.935   3.411 -0.4839  0.7873  0.3643
 6364TIP3    H140583   2.944   5.865   3.449 -0.5565 -0.3025 -1.5941
 6364TIP3    H240584   3.085   5.898   3.405 -0.5679  0.7446 -0.8877
 6365TIP3   OH240585   5.987   0.685  15.693 -0.7827  0.2960  0.0159
 6365TIP3    H140586   5.936   0.704  15.772 -0.5662  1.4044 -0.0942
 6365TIP3    H240587   5.995   0.590  15.692  0.0864  0.3012  1.8969
 6366TIP3   OH240588   0.384   2.423  15.585 -0.3930  0.0255 -0.0702
 6366TIP3    H140589   0.316   2.359  15.567 -0.4098 -0.0015  0.0939
 6366TIP3    H240590   0.463   2.386  15.547 -0.8940  1.0703 -2.3163
 6367TIP3   OH240591   1.984   5.497  17.198 -0.3257 -0.3998  0.2253
 6367TIP3    H140592   1.944   5.439  17.134 -1.6915 -0.6429  1.2496
 6367TIP3    H240593   1.958   5.585  17.170  0.5635 -0.3786 -0.5388
 6368TIP3   OH240594   3.828   1.556  11.911 -0.4034 -0.5551 -0.2110
 6368TIP3    H140595   3.923   1.565  11.917 -0.5275  1.4338 -0.6032
 6368TIP3    H240596   3.813   1.461  11.912  1.5189 -0.8957  0.5415
 6369TIP3   OH240597   0.212   2.989  11.395 -0.1260 -0.3200  0.4159
 6369TIP3    H140598   0.164   2.932  11.334 -3.2797  2.1384  0.3464
 6369TIP3    H240599   0.252   3.055  11.338  0.6226 -0.4973  0.7316
 6370TIP3   OH240600   2.272   4.827  13.719 -0.2335  0.5720 -0.3439
 6370TIP3    H140601   2.362   4.822  13.686 -0.8944 -0.2806 -2.0830
 6370TIP3    H240602   2.270   4.909  13.769  1.2895  1.0032 -0.9453
 6371TIP3   OH240603   5.070   3.186   3.349  0.3511  0.2411  0.1822
 6371TIP3    H140604   5.027   3.143   3.422  0.3748  0.0508  0.0858
 6371TIP3    H240605   5.098   3.271   3.383  1.0139 -0.1406  0.6042
 6372TIP3   OH240606   4.301   3.569   5.486  0.3136  0.1428  0.4483
 6372TIP3    H140607   4.263   3.491   5.526 -2.2289  1.8157  1.5502
 6372TIP3    H240608   4.318   3.629   5.559 -1.4845  2.0630 -0.6023
 6373TIP3   OH240609   1.788   2.354  11.560 -0.1239  0.0386 -0.3717
 6373TIP3    H140610   1.801   2.433  11.614  0.2224 -0.6654  0.5957
 6373TIP3    H240611   1.876   2.316  11.553 -0.3220 -0.3623 -0.6730
 6374TIP3   OH240612   5.989   3.649   1.277  0.2606  0.1119  0.2980
 6374TIP3    H140613   5.966   3.723   1.333 -2.0750  0.1519 -0.6049
 6374TIP3    H240614   6.024   3.689   1.197  1.4588  0.1186  0.8033
 6375TIP3   OH240615   3.194   4.221  11.708 -0.2563  0.3955  0.4319
 6375TIP3    H140616   3.180   4.164  11.631 -1.8960  1.5316 -0.1673
 6375TIP3    H240617   3.285   4.247  11.701 -0.6145  1.3237 -1.7960
 6376TIP3   OH240618   4.354   0.490  12.166 -0.9022 -0.0664  0.9874
 6376TIP3    H140619   4.448   0.476  12.170 -0.8593 -0.0261  0.2540
 6376TIP3    H240620   4.339   0.527  12.079 -1.7186 -1.0157  0.7126
 6377TIP3   OH240621   0.566   1.549  16.962  0.0965 -0.0194 -0.2894
 6377TIP3    H140622   0.652   1.587  16.941 -0.2122  1.1224  0.4169
 6377TIP3    H240623   0.571   1.459  16.930  1.0389  0.4639 -1.5916
 6378TIP3   OH240624   4.530   0.200  12.437  0.1757 -0.2789 -0.3870
 6378TIP3    H140625   4.617   0.217  12.472 -0.6707  0.3368  1.5134
 6378TIP3    H240626   4.479   0.279  12.457 -1.6874 -1.8471  1.5117
 6379TIP3   OH240627   3.446   0.213   2.682 -0.1556 -0.1726 -0.0316
 6379TIP3    H140628   3.511   0.158   2.638  0.7687  1.2831 -0.5488
 6379TIP3    H240629   3.414   0.158   2.754  1.7471 -0.8904  0.3334
 6380TIP3   OH240630   1.902   0.756   4.377 -0.3440  0.2616  0.2061
 6380TIP3    H140631   1.922   0.719   4.463 -0.4865  1.0491  0.5857
 6380TIP3    H240632   1.937   0.692   4.315 -0.8728 -0.6755  0.8368
 6381TIP3   OH240633   3.877   1.344   2.932  0.1506 -0.3847  0.2011
 6381TIP3    H140634   3.927   1.332   3.012 -0.3827  0.1247  0.6286
 6381TIP3    H240635   3.791   1.308   2.952 -0.7088  1.7604  0.6827
 6382TIP3   OH240636   5.978   4.251  14.971  0.3440  0.2650 -0.0163
 6382TIP3    H140637   5.946   4.202  15.047  0.9776  2.0217  1.4584
 6382TIP3    H240638   6.035   4.189  14.925  0.2366 -0.7290  1.1322
 6383TIP3   OH240639   2.323   3.210   2.647  0.1779  0.0076 -0.4109
 6383TIP3    H140640   2.384   3.264   2.595 -2.5654  0.4737 -3.4668
 6383TIP3    H240641   2.281   3.272   2.706 -0.6195  0.6239 -1.5959
 6384TIP3   OH240642   5.009   2.275  14.576 -0.6018  0.0899 -0.0652
 6384TIP3    H140643   5.029   2.345  14.513  1.2302  1.5481  1.9802
 6384TIP3    H240644   5.077   2.210  14.562  0.2808  0.7851  0.8762
 6385TIP3   OH240645   6.564   1.593  15.918 -0.1091 -0.1422 -0.3816
 6385TIP3    H140646   6.584   1.685  15.930 -1.7208  0.0699  1.0112
 6385TIP3    H240647   6.553   1.583  15.823 -0.6347  1.2636 -0.4875
 6386TIP3   OH240648   2.086   4.448  12.710 -0.1515 -0.4102  0.2585
 6386TIP3    H140649   2.068   4.378  12.648  0.3849  0.4877 -0.9651
 6386TIP3    H240650   2.158   4.414  12.764 -1.4320 -1.6737  1.2440
 6387TIP3   OH240651   6.101   6.111  15.590 -0.1584 -0.6278 -0.1194
 6387TIP3    H140652   6.087   6.086  15.498 -3.2652 -0.0539  0.0953
 6387TIP3    H240653   6.021   6.084  15.634  0.5536  0.6877  2.1087
 6388TIP3   OH240654   1.832   0.614  12.238 -0.0581 -0.2296  0.5031
 6388TIP3    H140655   1.816   0.689  12.296 -1.9894  0.2282 -0.5194
 6388TIP3    H240656   1.816   0.649  12.150 -3.5805 -2.3265  0.0994
 6389TIP3   OH240657   6.150   2.952   5.012 -0.4671  0.0712  0.1520
 6389TIP3    H140658   6.178   3.023   4.955 -1.9846 -0.0506 -0.8192
 6389TIP3    H240659   6.068   2.984   5.051  0.6224  0.2205  2.4498
 6390TIP3   OH240660   2.810   2.515  14.117  0.5735 -0.2375  0.0756
 6390TIP3    H140661   2.881   2.451  14.122 -0.7486 -1.7921 -0.2029
 6390TIP3    H240662   2.753   2.493  14.191 -0.0386  0.4512 -0.1865
 6391TIP3   OH240663   5.016   0.385  14.788 -0.3768 -0.0318  0.0796
 6391TIP3    H140664   5.057   0.411  14.705  1.3848 -3.6469 -0.3584
 6391TIP3    H240665   5.084   0.401  14.854 -0.4747 -0.4605  0.2868
 6392TIP3   OH240666   3.241   5.416   5.159  0.1835 -0.2055 -0.1521
 6392TIP3    H140667   3.303   5.369   5.215 -0.4971 -4.6513 -2.6299
 6392TIP3    H240668   3.294   5.452   5.088  0.4151  0.4236  0.3318
 6393TIP3   OH240669   3.131   0.377  14.505  0.0408  0.1698 -0.5166
 6393TIP3    H140670   3.133   0.473  14.516  0.4125  0.1826 -0.7091
 6393TIP3    H240671   3.043   0.360  14.470 -0.4037  0.3352  0.4633
 6394TIP3   OH240672   5.063   5.402   1.401  0.5048 -0.6682  0.6048
 6394TIP3    H140673   5.158   5.413   1.395  0.5145 -1.4363 -2.0562
 6394TIP3    H240674   5.041   5.426   1.491  3.0697  0.5263  0.9880
 6395TIP3   OH240675   3.387   2.262   1.242  0.5020 -0.3779 -0.0720
 6395TIP3    H140676   3.483   2.268   1.245  0.4517  0.1098  1.7768
 6395TIP3    H240677   3.370   2.168   1.233  1.1238 -0.3456 -2.1777
 6396TIP3   OH240678   2.518   1.822   2.522 -0.2278 -0.2128 -0.0338
 6396TIP3    H140679   2.436   1.790   2.484 -0.7292  2.0722 -1.0873
 6396TIP3    H240680   2.586   1.765   2.486 -1.1043 -0.4740 -1.3445
 6397TIP3   OH240681   0.189   4.358  12.302  0.8283 -0.7629  0.0773
 6397TIP3    H140682   0.122   4.304  12.260 -1.2175  0.2804  1.7571
 6397TIP3    H240683   0.223   4.413  12.232 -1.0522 -0.4375 -0.6554
 6398TIP3   OH240684   0.315   5.540  10.968  0.0890 -0.1972  0.0715
 6398TIP3    H140685   0.308   5.540  10.873  1.2845 -1.6257 -0.0534
 6398TIP3    H240686   0.312   5.447  10.992 -1.9172  0.2067  1.5955
 6399TIP3   OH240687   1.922   1.981   5.827 -0.0383 -0.2679  0.4069
 6399TIP3    H140688   1.868   1.982   5.906 -0.8025 -0.1598 -0.1073
 6399TIP3    H240689   1.921   2.072   5.796  1.0299 -0.1169  0.7829
 6400TIP3   OH240690   3.163   0.523  11.907 -0.1299 -0.3218  0.0118
 6400TIP3    H140691   3.105   0.509  11.831 -0.4908 -0.1978  0.2615
 6400TIP3    H240692   3.233   0.458  11.895  0.1010  0.0416 -0.7018
 6401TIP3   OH240693   3.537   4.480   4.259 -0.3661  0.0839 -0.1666
 6401TIP3    H140694   3.461   4.423   4.249 -0.4769  0.1534  0.2506
 6401TIP3    H240695   3.583   4.446   4.336  0.5465 -0.5389 -0.9781
 6402TIP3   OH240696   4.948   3.925   0.464 -0.0698 -0.2811  0.1314
 6402TIP3    H140697   5.010   3.989   0.499  1.1546 -0.8192 -0.9869
 6402TIP3    H240698   4.993   3.884   0.391 -0.6524 -2.7037  1.0040
 6403TIP3   OH240699   4.637   1.426  12.067  0.7016 -0.5845  0.1321
 6403TIP3    H140700   4.728   1.407  12.089  1.0791  1.3707  0.3809
 6403TIP3    H240701   4.641   1.504  12.012 -0.7338 -1.3837 -1.2038
 6404TIP3   OH240702   1.441   2.880   3.616  0.3911 -0.1368  0.0833
 6404TIP3    H140703   1.484   2.795   3.609  1.5142  0.1742  2.2628
 6404TIP3    H240704   1.506   2.943   3.586  0.3555  0.1075  0.5093
 6405TIP3   OH240705   5.150   4.183   3.558 -0.2110  0.0418 -0.0268
 6405TIP3    H140706   5.181   4.191   3.649  0.0073  0.2375 -0.1177
 6405TIP3    H240707   5.063   4.222   3.559 -0.4866 -0.5635  0.2438
 6406TIP3   OH240708   3.272   2.126   3.697  0.0028 -0.0616 -0.3080
 6406TIP3    H140709   3.273   2.219   3.721  0.6113 -0.2709  0.4972
 6406TIP3    H240710   3.364   2.105   3.679 -0.1138 -0.5544 -0.3267
 6407TIP3   OH240711   1.727   3.047   1.911  0.3136 -0.1911  0.1593
 6407TIP3    H140712   1.734   2.966   1.859 -1.9975 -0.6699  0.5123
 6407TIP3    H240713   1.634   3.058   1.926  0.6379  2.1548  0.8056
 6408TIP3   OH240714   5.397   3.849  16.202  1.0551 -0.2409  0.8739
 6408TIP3    H140715   5.403   3.943  16.218 -1.4608  0.2167 -0.5128
 6408TIP3    H240716   5.313   3.823  16.240  0.4363 -1.3674 -1.1332
 6409TIP3   OH240717   2.142   5.597   5.262  0.2935 -0.3386 -0.3024
 6409TIP3    H140718   2.068   5.609   5.321  0.2288  1.0618 -0.6201
 6409TIP3    H240719   2.153   5.683   5.220  2.2171 -0.4524 -0.1196
 6410TIP3   OH240720   4.808   5.265   0.124 -0.8705  0.2694 -0.5438
 6410TIP3    H140721   4.888   5.212   0.120 -1.1392 -0.0951 -2.0969
 6410TIP3    H240722   4.835   5.352   0.095 -1.0878  0.0184 -1.5780
 6411TIP3   OH240723   2.592   1.499  14.200  0.1103 -0.6757 -0.0249
 6411TIP3    H140724   2.577   1.589  14.228  0.2919 -0.7237  0.2282
 6411TIP3    H240725   2.545   1.445  14.263 -0.2059 -0.7510 -0.3211
 6412TIP3   OH240726   2.491   6.469  16.611  0.3318 -0.5596 -0.3315
 6412TIP3    H140727   2.433   6.531  16.566  0.8013  0.5284  0.4992
 6412TIP3    H240728   2.558   6.525  16.652  2.0387 -1.7717 -1.3381
 6413TIP3   OH240729   6.449   0.574  11.323  0.0878  0.0252 -0.3660
 6413TIP3    H140730   6.467   0.505  11.259  2.1652 -0.9271  1.1401
 6413TIP3    H240731   6.496   0.650  11.291  1.5257 -0.5874  0.2179
 6414TIP3   OH240732   0.223   6.505  10.723  0.5653  0.1425  0.2384
 6414TIP3    H140733   0.187   6.530  10.638  2.0284  2.5038  0.2109
 6414TIP3    H240734   0.169   6.553  10.786  0.1785 -0.7258  0.5737
 6415TIP3   OH240735   3.326   2.151  16.427  0.3292 -0.4886  0.2127
 6415TIP3    H140736   3.239   2.167  16.390  0.0108  1.1125  1.5166
 6415TIP3    H240737   3.387   2.184  16.360  0.0106 -2.2492 -1.0100
 6416TIP3   OH240738   0.675   6.134   3.806 -0.1225  0.6709 -0.2092
 6416TIP3    H140739   0.672   6.095   3.894 -1.5622  1.7947  0.2752
 6416TIP3    H240740   0.583   6.136   3.778  0.4423 -1.3080 -2.5234
 6417TIP3   OH240741   6.410   5.291   4.740  0.2475  0.3434 -0.2485
 6417TIP3    H140742   6.360   5.217   4.706  2.5087 -1.0843 -0.6614
 6417TIP3    H240743   6.443   5.261   4.824 -0.2227  1.5772  0.4042
 6418TIP3   OH240744   3.756   2.889  16.765 -0.1204  0.8283  0.3283
 6418TIP3    H140745   3.808   2.919  16.691 -1.1934  0.4025 -0.6316
 6418TIP3    H240746   3.809   2.819  16.804 -0.2252 -0.0543 -1.0313
 6419TIP3   OH240747   6.266   2.298  14.704  0.1197  0.1973  1.1263
 6419TIP3    H140748   6.336   2.337  14.757 -0.5660  0.2594  2.0044
 6419TIP3    H240749   6.218   2.373  14.669  0.5448  0.1561  0.4226
 6420TIP3   OH240750   3.519   2.637   2.675 -0.0825 -0.0088 -0.4059
 6420TIP3    H140751   3.580   2.660   2.745 -0.3436 -0.8235  0.1075
 6420TIP3    H240752   3.575   2.601   2.606  0.0757 -0.3196 -0.1244
 6421TIP3   OH240753   4.598   1.790  13.827  0.1575  0.0836 -0.2041
 6421TIP3    H140754   4.525   1.727  13.821 -0.0160  0.1418  0.9626
 6421TIP3    H240755   4.594   1.840  13.746 -0.8375 -0.2178 -0.3519
 6422TIP3   OH240756   1.640   1.463  15.107 -0.0118 -0.1512 -0.1530
 6422TIP3    H140757   1.586   1.449  15.029 -0.8758  3.4271 -0.3486
 6422TIP3    H240758   1.655   1.374  15.141 -2.0024 -1.6451 -2.7433
 6423TIP3   OH240759   5.107   4.617  13.553  0.7152  0.1560 -1.0501
 6423TIP3    H140760   5.111   4.532  13.508 -0.3955 -0.6574  0.3020
 6423TIP3    H240761   5.124   4.681  13.484  0.0070 -1.0834 -2.4381
 6424TIP3   OH240762   0.024   5.136  11.577 -0.0309  0.1792 -0.0677
 6424TIP3    H140763   0.093   5.097  11.631  0.2039  0.9758  0.2352
 6424TIP3    H240764  -0.039   5.066  11.565  0.2632 -0.2306  0.6504
 6425TIP3   OH240765   1.013   6.175   0.676  0.0313 -0.2250 -0.5436
 6425TIP3    H140766   0.981   6.253   0.631  2.8934  1.8828  0.7453
 6425TIP3    H240767   0.974   6.181   0.764  1.0242  0.3640 -0.1252
 6426TIP3   OH240768   6.441   1.289   4.931 -0.0566 -0.1090 -0.1634
 6426TIP3    H140769   6.535   1.274   4.943 -0.1520 -1.8392 -1.1821
 6426TIP3    H240770   6.437   1.359   4.866  0.4624  1.4699  1.3998
 6427TIP3   OH240771   1.767   4.618  16.413  0.3647  0.1373  0.0902
 6427TIP3    H140772   1.715   4.688  16.372 -1.0092  0.0103  1.5194
 6427TIP3    H240773   1.847   4.661  16.443 -0.0335  0.8934  0.0901
 6428TIP3   OH240774   5.941   5.649  13.992 -0.0489  0.1348  0.1735
 6428TIP3    H140775   5.974   5.614  13.909  0.9411  0.7307  0.3001
 6428TIP3    H240776   5.977   5.591  14.059  0.4291  0.5578  0.2868
 6429TIP3   OH240777   6.297   6.336   4.161  0.2962  0.0284 -0.1096
 6429TIP3    H140778   6.259   6.282   4.230 -0.2164  0.4060 -0.0855
 6429TIP3    H240779   6.384   6.300   4.146  1.0655  0.9369  1.8844
 6430TIP3   OH240780   2.894   0.490  16.163  0.3296 -0.2876  0.5121
 6430TIP3    H140781   2.832   0.490  16.090  2.0925 -2.1764 -1.0985
 6430TIP3    H240782   2.961   0.553  16.137 -0.5654  1.4484  2.0712
 6431TIP3   OH240783   2.565   4.067   4.982 -0.3172 -0.5262  0.2372
 6431TIP3    H140784   2.644   4.030   5.021 -0.3146 -0.3973  0.3562
 6431TIP3    H240785   2.494   4.037   5.039 -0.3418 -0.5647  0.1850
 6432TIP3   OH240786   5.714   4.528  12.412  0.0093  0.2994  0.2132
 6432TIP3    H140787   5.810   4.529  12.411  0.0556  1.3348 -2.5644
 6432TIP3    H240788   5.689   4.459  12.351 -0.9953  0.8780 -0.0588
 6433TIP3   OH240789   0.113   0.286  12.575  0.0982  0.0618  0.4419
 6433TIP3    H140790   0.045   0.292  12.507 -0.3499 -1.3120  0.7348
 6433TIP3    H240791   0.176   0.355  12.552 -2.0383  2.3022  0.9473
 6434TIP3   OH240792   0.370   6.172   0.734  0.4822 -0.0712  0.0524
 6434TIP3    H140793   0.308   6.172   0.661  0.4300 -0.8537  0.0865
 6434TIP3    H240794   0.375   6.080   0.761  0.0192  0.2934  1.4527
 6435TIP3   OH240795   1.073   4.453  17.069  0.2712  0.5027  0.5715
 6435TIP3    H140796   0.997   4.416  17.114  0.1554  0.6113  0.4659
 6435TIP3    H240797   1.043   4.467  16.979  0.8365 -0.7618  0.1647
 6436TIP3   OH240798   5.595   4.764  15.626 -0.2290 -0.1793 -0.3248
 6436TIP3    H140799   5.663   4.705  15.594  1.2788  1.7463 -0.8299
 6436TIP3    H240800   5.622   4.785  15.716 -0.7828 -0.3089 -0.1268
 6437TIP3   OH240801   1.677   0.275   2.402  0.1895  0.1973 -0.5073
 6437TIP3    H140802   1.759   0.322   2.411  0.1580  0.0392  0.7350
 6437TIP3    H240803   1.631   0.320   2.331  1.0282  0.7405 -0.7111
 6438TIP3   OH240804   6.510   4.943  15.420  0.6026  0.3669  0.3948
 6438TIP3    H140805   6.465   5.002  15.481 -1.4308 -0.6944 -0.0166
 6438TIP3    H240806   6.493   4.979  15.334  0.0938 -0.3110  0.2023
 6439TIP3   OH240807   0.415   3.736   3.300  0.4581  0.2961 -0.4201
 6439TIP3    H140808   0.490   3.685   3.329 -1.2453 -3.3147 -1.6507
 6439TIP3    H240809   0.401   3.709   3.209 -2.8611 -0.0440  0.0491
 6440TIP3   OH240810   2.845   1.842  11.562  0.7964  0.1340 -0.9583
 6440TIP3    H140811   2.865   1.935  11.556  2.5555 -0.1765 -0.5008
 6440TIP3    H240812   2.911   1.800  11.507 -0.4434 -0.8097 -1.7743
 6441TIP3   OH240813   1.282   4.135  10.865 -0.5844 -0.0973  0.0465
 6441TIP3    H140814   1.299   4.217  10.819 -0.2758  0.1320  0.5543
 6441TIP3    H240815   1.276   4.160  10.957  0.8616 -0.8117  0.3662
 6442TIP3   OH240816   2.923   4.060   0.964 -0.5078  0.8307  0.5437
 6442TIP3    H140817   2.978   4.034   0.890  0.0192 -0.5079  1.3796
 6442TIP3    H240818   2.837   4.021   0.946 -0.8466  1.8251 -0.1100
 6443TIP3   OH240819   2.906   4.831  17.171  0.2056 -0.7618  0.5391
 6443TIP3    H140820   2.830   4.863  17.219  0.5267  0.3156  0.3486
 6443TIP3    H240821   2.950   4.910  17.139  1.0336 -1.3902  0.0722
 6444TIP3   OH240822   2.918   2.391  11.624  0.1392  0.1222  0.2223
 6444TIP3    H140823   2.845   2.374  11.683 -0.1539 -0.0094 -0.1755
 6444TIP3    H240824   2.916   2.320  11.561 -0.0428  0.6809 -0.4201
 6445TIP3   OH240825   5.585   1.015   3.317 -0.1375 -0.1380  0.1287
 6445TIP3    H140826   5.536   0.956   3.260 -0.5763 -0.1932  0.5582
 6445TIP3    H240827   5.663   1.039   3.266 -0.5616 -0.1209 -0.5153
 6446TIP3   OH240828   4.969   3.986  13.964 -0.3703 -0.2524  0.0729
 6446TIP3    H140829   4.985   4.025  13.878  0.2188 -1.1190 -0.2250
 6446TIP3    H240830   4.977   3.892  13.949 -0.2673 -0.4084  1.0798
 6447TIP3   OH240831   4.246   0.336   3.227  0.6300 -0.3463  0.2526
 6447TIP3    H140832   4.263   0.395   3.300 -0.3280 -1.6189  1.5699
 6447TIP3    H240833   4.323   0.344   3.171  1.2805  0.8406  1.2675
 6448TIP3   OH240834   4.944   3.591   2.872  0.1174 -0.4441 -0.1197
 6448TIP3    H140835   5.021   3.612   2.819 -0.4345  2.1215 -0.0260
 6448TIP3    H240836   4.971   3.614   2.962  0.9996 -4.5829  0.9046
 6449TIP3   OH240837   4.892   2.398  15.915 -0.2245  0.1232  0.1498
 6449TIP3    H140838   4.801   2.415  15.941 -0.0172  0.6315  0.5556
 6449TIP3    H240839   4.921   2.479  15.873  0.7067  0.7523  1.9081
 6450TIP3   OH240840   4.683   4.011  14.047 -0.5190  0.6241 -0.0988
 6450TIP3    H140841   4.655   3.920  14.053 -0.6222  0.6359 -0.3701
 6450TIP3    H240842   4.777   4.007  14.031 -0.5063  0.5653 -0.0043
 6451TIP3   OH240843   2.354   6.099   5.212  0.1340  0.0269  0.2770
 6451TIP3    H140844   2.270   6.113   5.254 -0.4991  0.4035 -1.0416
 6451TIP3    H240845   2.368   6.178   5.159  0.3113 -0.8888 -1.0995
 6452TIP3   OH240846   2.805   0.539   4.291  0.6842 -0.2219  0.0061
 6452TIP3    H140847   2.794   0.582   4.206  0.2899 -1.6392 -0.7002
 6452TIP3    H240848   2.899   0.529   4.302  0.7109 -0.8721 -0.7301
 6453TIP3   OH240849   0.564   2.077  16.155  0.3738 -1.1772  0.2627
 6453TIP3    H140850   0.618   2.015  16.204  1.4304 -0.3651  0.1740
 6453TIP3    H240851   0.522   2.024  16.088  2.4319 -1.6267 -0.7825
 6454TIP3   OH240852   4.136   4.548   1.320 -0.5144  0.4984 -0.4186
 6454TIP3    H140853   4.068   4.499   1.273 -1.1894  1.3647 -0.3701
 6454TIP3    H240854   4.121   4.640   1.296  0.9992  0.6647 -0.8647
 6455TIP3   OH240855   1.593   4.888  12.475  0.4487  0.2204  0.4465
 6455TIP3    H140856   1.526   4.903  12.541  0.1393  1.2050 -0.0685
 6455TIP3    H240857   1.559   4.815  12.422 -0.1437  0.5959  0.2970
 6456TIP3   OH240858   0.199   2.770   1.181  0.4217 -0.2203  0.0518
 6456TIP3    H140859   0.182   2.700   1.244  1.7954 -0.0956  0.5836
 6456TIP3    H240860   0.272   2.737   1.128  0.0044  0.1359 -0.7653
 6457TIP3   OH240861   1.511   6.091   1.193  0.6756 -0.8070  0.1966
 6457TIP3    H140862   1.501   6.131   1.279  0.4715  1.4559 -0.7965
 6457TIP3    H240863   1.432   6.037   1.182 -0.5039  0.7687  0.5148
 6458TIP3   OH240864   0.221   4.756   2.116 -0.0649  0.8564  0.1076
 6458TIP3    H140865   0.249   4.833   2.067  0.1871 -0.4283 -1.8930
 6458TIP3    H240866   0.296   4.697   2.113 -1.2451 -0.6550 -1.0446
 6459TIP3   OH240867   0.959   4.016   3.371  0.1535  0.6521  0.0205
 6459TIP3    H140868   0.974   3.931   3.330 -0.3492  0.2987  0.5504
 6459TIP3    H240869   1.044   4.039   3.409 -0.3251 -0.9416  2.2702
 6460TIP3   OH240870   6.061   2.325   2.767 -0.0184 -0.0328  0.3957
 6460TIP3    H140871   6.071   2.233   2.790  2.7102  0.6014  2.2021
 6460TIP3    H240872   5.968   2.335   2.747 -0.1354 -3.5014 -1.5876
 6461TIP3   OH240873   5.966   4.824  13.695 -0.7887 -0.6583 -0.5425
 6461TIP3    H140874   5.882   4.869  13.703 -0.3373 -0.1275  2.4866
 6461TIP3    H240875   6.011   4.870  13.623 -2.3836  0.2069 -1.0246
 6462TIP3   OH240876   1.316   2.534  10.532 -0.7515 -0.1530 -0.3203
 6462TIP3    H140877   1.373   2.472  10.576 -1.2423  0.2457  0.9007
 6462TIP3    H240878   1.266   2.481  10.470 -0.0170 -0.7069 -0.4498
 6463TIP3   OH240879   4.438   6.657   0.288 -0.2878 -0.9691  0.1763
 6463TIP3    H140880   4.513   6.604   0.262 -1.5370 -3.6470  1.6802
 6463TIP3    H240881   4.446   6.665   0.383 -1.3959 -0.4839  0.2443
 6464TIP3   OH240882   5.498   3.607  16.315 -0.0386 -0.9282 -0.3498
 6464TIP3    H140883   5.451   3.686  16.291 -0.0618 -0.9797 -0.4726
 6464TIP3    H240884   5.582   3.639  16.349  1.1161 -0.9360 -2.9543
 6465TIP3   OH240885   2.389   0.145  13.767 -0.5504 -0.4470 -0.3606
 6465TIP3    H140886   2.395   0.109  13.679 -1.6076 -0.3917 -0.4616
 6465TIP3    H240887   2.297   0.134  13.792 -0.1921 -0.8040  0.8773
 6466TIP3   OH240888   3.680   0.659  14.787 -0.5945 -0.2425 -0.2328
 6466TIP3    H140889   3.624   0.734  14.768 -2.8928 -1.0849  2.4649
 6466TIP3    H240890   3.742   0.657  14.715 -2.4880  2.2677 -2.1425
 6467TIP3   OH240891   5.829   6.480  11.282 -0.1709  0.0928  0.0771
 6467TIP3    H140892   5.741   6.452  11.255 -0.4659  0.8543  0.2079
 6467TIP3    H240893   5.813   6.555  11.340  0.5898  0.9164 -0.7360
 6468TIP3   OH240894   2.645   0.874  13.534  0.3684  0.1811  0.2039
 6468TIP3    H140895   2.712   0.807  13.544  0.8782  0.7527  0.7063
 6468TIP3    H240896   2.689   0.946  13.488 -0.7920 -0.7226 -2.5356
 6469TIP3   OH240897   1.610   1.718  14.994  0.8906  0.0523  0.2570
 6469TIP3    H140898   1.635   1.627  15.007 -1.8845 -0.4881  3.1626
 6469TIP3    H240899   1.679   1.769  15.037  0.1062 -1.0339  3.0076
 6470TIP3   OH240900   2.703   0.378   4.534  0.1262 -0.2113 -0.1396
 6470TIP3    H140901   2.639   0.430   4.486  0.6091  0.8406  0.3107
 6470TIP3    H240902   2.751   0.331   4.467 -3.3693 -3.9301 -0.4131
 6471TIP3   OH240903   5.503   4.559  15.879 -0.5657 -0.0565  0.4872
 6471TIP3    H140904   5.583   4.507  15.885 -2.1396 -2.5850  0.6951
 6471TIP3    H240905   5.508   4.619  15.953  0.9246 -0.4154  0.7185
 6472TIP3   OH240906   1.411   2.783  10.608  0.1991  0.3030  0.0710
 6472TIP3    H140907   1.396   2.689  10.597  2.5945 -0.1765  0.3681
 6472TIP3    H240908   1.343   2.824  10.555 -0.0613 -1.6275 -1.1927
 6473TIP3   OH240909   5.854   1.284  14.531  0.4205 -0.6317 -0.3178
 6473TIP3    H140910   5.791   1.275  14.459 -0.4148 -0.9490  0.4365
 6473TIP3    H240911   5.927   1.227  14.507  0.5418 -0.0783 -1.3177
 6474TIP3   OH240912   4.131   1.194  16.545  0.0764  0.0713 -0.1293
 6474TIP3    H140913   4.042   1.226  16.533  0.4033  0.6175 -1.2390
 6474TIP3    H240914   4.155   1.222  16.633 -1.0433 -0.6069  0.4228
 6475TIP3   OH240915   6.568   0.683  11.647 -0.0777 -0.9522 -0.1465
 6475TIP3    H140916   6.477   0.673  11.619 -0.0675 -1.2617 -0.0637
 6475TIP3    H240917   6.600   0.759  11.598 -0.2044 -1.2016 -0.6167
 6476TIP3   OH240918   3.378   3.717   5.091  0.6454 -0.1167 -0.3594
 6476TIP3    H140919   3.370   3.669   5.173 -1.1947  1.3858  0.4319
 6476TIP3    H240920   3.470   3.744   5.087  0.7217 -0.0280  1.3306
 6477TIP3   OH240921   3.505   1.381   5.128 -0.1390  0.4409 -0.2447
 6477TIP3    H140922   3.517   1.441   5.055  1.2069 -1.8204 -2.0054
 6477TIP3    H240923   3.422   1.338   5.111 -1.1332  1.7306  1.0489
 6478TIP3   OH240924   6.497   2.853   5.853  0.5376  0.0551  0.7629
 6478TIP3    H140925   6.498   2.762   5.823  0.6035 -0.7764  3.0598
 6478TIP3    H240926   6.435   2.853   5.926  0.6374  1.8512  0.8883
 6479TIP3   OH240927   4.329   4.924  13.568  0.0032 -0.9507 -0.0696
 6479TIP3    H140928   4.346   4.888  13.481  0.2819  0.2076 -0.5121
 6479TIP3    H240929   4.330   5.019  13.555  0.4473 -0.7554  1.2778
 6480TIP3   OH240930   0.200   6.270   1.601 -0.1519  0.3811 -0.4736
 6480TIP3    H140931   0.253   6.213   1.655 -0.4231  1.8226  1.4186
 6480TIP3    H240932   0.253   6.349   1.589 -1.3251  1.3634  0.4484
 6481TIP3   OH240933   0.865   5.360  11.951  0.3101 -0.0374 -0.3874
 6481TIP3    H140934   0.811   5.399  11.882 -1.2890 -1.0309  0.2445
 6481TIP3    H240935   0.804   5.345  12.023  1.9979  1.2264  1.3763
 6482TIP3   OH240936   3.462   5.774  16.236  0.8057  0.0770 -0.1773
 6482TIP3    H140937   3.391   5.832  16.262 -0.0819 -1.5444  1.1662
 6482TIP3    H240938   3.529   5.785  16.304  0.3089 -0.9823  0.5150
 6483TIP3   OH240939   1.763   6.118  14.460  0.5434 -0.5220  0.0364
 6483TIP3    H140940   1.830   6.172  14.501 -0.9641 -1.1135  3.7040
 6483TIP3    H240941   1.692   6.179  14.440  0.4615 -0.5159  0.3332
 6484TIP3   OH240942   5.093   0.724  16.077  0.6550 -0.7806 -0.0029
 6484TIP3    H140943   5.089   0.688  15.988 -0.5098 -0.8684  0.0681
 6484TIP3    H240944   5.150   0.663  16.125  2.1106 -0.1918 -0.9078
 6485TIP3   OH240945   2.797   3.667  12.719  0.3238 -0.2994  0.4467
 6485TIP3    H140946   2.872   3.725  12.736  2.1507 -1.8005 -1.7925
 6485TIP3    H240947   2.753   3.708  12.644 -2.0600  1.3111  2.5772
 6486TIP3   OH240948   2.214   5.676  15.397 -0.4254  0.5550  0.0960
 6486TIP3    H140949   2.306   5.693  15.379 -0.1658 -1.2099 -0.4581
 6486TIP3    H240950   2.177   5.652  15.312 -1.7924  2.6483  0.0126
 6487TIP3   OH240951   2.423   3.838  16.424 -0.0135 -0.2233 -0.0381
 6487TIP3    H140952   2.471   3.756  16.417  0.4676 -0.0324  0.9499
 6487TIP3    H240953   2.482   3.904  16.387  0.8745  0.1473  1.9462
 6488TIP3   OH240954   3.138   0.716   3.125 -0.3584 -0.1351  0.2424
 6488TIP3    H140955   3.122   0.773   3.050 -1.8012 -0.9883 -0.1414
 6488TIP3    H240956   3.190   0.769   3.185  0.5695  0.6745 -1.2131
 6489TIP3   OH240957   0.295   2.413  16.201  0.1791 -0.3408 -0.4720
 6489TIP3    H140958   0.379   2.368  16.191  0.9316  1.0394 -0.6942
 6489TIP3    H240959   0.310   2.475  16.272 -0.6686 -0.1092 -0.4861
 6490TIP3   OH240960   3.783   5.624  15.083 -0.0725  0.3895 -0.2808
 6490TIP3    H140961   3.809   5.651  14.995  1.4428  2.4764  0.7339
 6490TIP3    H240962   3.865   5.606  15.128 -0.8181 -0.4613  0.7877
 6491TIP3   OH240963   6.714   1.889   4.386 -0.3089 -0.6165 -0.0597
 6491TIP3    H140964   6.696   1.903   4.479  1.5770  0.7093  0.1616
 6491TIP3    H240965   6.628   1.897   4.344 -1.1499 -0.9392  1.5227
 6492TIP3   OH240966   6.560   4.920  13.960 -0.6092 -0.3111 -0.3492
 6492TIP3    H140967   6.530   4.829  13.963 -0.5129 -0.3318  0.0082
 6492TIP3    H240968   6.492   4.966  13.910 -1.3832 -0.3060  0.6758
 6493TIP3   OH240969   4.838   1.635   3.009 -0.3665 -0.5696 -0.0755
 6493TIP3    H140970   4.782   1.630   2.931  0.0737  1.8595 -0.6137
 6493TIP3    H240971   4.918   1.676   2.978  0.7933 -1.7645  1.2122
 6494TIP3   OH240972   6.818   6.796   3.034 -0.1171 -0.2853 -0.4742
 6494TIP3    H140973   6.825   6.749   2.951  0.6589  0.4516 -0.8508
 6494TIP3    H240974   6.736   6.846   3.027  0.5200  0.6939 -1.3156
 6495TIP3   OH240975   4.130   6.081   4.785  0.2249  0.4357  0.0706
 6495TIP3    H140976   4.166   6.061   4.871  0.1382  1.4557  0.3541
 6495TIP3    H240977   4.094   6.170   4.793 -1.3170 -0.0931 -0.5377
 6496TIP3   OH240978   2.865   0.689   3.374  0.2146  0.4004 -0.0186
 6496TIP3    H140979   2.952   0.725   3.392 -0.1442  0.7021  1.1917
 6496TIP3    H240980   2.840   0.645   3.455 -0.0186 -1.2679 -0.9498
 6497TIP3   OH240981   5.146   5.465   4.848  0.3291 -0.5240  0.1979
 6497TIP3    H140982   5.083   5.536   4.850 -0.6100 -0.9279 -4.3171
 6497TIP3    H240983   5.093   5.385   4.853  0.8634 -0.8876  0.2079
 6498TIP3   OH240984   1.065   0.177   1.681 -0.7110  0.5969  0.3267
 6498TIP3    H140985   1.139   0.159   1.740 -0.0225  0.3746 -0.5907
 6498TIP3    H240986   1.022   0.093   1.670 -0.5647  0.5466  0.1422
 6499TIP3   OH240987   0.089   6.708   5.297  0.3076  0.2065  0.6924
 6499TIP3    H140988   0.166   6.660   5.329  0.6870  0.4978  0.2383
 6499TIP3    H240989   0.111   6.730   5.206 -0.0991  0.7472  0.7196
 6500TIP3   OH240990   6.709   4.282   4.911  0.3396 -0.2369 -0.0142
 6500TIP3    H140991   6.672   4.269   4.998  1.3381 -0.1817  0.4380
 6500TIP3    H240992   6.754   4.200   4.891 -2.8889 -1.7323 -2.0932
 6501TIP3   OH240993   3.706   2.324   0.202  0.2988 -0.0394 -0.3681
 6501TIP3    H140994   3.731   2.323   0.294  1.2379 -1.7146 -0.5897
 6501TIP3    H240995   3.611   2.320   0.203  0.2234  1.2561  0.5066
 6502TIP3   OH240996   4.726   4.506  10.902  0.2105  0.0722  0.1124
 6502TIP3    H140997   4.794   4.440  10.913  0.2660  0.2674  1.0792
 6502TIP3    H240998   4.761   4.567  10.838  1.1645  0.4214  0.9362
 6503TIP3   OH240999   4.243   3.515  13.847 -0.6481 -0.2471 -0.2294
 6503TIP3    H141000   4.321   3.463  13.825 -0.4782 -0.0736 -0.0456
 6503TIP3    H241001   4.277   3.588  13.899 -0.7918  0.4105 -1.0229
 6504TIP3   OH241002   6.655   5.293  11.348  0.9464  0.2819 -0.0535
 6504TIP3    H141003   6.665   5.265  11.439  0.9434  1.2760  0.2609
 6504TIP3    H241004   6.594   5.230  11.311 -0.0754  0.6094  0.9946
 6505TIP3   OH241005   1.458   4.830  14.959  0.5545 -0.0606 -0.8408
 6505TIP3    H141006   1.447   4.888  15.034 -0.4522  0.6308 -1.4949
 6505TIP3    H241007   1.553   4.830  14.943  0.6493  0.8308 -0.3844
 6506TIP3   OH241008   5.131   1.106  12.000 -0.6417  0.5823 -0.3665
 6506TIP3    H141009   5.170   1.159  12.070  0.4656  1.8395 -1.8528
 6506TIP3    H241010   5.119   1.020  12.040  5.4680 -0.6106 -0.0915
 6507TIP3   OH241011   3.370   0.901  14.093 -0.1423 -0.7873 -0.1852
 6507TIP3    H141012   3.281   0.931  14.074 -1.2924 -1.8035  2.8987
 6507TIP3    H241013   3.409   0.974  14.142  0.7707 -0.3438 -1.5329
 6508TIP3   OH241014   0.974   0.305  12.587  0.0929  0.3752 -0.2195
 6508TIP3    H141015   0.933   0.305  12.673 -0.7903  1.6202 -0.6164
 6508TIP3    H241016   0.925   0.239  12.537  0.4474 -0.1728  0.1547
 6509TIP3   OH241017   4.457   6.662   5.235  0.3601 -0.0172 -0.0220
 6509TIP3    H141018   4.373   6.616   5.237  0.2786  0.0359 -1.3575
 6509TIP3    H241019   4.440   6.739   5.181  0.6630  1.2636  1.6435
 6510TIP3   OH241020   3.615   1.902  15.749  0.3170 -0.0074  0.1737
 6510TIP3    H141021   3.658   1.981  15.780 -1.7245  2.6436 -3.1252
 6510TIP3    H241022   3.681   1.857  15.696  0.7248  0.8380 -0.0410
 6511TIP3   OH241023   3.656   4.156   5.896  0.3448 -0.1946 -0.0449
 6511TIP3    H141024   3.658   4.218   5.824 -1.6809 -0.2532 -0.2045
 6511TIP3    H241025   3.586   4.187   5.953  0.4634 -1.3615  0.7838
 6512TIP3   OH241026   2.816   4.667  12.626  0.8414 -0.1342 -0.3434
 6512TIP3    H141027   2.806   4.618  12.544 -0.4232 -1.2456  0.4260
 6512TIP3    H241028   2.777   4.752  12.608  1.3739 -0.0465 -1.1467
 6513TIP3   OH241029   0.237   1.162  17.177  0.3384 -0.3501  0.4365
 6513TIP3    H141030   0.306   1.179  17.241  3.0674 -2.0068 -1.8279
 6513TIP3    H241031   0.227   1.067  17.177 -0.4589 -0.2871 -0.7293
 6514TIP3   OH241032   2.691   6.772  12.812 -0.0045  0.3494  0.3289
 6514TIP3    H141033   2.676   6.707  12.882  1.0172  0.3274  0.5380
 6514TIP3    H241034   2.710   6.719  12.735 -0.7667  0.3816  0.1115
 6515TIP3   OH241035   5.450   4.116  14.303 -0.4979 -0.5355  0.7928
 6515TIP3    H141036   5.431   4.064  14.381  0.9186 -0.9015  0.9317
 6515TIP3    H241037   5.541   4.143  14.314 -1.3208  2.4705  0.9753
 6516TIP3   OH241038   3.016   6.561  16.840  0.0286  0.3755  0.0662
 6516TIP3    H141039   3.022   6.554  16.744  1.0295  1.4305  0.0167
 6516TIP3    H241040   3.102   6.532  16.871 -0.4881 -0.5103  0.6928
 6517TIP3   OH241041   3.282   6.423  13.079  0.3544  0.0332 -0.0450
 6517TIP3    H141042   3.194   6.388  13.064  0.1919  0.1857  0.5449
 6517TIP3    H241043   3.294   6.488  13.010  0.4005 -0.7017 -0.7463
 6518TIP3   OH241044   4.282   6.843  15.954  0.3822  0.2461 -0.1442
 6518TIP3    H141045   4.311   6.815  15.868  0.2446 -1.0338  0.2057
 6518TIP3    H241046   4.212   6.782  15.977 -0.7754  1.6274  0.1509
 6519TIP3   OH241047   4.789   2.242   6.177 -0.0942  0.2343 -0.1413
 6519TIP3    H141048   4.805   2.336   6.171  0.0343  0.1436 -1.4281
 6519TIP3    H241049   4.695   2.233   6.164 -0.3912  0.3080  1.7485
 6520TIP3   OH241050   0.107   5.177  12.575  0.3661  0.1736 -0.6105
 6520TIP3    H141051   0.155   5.102  12.540  0.5701 -0.1184  0.2825
 6520TIP3    H241052   0.151   5.253  12.537  1.4326 -0.0937  0.0394
 6521TIP3   OH241053   5.023   1.220   4.174 -0.1958 -0.5161 -0.1125
 6521TIP3    H141054   5.108   1.187   4.204 -0.0077 -0.5954 -0.7209
 6521TIP3    H241055   5.042   1.261   4.090 -0.5045  0.7608  0.4163
 6522TIP3   OH241056   2.808   5.297   5.658 -0.2981 -0.2568  0.5774
 6522TIP3    H141057   2.835   5.385   5.688  1.1658 -0.6009  0.3630
 6522TIP3    H241058   2.883   5.241   5.679 -0.0964 -0.9422 -1.7078
 6523TIP3   OH241059   6.647   4.049   2.834  0.3208  0.0318  0.1665
 6523TIP3    H141060   6.588   4.115   2.872 -1.2026 -1.2591  0.1573
 6523TIP3    H241061   6.694   4.013   2.909 -0.4765 -0.3883  0.4864
 6524TIP3   OH241062   3.093   1.931  17.153  0.3885 -0.4297  0.8554
 6524TIP3    H141063   3.171   1.983  17.134 -0.9028  1.0628 -0.6978
 6524TIP3    H241064   3.106   1.849  17.104 -0.1540  0.9155 -1.7209
 6525TIP3   OH241065   4.063   4.589  14.508 -0.3781 -0.2589  0.4258
 6525TIP3    H141066   4.120   4.532  14.456 -0.6494 -2.6088  2.5273
 6525TIP3    H241067   4.024   4.648  14.444  0.3322 -2.0867 -1.8338
 6526TIP3   OH241068   6.327   2.985   4.606 -0.0556  0.1404 -0.0251
 6526TIP3    H141069   6.320   2.900   4.563 -1.3253  0.0105  0.3954
 6526TIP3    H241070   6.301   2.968   4.697 -2.0324  1.2712 -0.3255
 6527TIP3   OH241071   5.638   4.699   5.856 -0.0221  0.3818  0.0605
 6527TIP3    H141072   5.580   4.739   5.792 -0.5107  0.2780  0.4341
 6527TIP3    H241073   5.725   4.732   5.834 -0.4655  2.0528  0.6503
 6528TIP3   OH241074   4.831   0.042  12.319 -0.8269  0.2685  0.4164
 6528TIP3    H141075   4.751  -0.010  12.332 -0.3696 -0.1068  1.9255
 6528TIP3    H241076   4.833   0.102  12.394  1.7160 -1.6116  1.9779
 6529TIP3   OH241077   2.595   5.963  16.632  0.5519 -0.1123 -0.0865
 6529TIP3    H141078   2.596   5.935  16.541  0.3133 -2.5133  0.6008
 6529TIP3    H241079   2.679   6.006  16.645  1.0041 -0.6305 -1.1794
 6530TIP3   OH241080   5.464   0.932   1.054 -0.6066  0.6271 -0.1857
 6530TIP3    H141081   5.421   0.914   1.137  0.5944 -0.9186  0.1537
 6530TIP3    H241082   5.393   0.935   0.990 -1.4177  0.4366  0.6808
 6531TIP3   OH241083   5.928   5.003  14.629  0.1545 -0.5321  0.1973
 6531TIP3    H141084   5.893   5.065  14.564  0.0365  0.6136  1.3070
 6531TIP3    H241085   5.887   5.029  14.711  3.2224  0.6412  1.4984
 6532TIP3   OH241086   2.287   3.646  13.303  0.3072  0.7341  0.1310
 6532TIP3    H141087   2.225   3.581  13.334  0.5329  0.9222  1.0105
 6532TIP3    H241088   2.335   3.674  13.381  0.2453  1.9284 -0.2225
 6533TIP3   OH241089   4.854   1.494  13.955  0.0530 -0.2010  0.3532
 6533TIP3    H141090   4.927   1.556  13.945  0.2498  0.1413  3.0449
 6533TIP3    H241091   4.862   1.463  14.045 -0.7891 -3.2805 -0.5220
 6534TIP3   OH241092   5.685   0.528  12.425 -0.7159  0.2014  0.0772
 6534TIP3    H141093   5.697   0.433  12.424 -0.5070  0.1784  1.7825
 6534TIP3    H241094   5.591   0.541  12.437 -0.9504  0.2541 -1.5965
 6535TIP3   OH241095   1.364   5.088   6.290 -0.2998  0.2333  0.0717
 6535TIP3    H141096   1.397   5.048   6.210 -1.3861  0.2175 -0.3881
 6535TIP3    H241097   1.319   5.168   6.261 -3.4164 -1.3249  0.2316
 6536TIP3   OH241098   6.481   4.067   0.726 -0.4569 -0.2458  0.1405
 6536TIP3    H141099   6.558   4.018   0.698 -0.0396  0.9524 -0.9019
 6536TIP3    H241100   6.442   4.013   0.796  2.4131  0.0472  2.1355
 6537TIP3   OH241101   3.315   5.820   2.529  1.2040  0.0457  0.4812
 6537TIP3    H141102   3.383   5.753   2.523  0.9745 -0.3570  1.9377
 6537TIP3    H241103   3.255   5.799   2.457  0.8547 -1.6689  1.2052
 6538TIP3   OH241104   5.370   5.893   6.236  0.1293 -0.1759 -0.2587
 6538TIP3    H141105   5.411   5.836   6.170  0.6299  0.0962 -0.1820
 6538TIP3    H241106   5.319   5.955   6.184  0.5546  0.0636 -0.3965
 6539TIP3   OH241107   4.616   2.380  12.048 -0.0008 -0.1502 -0.0413
 6539TIP3    H141108   4.596   2.288  12.032  0.9038 -0.2923 -0.4291
 6539TIP3    H241109   4.559   2.428  11.987  0.0913 -0.4845 -0.3918
 6540TIP3   OH241110   0.467   6.227  13.821  0.4105 -0.3421 -0.1707
 6540TIP3    H141111   0.389   6.187  13.783  0.5608 -0.2221 -0.6129
 6540TIP3    H241112   0.522   6.153  13.847 -0.2707 -0.4412  1.0433
 6541TIP3   OH241113   3.364   0.387  13.637  0.5607  0.3473  0.5555
 6541TIP3    H141114   3.356   0.474  13.676  0.7374  0.1369  1.0864
 6541TIP3    H241115   3.427   0.398  13.566 -2.1042  1.4173 -1.8286
 6542TIP3   OH241116   3.032   2.871   2.978 -0.0407  0.1678 -0.1355
 6542TIP3    H141117   3.108   2.813   2.992 -0.6487 -0.3206  1.4045
 6542TIP3    H241118   2.961   2.812   2.954 -0.2973  0.4476 -0.0626
 6543TIP3   OH241119   2.765   0.096  14.328  0.0455 -0.3722 -0.0804
 6543TIP3    H141120   2.801   0.051  14.404  0.1020 -1.0594 -0.4961
 6543TIP3    H241121   2.829   0.164  14.306  1.6342 -2.1724 -1.3843
 6544TIP3   OH241122   1.350   1.948  12.238  0.3848 -0.1087 -0.1064
 6544TIP3    H141123   1.429   1.994  12.210  0.7011 -1.1028 -0.8924
 6544TIP3    H241124   1.382   1.871  12.286 -0.1371  0.6949  1.6191
 6545TIP3   OH241125   1.240   2.082  14.607  0.5516 -0.2878  0.1928
 6545TIP3    H141126   1.268   2.145  14.674  2.8569 -1.3853  0.3432
 6545TIP3    H241127   1.145   2.074  14.620  0.6342  1.0944  1.9588
 6546TIP3   OH241128   4.985   1.378  16.313  0.4251 -0.8489  0.3888
 6546TIP3    H141129   4.911   1.439  16.320  0.7429 -0.5874  1.8937
 6546TIP3    H241130   5.055   1.431  16.273 -0.4261 -1.3702 -1.9743
 6547TIP3   OH241131   3.164   6.009   3.005 -0.6634 -0.0391 -0.1239
 6547TIP3    H141132   3.136   5.919   2.988 -2.7324  0.5565 -0.1679
 6547TIP3    H241133   3.098   6.063   2.961 -0.0106  1.5096  0.7099
 6548TIP3   OH241134   4.385   6.450  11.336 -0.4380  0.4634 -0.4422
 6548TIP3    H141135   4.377   6.355  11.342  0.7790  0.2861 -1.3933
 6548TIP3    H241136   4.462   6.465  11.281 -1.0831  1.9936 -0.9889
 6549TIP3   OH241137   5.836   0.341  12.822  0.7787 -0.3659 -0.1533
 6549TIP3    H141138   5.861   0.249  12.829  0.3297 -0.4072  1.1675
 6549TIP3    H241139   5.767   0.352  12.887  1.2295  1.0389  0.1203
 6550TIP3   OH241140   4.252   1.148  12.492  0.1069 -0.0966 -0.4674
 6550TIP3    H141141   4.248   1.053  12.479 -0.0911 -0.2886  0.8732
 6550TIP3    H241142   4.178   1.182  12.441  0.2054 -0.6453 -0.9955
 6551TIP3   OH241143   3.582   3.023  16.961  0.6125 -0.2900  0.0184
 6551TIP3    H141144   3.634   2.963  16.908  0.6797 -1.1733  1.0445
 6551TIP3    H241145   3.645   3.088  16.993  1.1354 -1.3508  1.2536
 6552TIP3   OH241146   6.150   4.247   5.453 -0.4090 -0.1773  0.3401
 6552TIP3    H141147   6.177   4.330   5.413 -1.5512 -0.7853 -1.8623
 6552TIP3    H241148   6.074   4.270   5.507  0.1339  0.4181  0.8586
 6553TIP3   OH241149   6.499   5.306  11.823 -0.1064  0.1805  0.1977
 6553TIP3    H141150   6.422   5.343  11.778 -1.2456 -0.8480  1.2107
 6553TIP3    H241151   6.499   5.348  11.909  0.7295  0.4778  0.0593
 6554TIP3   OH241152   2.259   5.669   0.723  0.0206 -0.0329  0.5657
 6554TIP3    H141153   2.211   5.682   0.805 -0.0070  0.6236  0.4520
 6554TIP3    H241154   2.198   5.696   0.655 -0.8079 -2.7355  0.1315
 6555TIP3   OH241155   2.116   0.856  12.540  0.0154 -0.9114 -0.6262
 6555TIP3    H141156   2.068   0.831  12.619  0.3166 -0.8674 -0.4244
 6555TIP3    H241157   2.206   0.827  12.557  0.4890  0.7029 -0.1783
 6556TIP3   OH241158   5.354   4.631   1.326 -0.1595  0.2097  1.0924
 6556TIP3    H141159   5.259   4.621   1.330 -0.0885 -0.8823  0.3784
 6556TIP3    H241160   5.367   4.720   1.293 -0.9931 -0.4956 -1.2887
 6557TIP3   OH241161   2.213   2.113   0.593  0.1787  0.4640 -0.0261
 6557TIP3    H141162   2.238   2.176   0.526  0.1340  0.5148  0.0042
 6557TIP3    H241163   2.141   2.156   0.640  1.8044  1.4801  1.6542
 6558TIP3   OH241164   3.130   3.815   5.076 -0.1827 -0.0521  0.2703
 6558TIP3    H141165   3.221   3.791   5.054  0.0494 -0.1759  1.3467
 6558TIP3    H241166   3.138   3.868   5.155 -1.0540 -0.0511  0.3591
 6559TIP3   OH241167   5.342   4.889   2.091  0.4654  0.4901 -0.2843
 6559TIP3    H141168   5.295   4.874   2.173  1.0997  0.6996  0.1296
 6559TIP3    H241169   5.383   4.804   2.071 -0.1267  0.2917 -0.6757
 6560TIP3   OH241170   0.669   3.987   0.302 -0.1175 -0.5426 -0.2972
 6560TIP3    H141171   0.745   4.017   0.253 -1.3457 -0.5260 -2.3168
 6560TIP3    H241172   0.696   3.905   0.343  1.2722 -0.0155 -0.1370
 6561TIP3   OH241173   3.263   4.774  16.650  0.4068  0.7984 -0.2596
 6561TIP3    H141174   3.230   4.862  16.633 -0.1151  0.3317 -1.8660
 6561TIP3    H241175   3.191   4.716  16.627  1.4656 -0.1323 -1.3928
 6562TIP3   OH241176   2.092   0.657  13.329 -0.3396  0.1767  0.2879
 6562TIP3    H141177   2.059   0.637  13.242 -1.0680  0.3508  0.5115
 6562TIP3    H241178   2.185   0.672  13.317 -0.1337 -1.3550 -0.2005
 6563TIP3   OH241179   3.507   3.561  10.960  0.1487  0.3906  0.4448
 6563TIP3    H141180   3.506   3.643  10.911  0.7168 -0.8667 -1.8152
 6563TIP3    H241181   3.419   3.525  10.948  0.6321 -0.4777 -0.7471
 6564TIP3   OH241182   1.276   0.464  13.280 -0.0902 -0.0324  0.1081
 6564TIP3    H141183   1.183   0.445  13.265 -0.6228  1.8630  0.7365
 6564TIP3    H241184   1.306   0.501  13.197 -0.8243  2.4783  0.8715
 6565TIP3   OH241185   6.508   0.015  14.984 -0.1778 -0.0553  0.0140
 6565TIP3    H141186   6.544   0.056  15.062 -0.5846 -1.0048  0.7236
 6565TIP3    H241187   6.536  -0.076  14.990  2.0575  0.3442 -2.3319
 6566TIP3   OH241188   1.493   0.807   2.025  0.0610  0.0068  0.4390
 6566TIP3    H141189   1.516   0.818   1.933 -0.7333 -0.3740  0.1871
 6566TIP3    H241190   1.400   0.830   2.030 -0.4870 -2.0577  0.7205
 6567TIP3   OH241191   5.526   6.463  11.529 -0.0832  0.1164  0.3144
 6567TIP3    H141192   5.522   6.425  11.617  2.3645  1.0631  0.9013
 6567TIP3    H241193   5.435   6.458  11.498 -0.7012 -1.8918  2.1417
 6568TIP3   OH241194   6.785   5.440   0.145 -0.2212 -0.2860  0.2379
 6568TIP3    H141195   6.862   5.477   0.188  0.0689 -0.1311 -0.4002
 6568TIP3    H241196   6.819   5.401   0.064 -0.9080  0.4196 -0.4056
 6569TIP3   OH241197   6.500   5.827  12.536 -0.4164 -0.7119 -0.6621
 6569TIP3    H141198   6.549   5.766  12.592 -1.2493  0.3476  1.3112
 6569TIP3    H241199   6.409   5.799  12.544 -0.8342  0.8341  0.3946
 6570TIP3   OH241200   0.182   6.514   2.888  0.4351  0.4581  0.0591
 6570TIP3    H141201   0.214   6.452   2.823  0.9941 -1.0095  1.6624
 6570TIP3    H241202   0.115   6.564   2.842  0.7561 -0.5646 -1.6124
 6571TIP3   OH241203   2.807   0.909  16.083  0.5923 -0.0050 -0.2401
 6571TIP3    H141204   2.828   0.953  16.001 -1.3096  0.4643 -0.5246
 6571TIP3    H241205   2.720   0.942  16.106 -0.7967 -3.2962 -0.2674
 6572TIP3   OH241206   5.898   3.793   3.854  0.3153 -0.2515  0.4845
 6572TIP3    H141207   5.870   3.855   3.786 -1.9445 -0.1350  1.4075
 6572TIP3    H241208   5.853   3.711   3.832  1.1077 -0.7760  0.7795
 6573TIP3   OH241209   0.355   3.230  12.005 -0.6113 -0.0101 -0.2457
 6573TIP3    H141210   0.352   3.325  12.004 -0.2474  0.0030 -1.1062
 6573TIP3    H241211   0.422   3.208  12.070 -0.1314  0.3429 -0.6153
 6574TIP3   OH241212   3.521   5.669  15.073 -0.4952 -0.5427 -0.4730
 6574TIP3    H141213   3.610   5.634  15.069 -0.3040  0.0361 -1.6431
 6574TIP3    H241214   3.466   5.598  15.039 -0.2545 -0.2452 -1.5397
 6575TIP3   OH241215   5.127   0.491  14.566 -0.5720  0.4119  0.2838
 6575TIP3    H141216   5.099   0.525  14.481 -0.8124  0.2661  0.3039
 6575TIP3    H241217   5.213   0.453  14.550 -0.8918 -0.1837 -0.0315
 6576TIP3   OH241218   5.735   6.686   5.234  0.2512  0.1698  0.0077
 6576TIP3    H141219   5.812   6.738   5.255 -0.1687  0.5920  0.5292
 6576TIP3    H241220   5.661   6.742   5.255 -0.2118  0.1166 -1.3507
 6577TIP3   OH241221   6.307   2.977  11.715  0.0219  0.3537 -0.0093
 6577TIP3    H141222   6.240   2.972  11.783  1.6089 -2.2223  1.5168
 6577TIP3    H241223   6.258   2.979  11.633 -1.9128  0.0271  1.0850
 6578TIP3   OH241224   4.958   1.274   3.723  0.3435  0.1211  0.6430
 6578TIP3    H141225   4.946   1.179   3.729 -1.7816  0.2006 -1.1743
 6578TIP3    H241226   5.018   1.285   3.649  0.7898  0.2098  1.0122
 6579TIP3   OH241227   3.401   0.986  14.507 -0.3165 -0.2378  0.7129
 6579TIP3    H141228   3.338   0.941  14.451 -0.4626 -0.6064  1.1636
 6579TIP3    H241229   3.348   1.022  14.579  0.0243 -0.9106  1.3201
 6580TIP3   OH241230   2.433   1.852  13.714  0.0463  0.4068  0.4635
 6580TIP3    H141231   2.487   1.807  13.649  0.1942  2.7741 -1.1903
 6580TIP3    H241232   2.390   1.782  13.762  1.9659 -1.4990 -0.4233
 6581TIP3   OH241233   3.232   3.776  12.349  0.0316  0.4710 -0.0976
 6581TIP3    H141234   3.205   3.741  12.264  0.6520  0.9414 -0.4930
 6581TIP3    H241235   3.324   3.799  12.338  0.1890  0.2938  0.7847
 6582TIP3   OH241236   2.044   0.528   5.702  0.0144  1.0329 -0.1915
 6582TIP3    H141237   2.133   0.533   5.666  0.2083  0.1216  0.1448
 6582TIP3    H241238   2.043   0.594   5.771  0.6310  0.6235  0.2156
 6583TIP3   OH241239   3.795   3.718   1.611 -0.0134 -0.2823 -0.6305
 6583TIP3    H141240   3.770   3.684   1.525 -0.6290  1.1981 -1.0894
 6583TIP3    H241241   3.780   3.813   1.604  1.0189  0.0188  0.7466
 6584TIP3   OH241242   6.002   3.711   5.074 -0.1639 -0.1012 -0.1726
 6584TIP3    H141243   5.994   3.679   5.164 -0.5114  1.8825  0.5644
 6584TIP3    H241244   6.053   3.644   5.029 -1.8823 -2.2505  0.8972
 6585TIP3   OH241245   5.673   0.539   4.737 -0.3927  0.2720  0.2821
 6585TIP3    H141246   5.678   0.633   4.753 -2.7775  0.9533 -2.1090
 6585TIP3    H241247   5.602   0.509   4.794 -0.3133  0.1348  0.3083
 6586TIP3   OH241248   4.757   5.702   5.888  0.3003  0.1475 -0.4143
 6586TIP3    H141249   4.824   5.688   5.954  1.5318 -1.0001 -1.8474
 6586TIP3    H241250   4.772   5.634   5.823  0.4283  2.3525 -2.8870
 6587TIP3   OH241251   0.912   1.510   0.417  0.3182 -0.0619 -0.0651
 6587TIP3    H141252   0.853   1.470   0.481 -0.0867  0.3711 -0.1689
 6587TIP3    H241253   0.898   1.459   0.337  1.3130 -1.0379  0.3568
 6588TIP3   OH241254   0.063   2.265  16.082 -0.3647 -0.4044  0.0418
 6588TIP3    H141255   0.127   2.305  16.141 -0.0939 -1.9032  0.8144
 6588TIP3    H241256   0.108   2.189  16.046 -0.9116 -0.1353 -1.2761
 6589TIP3   OH241257   4.485   4.065   0.124 -0.3959  0.0998  0.5188
 6589TIP3    H141258   4.433   4.140   0.155 -0.0455 -0.4174  2.5289
 6589TIP3    H241259   4.572   4.101   0.109 -0.2228  0.1129  1.4986
 6590TIP3   OH241260   2.983   0.917  12.217  0.5448  0.2480  0.4777
 6590TIP3    H141261   3.073   0.895  12.243  0.1374  0.3820  2.1613
 6590TIP3    H241262   2.970   1.006  12.251  0.1496  0.6881 -0.7933
 6591TIP3   OH241263   5.489   2.333   4.297 -0.5659 -0.5473 -0.4387
 6591TIP3    H141264   5.479   2.289   4.213 -1.2911 -0.4956 -0.3833
 6591TIP3    H241265   5.490   2.261   4.361 -2.9050 -0.4666 -0.2425
 6592TIP3   OH241266   5.415   0.490  14.550  0.6188  0.7962 -0.0518
 6592TIP3    H141267   5.482   0.494  14.482  1.7197  0.8677  0.9909
 6592TIP3    H241268   5.425   0.404  14.589  0.2071  0.8712  0.2244
 6593TIP3   OH241269   1.129   5.596   0.754 -0.5189 -0.6191 -0.0683
 6593TIP3    H141270   1.115   5.502   0.770 -0.1014 -0.3916  1.8851
 6593TIP3    H241271   1.216   5.600   0.713  0.0703 -1.0338  1.0808
 6594TIP3   OH241272   5.220   4.001   0.900  0.2601 -0.4925 -0.2046
 6594TIP3    H141273   5.253   4.091   0.899  0.3325 -0.4658  1.6230
 6594TIP3    H241274   5.298   3.947   0.909  0.1824 -0.7258 -0.8870
 6595TIP3   OH241275   2.001   3.376  15.068 -0.8354  0.5910  0.0847
 6595TIP3    H141276   2.089   3.346  15.092 -2.0678 -1.0028  3.1941
 6595TIP3    H241277   2.001   3.469  15.088  1.2505  1.7200 -3.9983
 6596TIP3   OH241278   2.229   2.417  15.297  0.0999  0.3763  0.7994
 6596TIP3    H141279   2.232   2.422  15.392 -1.2454  0.7963  0.8470
 6596TIP3    H241280   2.177   2.493  15.271  1.1786  0.7531 -0.3365
 6597TIP3   OH241281   0.201   2.503   5.837  0.0455 -0.4903  0.5672
 6597TIP3    H141282   0.153   2.563   5.780  0.2047  0.1272  1.0713
 6597TIP3    H241283   0.133   2.466   5.894 -0.1081 -1.0797  0.0074
 6598TIP3   OH241284   1.651   4.113  16.738 -0.0109  0.1141  0.5257
 6598TIP3    H141285   1.722   4.054  16.766  0.6656  0.4441 -0.4389
 6598TIP3    H241286   1.680   4.147  16.653 -2.1189 -1.0685 -0.7372
 6599TIP3   OH241287   3.779   1.295  11.285  0.1380 -0.2989 -0.5275
 6599TIP3    H141288   3.718   1.226  11.313  0.5678 -0.1608  0.7933
 6599TIP3    H241289   3.735   1.377  11.308  0.2656 -0.1658 -0.7551
 6600TIP3   OH241290   4.321   5.226   4.600 -0.2275 -0.3803  0.1255
 6600TIP3    H141291   4.365   5.144   4.577  0.4040  0.2078 -0.8186
 6600TIP3    H241292   4.367   5.256   4.679  1.7581  0.6868 -1.3460
 6601TIP3   OH241293   4.569   6.463  13.551  0.0726  0.4990  0.3762
 6601TIP3    H141294   4.509   6.462  13.477 -0.4348  1.2874  0.7697
 6601TIP3    H241295   4.619   6.381  13.542 -0.0431  0.5322 -0.7689
 6602TIP3   OH241296   1.054   2.412  16.060  0.1250  0.3362 -0.0945
 6602TIP3    H141297   1.123   2.402  16.126 -0.4345 -1.3884  0.2743
 6602TIP3    H241298   1.083   2.360  15.986  0.6203  2.0483 -1.1692
 6603TIP3   OH241299   4.464   1.749   4.896 -0.5440 -0.6164 -0.0819
 6603TIP3    H141300   4.415   1.667   4.887 -1.8480  0.0419  0.7224
 6603TIP3    H241301   4.408   1.815   4.855  0.9190 -0.2353 -1.5806
 6604TIP3   OH241302   3.588   0.572  11.627 -0.0245  0.5553 -0.4135
 6604TIP3    H141303   3.496   0.600  11.628  0.0199  0.7525 -1.2211
 6604TIP3    H241304   3.595   0.517  11.549  1.1245  2.5908 -1.8234
 6605TIP3   OH241305   5.661   5.133   4.144  0.6426 -0.1962 -0.0501
 6605TIP3    H141306   5.726   5.203   4.154 -0.4424  0.8139  0.1805
 6605TIP3    H241307   5.669   5.081   4.223  0.7928  0.2713  0.2488
 6606TIP3   OH241308   5.072   1.265   4.654 -0.0534 -0.1602  0.1120
 6606TIP3    H141309   5.034   1.183   4.625  0.1513  0.3362 -1.7174
 6606TIP3    H241310   5.001   1.329   4.646 -0.0513 -0.0377  0.9698
 6607TIP3   OH241311   4.844   0.240  13.924 -0.2247  0.2145 -0.6119
 6607TIP3    H141312   4.772   0.177  13.927  0.7754 -0.9633 -0.1037
 6607TIP3    H241313   4.907   0.200  13.864  0.1736  1.0242 -0.7387
 6608TIP3   OH241314   0.888   0.573  15.234  0.7033 -0.1855  0.4370
 6608TIP3    H141315   0.917   0.662  15.217  2.2911 -0.6234  0.5811
 6608TIP3    H241316   0.848   0.544  15.152  0.3135  0.6057  0.3445
 6609TIP3   OH241317   6.258   3.918   4.419 -0.2805  0.1535  0.8818
 6609TIP3    H141318   6.310   3.896   4.496 -1.1258  0.2545  1.4928
 6609TIP3    H241319   6.202   3.990   4.447 -0.4017  0.3736  0.0907
 6610TIP3   OH241320   0.930   1.020  13.621  0.1401 -0.0302  0.0362
 6610TIP3    H141321   0.974   1.007  13.537  0.2522  0.5355  0.0039
 6610TIP3    H241322   0.865   0.950  13.624 -1.1070  0.9958 -1.3606
 6611TIP3   OH241323   0.551   6.598   0.272 -0.2380 -0.6419 -0.3618
 6611TIP3    H141324   0.591   6.531   0.216 -0.1397 -0.2298 -0.7957
 6611TIP3    H241325   0.458   6.598   0.246 -0.3334 -0.9324 -0.0299
 6612TIP3   OH241326   4.688   4.567  14.382 -0.3262 -0.0508  0.2448
 6612TIP3    H141327   4.668   4.525  14.466  1.6936 -2.0341 -0.1499
 6612TIP3    H241328   4.629   4.525  14.319 -0.1096 -0.4524  0.2996
 6613TIP3   OH241329   0.749   4.794   2.786  0.0352  0.2666 -0.7426
 6613TIP3    H141330   0.663   4.822   2.818 -0.7172 -0.7031 -1.8538
 6613TIP3    H241331   0.807   4.808   2.861 -1.4166 -0.7240  0.6450
 6614TIP3   OH241332   5.297   2.737   5.049 -0.2602  0.2679  0.0619
 6614TIP3    H141333   5.370   2.675   5.041 -1.8756 -1.6439 -0.4520
 6614TIP3    H241334   5.320   2.808   4.988  1.4587  0.0512  0.3926
 6615TIP3   OH241335   0.143   3.782   3.186  0.0310 -0.0792  0.2453
 6615TIP3    H141336   0.145   3.782   3.282 -3.4023  0.4808  0.4303
 6615TIP3    H241337   0.159   3.690   3.162 -2.4638 -0.9672  1.6188
 6616TIP3   OH241338   2.038   2.315  12.180 -0.4902 -0.0317 -0.3018
 6616TIP3    H141339   2.032   2.386  12.243 -0.5396 -0.0519 -0.2835
 6616TIP3    H241340   2.069   2.240  12.230  1.2186  0.4085 -0.6466
 6617TIP3   OH241341   5.447   2.830  15.083 -0.7396 -0.4828  0.6241
 6617TIP3    H141342   5.491   2.750  15.111 -0.4489 -1.0184 -1.2398
 6617TIP3    H241343   5.456   2.831  14.987 -2.8862  0.5272  0.3736
 6618TIP3   OH241344   2.600   0.414   5.248  0.1208 -0.3856 -0.0563
 6618TIP3    H141345   2.692   0.401   5.228 -0.1597 -2.2591 -0.2965
 6618TIP3    H241346   2.558   0.424   5.162 -0.2145 -2.0314 -0.1078
 6619TIP3   OH241347   4.132   6.699   2.684 -0.1391  0.3805 -0.0293
 6619TIP3    H141348   4.130   6.603   2.685 -2.2306  0.3711  0.4847
 6619TIP3    H241349   4.224   6.722   2.691  0.4281 -1.5956 -0.4887
 6620TIP3   OH241350   1.056   4.411   2.965  0.5881  0.7923 -0.4145
 6620TIP3    H141351   1.088   4.373   2.883 -3.6936 -1.7401 -1.2270
 6620TIP3    H241352   0.995   4.480   2.937 -2.6088 -1.5228  0.2486
 6621TIP3   OH241353   4.124   0.289  12.516 -0.5784  0.1040 -0.1222
 6621TIP3    H141354   4.119   0.194  12.501  1.1527  0.2662 -2.2091
 6621TIP3    H241355   4.120   0.327  12.428  1.1927  1.8057  0.4794
 6622TIP3   OH241356   0.065   6.192  12.306  0.1185  0.1338 -0.3547
 6622TIP3    H141357   0.116   6.119  12.341 -0.0689  0.0555 -0.2447
 6622TIP3    H241358   0.001   6.211  12.374  0.2094  0.4464 -0.3553
 6623TIP3   OH241359   0.725   2.309   0.381 -0.4984 -0.5569 -0.1179
 6623TIP3    H141360   0.650   2.350   0.338  0.3789  0.5784 -0.6251
 6623TIP3    H241361   0.719   2.339   0.472 -1.7361 -2.0760  0.3541
 6624TIP3   OH241362   3.413   1.769  12.879 -0.0329 -0.3121 -0.2562
 6624TIP3    H141363   3.366   1.694  12.844  0.8229 -0.9152 -0.1649
 6624TIP3    H241364   3.418   1.831  12.806 -0.6500 -0.3930 -0.3664
 6625TIP3   OH241365   2.705   1.823   4.296 -0.2675 -0.3522  0.1225
 6625TIP3    H141366   2.694   1.879   4.373  2.5218 -1.2587  1.2766
 6625TIP3    H241367   2.617   1.788   4.280 -1.8104  2.9258  0.3515
 6626TIP3   OH241368   3.191   6.714   2.790 -0.1104 -0.1454  0.4637
 6626TIP3    H141369   3.215   6.750   2.704 -0.5108 -0.1358  0.3524
 6626TIP3    H241370   3.141   6.784   2.831  1.1997  0.3626  1.2495
 6627TIP3   OH241371   4.420   3.506  12.600  0.3134 -0.2964  0.3027
 6627TIP3    H141372   4.398   3.573  12.665  0.8413 -1.9447  2.2603
 6627TIP3    H241373   4.457   3.555  12.526 -0.6359  1.6644  1.0652
 6628TIP3   OH241374   4.305   1.729  16.157 -0.0465  0.2442 -0.1828
 6628TIP3    H141375   4.348   1.780  16.088  1.4401 -1.2341 -0.4186
 6628TIP3    H241376   4.361   1.737  16.233 -2.0815  2.5079  1.2150
 6629TIP3   OH241377   6.270   5.984  15.080 -0.0787 -0.2065 -0.0973
 6629TIP3    H141378   6.239   6.074  15.087 -1.9847 -0.7663 -0.7026
 6629TIP3    H241379   6.264   5.964  14.986  2.2612 -0.3489 -0.2714
 6630TIP3   OH241380   2.367   0.197  16.910 -0.1790 -0.2465 -0.4910
 6630TIP3    H141381   2.329   0.284  16.902  0.9723  0.2611 -0.5772
 6630TIP3    H241382   2.441   0.208  16.971  1.6522 -0.5799 -2.5190
 6631TIP3   OH241383   4.814   4.819  12.733  0.0096  0.2603  0.0430
 6631TIP3    H141384   4.785   4.809  12.823  0.5295  2.4718  0.5215
 6631TIP3    H241385   4.862   4.738  12.714 -0.3691 -0.3744  1.6356
 6632TIP3   OH241386   1.968   4.374   4.230 -0.1526  0.0646  0.2888
 6632TIP3    H141387   2.051   4.396   4.274  0.2154 -1.4112  0.3731
 6632TIP3    H241388   1.993   4.311   4.163 -1.1957 -0.2332  0.1720
 6633TIP3   OH241389   6.223   4.016  14.327  0.3892 -0.3295  0.1887
 6633TIP3    H141390   6.202   4.048  14.415  0.5394 -1.9538  0.8385
 6633TIP3    H241391   6.143   3.972  14.297 -0.2416  1.5755 -1.2058
 6634TIP3   OH241392   3.682   4.322   5.662  0.5168 -0.0873  0.0607
 6634TIP3    H141393   3.735   4.393   5.626 -0.6050  0.0072 -1.5133
 6634TIP3    H241394   3.686   4.252   5.595  0.0135 -0.7196  0.6731
 6635TIP3   OH241395   0.225   1.532   4.356  0.1270  0.3407 -0.5410
 6635TIP3    H141396   0.139   1.574   4.362  0.3837  0.6194  2.4848
 6635TIP3    H241397   0.214   1.466   4.288 -2.0473  1.2742 -1.2131
 6636TIP3   OH241398   4.750   3.131   1.706  0.1342  0.4565 -0.1967
 6636TIP3    H141399   4.719   3.201   1.763  0.9344 -0.0837  0.9422
 6636TIP3    H241400   4.675   3.110   1.650 -0.0016  2.4600 -0.8321
 6637TIP3   OH241401   3.613   0.525  15.018  0.2887  0.5771  0.1564
 6637TIP3    H141402   3.650   0.564  14.938  0.1354  0.2541 -0.0722
 6637TIP3    H241403   3.688   0.512  15.075  0.5686 -0.2727 -0.3868
 6638TIP3   OH241404   4.168   5.541   1.661  0.3821 -0.3726 -0.2162
 6638TIP3    H141405   4.194   5.481   1.591 -1.0392 -1.1896 -0.0800
 6638TIP3    H241406   4.232   5.612   1.656  1.0442 -1.0165 -1.5401
 6639TIP3   OH241407   0.899   0.588   0.574  0.6148  0.1877  0.5150
 6639TIP3    H141408   0.902   0.497   0.603 -0.5931 -0.4507 -1.1597
 6639TIP3    H241409   0.882   0.582   0.480 -0.4855  2.1476  0.5396
 6640TIP3   OH241410   1.171   4.378   6.511 -0.1848  0.1364 -0.0757
 6640TIP3    H141411   1.203   4.460   6.474 -0.6544  0.2724 -0.1958
 6640TIP3    H241412   1.240   4.349   6.570  0.1548  0.4147 -0.3356
 6641TIP3   OH241413   0.019   1.047  12.475  0.5233  0.4292 -0.8930
 6641TIP3    H141414   0.100   0.998  12.484  0.6528  1.0754  2.6282
 6641TIP3    H241415   0.037   1.132  12.516 -1.6864  0.8768 -0.7245
 6642TIP3   OH241416   5.357   6.620   1.903  0.0747  0.0383 -0.0033
 6642TIP3    H141417   5.443   6.647   1.871  0.1539 -0.0701  0.1149
 6642TIP3    H241418   5.315   6.702   1.930  0.2313  0.0695  0.1523
 6643TIP3   OH241419   3.301   4.426   5.333 -0.4007 -0.2826 -0.1967
 6643TIP3    H141420   3.232   4.432   5.267  0.5305 -1.9509 -1.3937
 6643TIP3    H241421   3.332   4.335   5.328  1.7411  0.3453  0.4227
 6644TIP3   OH241422   6.585   3.570   5.927 -0.7291 -0.5954  0.5491
 6644TIP3    H141423   6.588   3.509   5.853 -0.5443 -0.8415  0.7571
 6644TIP3    H241424   6.586   3.514   6.005  0.2991 -0.3104  0.7571
 6645TIP3   OH241425   3.224   0.149  11.059 -0.0779 -0.7786  0.1496
 6645TIP3    H141426   3.295   0.130  11.121  0.2699  1.2833  0.4460
 6645TIP3    H241427   3.249   0.102  10.980  1.7046 -0.0159  0.2135
 6646TIP3   OH241428   5.828   3.853  16.040  0.0446  0.0211  0.0390
 6646TIP3    H141429   5.779   3.934  16.030 -0.5698 -0.4685 -1.2461
 6646TIP3    H241430   5.811   3.805  15.958  1.1185 -1.0017  0.3868
 6647TIP3   OH241431   3.148   2.873   0.719  0.3450  0.0711  0.2457
 6647TIP3    H141432   3.235   2.837   0.736 -0.0174 -0.5976  0.7835
 6647TIP3    H241433   3.123   2.838   0.634  1.2175  1.5233 -0.6415
 6648TIP3   OH241434   1.253   3.621   0.008 -0.7104 -0.3090 -0.8266
 6648TIP3    H141435   1.344   3.642   0.029 -1.1448 -0.0391  1.0114
 6648TIP3    H241436   1.254   3.529  -0.018 -0.2537 -1.2732  2.2217
 6649TIP3   OH241437   0.894   3.757  12.510 -0.1373  0.6513 -0.1140
 6649TIP3    H141438   0.947   3.805  12.574 -0.0415 -0.6564  0.8461
 6649TIP3    H241439   0.864   3.824  12.449  1.9403  1.5791 -0.2379
 6650TIP3   OH241440   2.841   3.333  16.141 -1.0688  0.6192  0.0808
 6650TIP3    H141441   2.841   3.414  16.191 -1.2612  1.5558 -1.3617
 6650TIP3    H241442   2.846   3.263  16.207  0.3295  1.8064  1.2986
 6651TIP3   OH241443   5.832   1.937  11.387  0.0953  0.2007  0.0889
 6651TIP3    H141444   5.885   1.916  11.463  1.2593  0.1779 -0.6963
 6651TIP3    H241445   5.786   2.018  11.410 -0.0049 -0.1040  1.0022
 6652TIP3   OH241446   4.034   3.424  12.456  0.1879  0.2292  0.0103
 6652TIP3    H141447   3.982   3.458  12.383  0.8291 -0.8263 -0.9520
 6652TIP3    H241448   4.008   3.479  12.530 -2.0190 -0.0003 -0.5132
 6653TIP3   OH241449   2.601   6.122  15.870  0.4361  0.1828 -0.2605
 6653TIP3    H141450   2.508   6.104  15.886  0.9777 -0.6098  2.7380
 6653TIP3    H241451   2.609   6.217  15.876 -0.1414  0.2300 -0.1771
 6654TIP3   OH241452   2.460   3.493   2.880  0.5733  0.1364  0.0252
 6654TIP3    H141453   2.479   3.414   2.931  1.1691 -0.1058 -0.5367
 6654TIP3    H241454   2.546   3.522   2.849  0.2201  0.1999 -0.9310
 6655TIP3   OH241455   3.995   2.453  14.121 -0.1345  0.2984 -0.1377
 6655TIP3    H141456   3.907   2.471  14.153 -1.3700 -1.4123 -2.3242
 6655TIP3    H241457   4.019   2.370  14.163  0.3209  0.6151  0.2305
 6656TIP3   OH241458   2.759   0.673  17.155  0.0283  0.3750 -0.6450
 6656TIP3    H141459   2.723   0.594  17.115  2.2130 -0.9841 -0.1443
 6656TIP3    H241460   2.689   0.706  17.211 -1.4144 -0.4101 -1.9227
 6657TIP3   OH241461   3.088   0.851  15.827  0.5247  0.0132  0.3661
 6657TIP3    H141462   3.171   0.864  15.780  1.0476  2.4423  1.7715
 6657TIP3    H241463   3.030   0.918  15.791 -1.2131 -2.1567 -1.1620
 6658TIP3   OH241464   4.046   0.376  15.676 -0.0438 -0.4432 -0.0551
 6658TIP3    H141465   3.987   0.310  15.711 -0.9680 -0.4287 -1.5061
 6658TIP3    H241466   4.018   0.458  15.719 -1.5007 -0.3304 -1.1395
 6659TIP3   OH241467   5.431   5.784   1.538  0.0458  0.2083 -0.2375
 6659TIP3    H141468   5.495   5.749   1.601  1.1528 -0.3888 -1.6368
 6659TIP3    H241469   5.368   5.713   1.526  1.0766 -0.5402 -1.4343
 6660TIP3   OH241470   5.298   2.122   5.094 -0.5040  0.6526  0.2813
 6660TIP3    H141471   5.285   2.090   5.183 -2.0401  2.0021  0.5802
 6660TIP3    H241472   5.211   2.122   5.055 -0.0416  1.2714 -0.7996
 6661TIP3   OH241473   5.460   2.791  14.480 -0.0461  0.0839 -0.1291
 6661TIP3    H141474   5.474   2.697  14.477  1.5837  0.3082 -0.2951
 6661TIP3    H241475   5.479   2.822  14.392  1.7002  0.8304  0.4744
 6662TIP3   OH241476   4.561   6.775  11.646  0.3123  0.7542  0.0656
 6662TIP3    H141477   4.638   6.821  11.680 -1.5715  1.9851  3.1105
 6662TIP3    H241478   4.545   6.705  11.709  0.4844 -1.3102 -2.0553
 6663TIP3   OH241479   5.793   3.817   6.009  0.6163  0.4397  0.0454
 6663TIP3    H141480   5.715   3.864   6.042 -0.7505 -0.5714 -1.5978
 6663TIP3    H241481   5.832   3.877   5.946  0.2227  0.3250 -0.3142
 6664TIP3   OH241482   5.605   1.360   3.460  0.5641 -0.0340 -0.0404
 6664TIP3    H141483   5.525   1.312   3.483  0.6167 -1.1994 -2.0665
 6664TIP3    H241484   5.589   1.449   3.492 -2.4265  0.2779 -1.9821
 6665TIP3   OH241485   1.739   0.768   2.647 -0.2384 -0.1354 -0.1339
 6665TIP3    H141486   1.756   0.705   2.717  2.0417  0.4531 -0.0735
 6665TIP3    H241487   1.802   0.745   2.579  1.2242  2.4704  0.1996
 6666TIP3   OH241488   1.603   4.007   1.904  0.0276 -0.4033 -0.5339
 6666TIP3    H141489   1.665   3.994   1.832 -0.8803 -0.6728 -1.2904
 6666TIP3    H241490   1.631   3.944   1.970  2.7182  1.8339  0.6888
 6667TIP3   OH241491   5.662   4.869   3.272  0.4354 -0.4547  0.3965
 6667TIP3    H141492   5.630   4.891   3.184 -0.7717 -3.7940 -0.1546
 6667TIP3    H241493   5.647   4.775   3.280  0.2373 -0.2618  4.3169
 6668TIP3   OH241494   3.220   5.904   5.150 -0.4684  0.4211  0.6133
 6668TIP3    H141495   3.249   5.826   5.197  0.8868  0.1388 -0.6184
 6668TIP3    H241496   3.202   5.873   5.061 -1.5129  1.2209  0.5307
 6669TIP3   OH241497   1.444   3.762   2.825 -0.0695 -0.2876 -0.2020
 6669TIP3    H141498   1.410   3.735   2.910 -0.7974  2.1706  0.3586
 6669TIP3    H241499   1.419   3.691   2.766 -0.1192 -1.7490  1.4741
 6670TIP3   OH241500   0.319   1.585  12.030  0.0794 -0.0500 -0.2991
 6670TIP3    H141501   0.330   1.667  12.079 -0.8985 -0.0745 -0.0222
 6670TIP3    H241502   0.277   1.610  11.949  0.2300 -0.2221 -0.4322
 6671TIP3   OH241503   1.122   2.429  16.350 -0.2676  0.6275 -0.5281
 6671TIP3    H141504   1.157   2.346  16.316 -1.7481 -0.8517  1.3372
 6671TIP3    H241505   1.027   2.416  16.349 -0.4927  2.0830  0.3462
 6672TIP3   OH241506   5.352   5.330  15.974 -0.0318 -0.0220  0.0335
 6672TIP3    H141507   5.308   5.272  15.911  0.7407 -1.6388  0.9143
 6672TIP3    H241508   5.295   5.406  15.980 -0.9109 -0.5155 -1.4516
 6673TIP3   OH241509   0.958   5.119  16.342  0.3206 -0.2209 -0.4881
 6673TIP3    H141510   0.946   5.032  16.381 -0.4717 -0.4322 -1.1785
 6673TIP3    H241511   0.936   5.107  16.250 -1.9644  1.1747 -0.2085
 6674TIP3   OH241512   3.773   1.989   3.555 -0.7529 -0.6763  0.0617
 6674TIP3    H141513   3.815   2.074   3.570  0.7660 -1.4640  0.4728
 6674TIP3    H241514   3.816   1.955   3.476 -1.5194 -0.9659 -0.2400
 6675TIP3   OH241515   5.302   1.863  14.426 -0.0297 -0.8048  0.6958
 6675TIP3    H141516   5.278   1.875  14.518  1.8919 -0.4294  1.1863
 6675TIP3    H241517   5.382   1.810  14.428 -1.2174 -2.8156 -0.8942
 6676TIP3   OH241518   3.005   2.911  14.440  0.4709  0.1428 -0.1347
 6676TIP3    H141519   2.968   2.901  14.527 -0.1765  2.4322 -0.1039
 6676TIP3    H241520   3.046   2.997  14.440  1.9282 -0.4878 -1.5909
 6677TIP3   OH241521   4.815   3.923  13.379  0.8313 -0.1316 -0.1852
 6677TIP3    H141522   4.828   3.829  13.371  1.8806 -0.0095 -0.1020
 6677TIP3    H241523   4.800   3.953  13.289  0.9863 -0.3125 -0.2713
 6678TIP3   OH241524   0.532   2.079   5.798 -0.0655  0.2470 -0.1664
 6678TIP3    H141525   0.497   2.169   5.796  3.3546  1.7129 -1.3556
 6678TIP3    H241526   0.568   2.070   5.886  0.8827  0.6443 -0.4998
 6679TIP3   OH241527   1.966   5.490  11.192  0.3605 -0.1339  0.0095
 6679TIP3    H141528   2.000   5.413  11.146  0.0547  1.1015 -2.4271
 6679TIP3    H241529   1.917   5.539  11.125 -1.2314  1.1348  1.9840
 6680TIP3   OH241530   5.867   0.242   0.924  0.3289 -0.0347 -0.2893
 6680TIP3    H141531   5.950   0.202   0.949 -0.7542 -1.0098  2.0338
 6680TIP3    H241532   5.854   0.215   0.833  2.1794 -0.4947 -0.4553
 6681TIP3   OH241533   3.024   0.954   0.110  0.3896 -0.2013 -0.0748
 6681TIP3    H141534   3.042   0.906   0.029  2.0240 -1.3650  0.8954
 6681TIP3    H241535   3.074   1.035   0.101  0.2155 -0.1261 -0.3992
 6682TIP3   OH241536   3.576   0.212   5.796 -0.0220  0.2197  0.1678
 6682TIP3    H141537   3.626   0.267   5.735  0.6819  0.2198  0.7289
 6682TIP3    H241538   3.592   0.122   5.766 -1.6106  0.3127 -1.0791
 6683TIP3   OH241539   1.913   1.129   0.123  0.4309  0.5763  0.0429
 6683TIP3    H141540   1.866   1.055   0.084 -0.3513  1.1630 -0.1356
 6683TIP3    H241541   1.993   1.137   0.071 -0.1993  0.8087 -0.9074
 6684TIP3   OH241542   3.553   4.596  13.459  0.0673  0.0906  0.0790
 6684TIP3    H141543   3.463   4.596  13.493 -0.3342  1.1696 -0.9343
 6684TIP3    H241544   3.554   4.525  13.395  0.1065 -0.2721  0.4709
 6685TIP3   OH241545   3.526   2.064  12.491 -0.0755  0.1234 -0.2806
 6685TIP3    H141546   3.438   2.028  12.478 -0.8016  1.8019 -0.2867
 6685TIP3    H241547   3.558   2.083  12.403 -0.6198  1.5276 -0.2009
 6686TIP3   OH241548   4.547   1.191  11.830 -0.2899 -0.1577  0.2907
 6686TIP3    H141549   4.514   1.208  11.918 -1.0270  0.1417 -0.0396
 6686TIP3    H241550   4.488   1.239  11.772 -0.0644 -0.6955 -0.3971
 6687TIP3   OH241551   4.440   6.313   6.640 -0.3246 -0.1391 -0.0529
 6687TIP3    H141552   4.365   6.282   6.589 -0.1985 -0.7727  0.1442
 6687TIP3    H241553   4.513   6.257   6.613  0.2262  0.8410 -0.6583
 6688TIP3   OH241554   5.443   3.835   0.926 -0.0634 -0.3553 -0.2096
 6688TIP3    H141555   5.509   3.858   0.992 -1.3216  1.2853  0.5695
 6688TIP3    H241556   5.492   3.790   0.858  1.8733  0.7571  0.3504
 6689TIP3   OH241557   6.165   6.205   0.925 -0.2211 -0.2660 -0.5961
 6689TIP3    H141558   6.116   6.142   0.872 -2.8042  0.9648  0.1653
 6689TIP3    H241559   6.123   6.203   1.011  0.2659  1.7490 -0.2535
 6690TIP3   OH241560   1.160   6.312   0.994  0.2897  0.0077  0.1923
 6690TIP3    H141561   1.068   6.290   0.979  0.0242  1.1083  0.1524
 6690TIP3    H241562   1.198   6.320   0.906  0.5563 -0.8882  0.2057
 6691TIP3   OH241563   6.077   1.894   3.257 -0.4591 -0.1275 -0.6558
 6691TIP3    H141564   6.073   1.912   3.351 -0.8752  2.5685 -1.0999
 6691TIP3    H241565   5.995   1.930   3.222  0.8647  1.4231 -2.3543
 6692TIP3   OH241566   1.555   6.782  12.354 -0.4145 -0.0297 -0.1593
 6692TIP3    H141567   1.647   6.787  12.325  0.3143 -0.6605  1.8679
 6692TIP3    H241568   1.505   6.779  12.272  1.2773  1.2954 -1.3498
 6693TIP3   OH241569   3.313   1.229  12.513  0.6748  0.6542  0.4756
 6693TIP3    H141570   3.353   1.308  12.549  0.6060  0.2352  1.5031
 6693TIP3    H241571   3.383   1.190  12.460  0.3735  1.9475 -0.9546
 6694TIP3   OH241572   4.512   4.550  15.097 -0.4602  0.4512 -0.4368
 6694TIP3    H141573   4.598   4.544  15.139 -0.5891  0.3878 -0.1780
 6694TIP3    H241574   4.470   4.625  15.139 -0.9995 -0.2471  0.3197
 6695TIP3   OH241575   2.511   5.735   2.923 -0.3533  0.4012 -0.3311
 6695TIP3    H141576   2.549   5.795   2.987 -0.1751  1.3289 -1.2827
 6695TIP3    H241577   2.539   5.769   2.838 -0.9575 -0.5480 -0.9314
 6696TIP3   OH241578   4.421   3.035  16.029  0.6399  0.1626  0.4658
 6696TIP3    H141579   4.391   3.122  16.003  0.4104 -0.1434 -0.3108
 6696TIP3    H241580   4.453   2.996  15.949 -3.3859 -2.1744 -0.2801
 6697TIP3   OH241581   4.380   2.489   0.734  0.4126  0.0897  0.6184
 6697TIP3    H141582   4.365   2.549   0.807 -0.3975  0.0334  0.5103
 6697TIP3    H241583   4.462   2.445   0.755  0.5361  0.5668  1.1566
 6698TIP3   OH241584   0.737   0.053  14.467  0.3497  0.3252 -0.2189
 6698TIP3    H141585   0.737   0.041  14.372 -2.0655 -2.7696 -0.0132
 6698TIP3    H241586   0.775  -0.028  14.502  0.8379  1.2291  1.4668
 6699TIP3   OH241587   5.579   2.520  13.475  0.1918  0.5408 -0.3838
 6699TIP3    H141588   5.501   2.522  13.419  0.5918  0.2652 -0.9592
 6699TIP3    H241589   5.572   2.439  13.524 -0.6984  1.2780  0.7652
 6700TIP3   OH241590   4.969   3.305  14.190 -0.4344 -0.1187  0.7451
 6700TIP3    H141591   4.989   3.394  14.160  0.6410  0.3088  2.5756
 6700TIP3    H241592   5.025   3.249  14.136 -1.2733  0.2676 -0.5676
 6701TIP3   OH241593   5.096   1.473  15.640 -0.4059  0.3362 -0.2807
 6701TIP3    H141594   5.044   1.542  15.679  0.2498  0.9540 -0.4782
 6701TIP3    H241595   5.048   1.392  15.660 -1.4581  0.8892 -0.5230
 6702TIP3   OH241596   1.764   4.358  12.111 -0.2224  0.0298 -0.1183
 6702TIP3    H141597   1.827   4.352  12.040 -1.3446 -0.0285 -1.1396
 6702TIP3    H241598   1.817   4.361  12.191  1.0187 -1.8400 -0.8107
 6703TIP3   OH241599   5.419   6.580   0.685  0.2207  0.5908  0.3908
 6703TIP3    H141600   5.509   6.609   0.700  0.9508 -0.9749 -0.6322
 6703TIP3    H241601   5.408   6.504   0.742  0.7783 -1.3093 -1.8476
 6704TIP3   OH241602   2.943   4.942  16.486 -0.2227  0.1133  0.4761
 6704TIP3    H141603   2.946   4.858  16.532  0.3286  1.1099  2.3680
 6704TIP3    H241604   2.866   4.986  16.521 -1.4653 -0.2051 -1.7165
 6705TIP3   OH241605   6.084   3.050  11.876 -0.5443  0.8474 -0.1913
 6705TIP3    H141606   6.088   3.124  11.936 -0.9913  0.0176  0.8983
 6705TIP3    H241607   6.018   2.991  11.915 -1.3371  0.5870 -1.8407
 6706TIP3   OH241608   3.608   0.900   3.471  0.0119  0.5297 -0.2944
 6706TIP3    H141609   3.691   0.894   3.517  0.0087 -0.3631 -0.3915
 6706TIP3    H241610   3.632   0.934   3.384  0.0563  1.8755  0.2227
 6707TIP3   OH241611   5.522   4.296  13.369  0.1575  0.0932 -0.3175
 6707TIP3    H141612   5.549   4.212  13.406 -2.4965 -0.4181  0.7145
 6707TIP3    H241613   5.534   4.358  13.440 -0.4093  0.0438 -0.1721
 6708TIP3   OH241614   4.534   0.690  12.362  0.6618 -0.1983 -0.1640
 6708TIP3    H141615   4.542   0.680  12.457 -1.7562 -0.9479  0.0209
 6708TIP3    H241616   4.441   0.678  12.344  1.1878 -1.0085 -2.7602
 6709TIP3   OH241617   6.586   3.040   6.114 -0.5810 -0.3608 -0.1417
 6709TIP3    H141618   6.654   3.031   6.180 -0.3852 -3.0970 -0.6029
 6709TIP3    H241619   6.511   3.075   6.161  0.0235 -0.8210  1.2052
 6710TIP3   OH241620   1.977   3.942  13.908 -0.3961  0.3172  0.2578
 6710TIP3    H141621   1.951   3.938  13.816  1.1736 -0.4943 -0.1762
 6710TIP3    H241622   2.008   3.854  13.928 -3.7581 -0.5177  2.5657
 6711TIP3   OH241623   2.481   2.437   4.161  0.4643  0.1284  0.8353
 6711TIP3    H141624   2.435   2.479   4.088 -0.2920 -0.1585  1.1360
 6711TIP3    H241625   2.528   2.364   4.121 -0.8625 -0.7291  0.7794
 6712TIP3   OH241626   1.112   2.908  14.922 -0.1396 -0.0781 -0.2165
 6712TIP3    H141627   1.136   2.950  15.005  0.2566  0.6270 -0.6702
 6712TIP3    H241628   1.021   2.932  14.908 -0.4223 -0.8017  0.3663
 6713TIP3   OH241629   6.557   4.005   5.493 -0.1992  0.2923 -0.5118
 6713TIP3    H141630   6.647   4.035   5.508 -0.4824  0.3312  1.2925
 6713TIP3    H241631   6.504   4.084   5.502 -0.6673 -0.1993  1.3371
 6714TIP3   OH241632   6.744   1.611  12.026 -0.0416  0.5377 -0.2441
 6714TIP3    H141633   6.664   1.598  11.975  0.3399 -1.7269 -0.3836
 6714TIP3    H241634   6.751   1.531  12.079  0.5540  2.0050  2.0215
 6715TIP3   OH241635   0.988   6.318  16.739  0.2492  0.1959 -0.5909
 6715TIP3    H141636   1.069   6.357  16.770  0.2980 -0.6950  0.4751
 6715TIP3    H241637   0.922   6.348  16.802 -0.0263 -0.0257 -0.7713
 6716TIP3   OH241638   6.252   1.152  13.608 -0.1969 -0.3794  0.4947
 6716TIP3    H141639   6.318   1.092  13.641  1.1740 -0.2616 -1.7761
 6716TIP3    H241640   6.197   1.098  13.551 -1.1534 -0.1634  1.1932
 6717TIP3   OH241641   1.649   3.876  15.613 -0.0436 -0.1658  0.0147
 6717TIP3    H141642   1.635   3.784  15.635 -0.4970  0.3665  2.2158
 6717TIP3    H241643   1.723   3.876  15.554 -1.3735 -2.1002 -1.7963
 6718TIP3   OH241644   6.472   2.798  10.628  0.0379  0.7305  0.2494
 6718TIP3    H141645   6.384   2.761  10.616 -0.5127  2.6082 -2.2077
 6718TIP3    H241646   6.516   2.735  10.685 -1.9284 -1.8665 -0.8763
 6719TIP3   OH241647   5.012   1.582   5.465 -0.5361  0.3685 -0.7487
 6719TIP3    H141648   4.964   1.665   5.461 -0.9379  0.1773  0.0111
 6719TIP3    H241649   4.991   1.538   5.382  0.6379  1.5232 -1.7106
 6720TIP3   OH241650   2.700   5.133  12.745  0.0284 -0.1870  0.8213
 6720TIP3    H141651   2.631   5.196  12.768 -0.6436 -0.5417 -0.1229
 6720TIP3    H241652   2.659   5.077  12.679  0.4074 -2.0079  2.0649
 6721TIP3   OH241653   3.120   2.380  17.101  0.2598  0.0656  0.2120
 6721TIP3    H141654   3.079   2.385  17.187  1.3052 -2.5182  0.9450
 6721TIP3    H241655   3.178   2.304  17.106  0.7249  0.1242 -2.6344
 6722TIP3   OH241656   4.740   6.103   1.960  0.3134 -0.0052  0.2092
 6722TIP3    H141657   4.656   6.115   1.915 -0.4293 -0.1909  1.4873
 6722TIP3    H241658   4.759   6.188   1.999 -0.1788 -0.3934  1.3594
 6723TIP3   OH241659   2.762   0.820   4.502  0.3001  0.6432 -0.2118
 6723TIP3    H141660   2.832   0.858   4.449 -1.0402  0.6772 -2.0741
 6723TIP3    H241661   2.715   0.762   4.442 -1.1476  0.4626  1.0153
 6724TIP3   OH241662   5.778   1.229   1.463 -0.5227 -0.8485  0.5507
 6724TIP3    H141663   5.810   1.148   1.424  0.5443  0.0160 -0.4768
 6724TIP3    H241664   5.718   1.201   1.531  0.6583 -2.5284  0.9710
 6725TIP3   OH241665   4.763   1.483   1.525  0.5325  0.0050  0.6705
 6725TIP3    H141666   4.808   1.400   1.544  0.5130  0.0282  0.8222
 6725TIP3    H241667   4.729   1.511   1.610 -0.3409 -0.3532  0.4456
 6726TIP3   OH241668   0.191   6.795   5.058 -0.0996 -0.2191  0.1710
 6726TIP3    H141669   0.263   6.793   5.122  0.8335 -2.5625 -0.8548
 6726TIP3    H241670   0.234   6.783   4.973 -1.6281 -0.8455 -0.5476
 6727TIP3   OH241671   5.870   5.138   5.444  0.4483 -0.4226 -0.3901
 6727TIP3    H141672   5.777   5.120   5.449  0.0626  1.4803  0.3955
 6727TIP3    H241673   5.876   5.228   5.410  1.9382 -0.2004  0.3463
 6728TIP3   OH241674   4.119   2.571   0.625 -0.0227 -0.0208 -0.2002
 6728TIP3    H141675   4.214   2.561   0.628 -0.2193 -2.0108  0.8626
 6728TIP3    H241676   4.087   2.522   0.701 -1.8958  0.7843 -0.4133
 6729TIP3   OH241677   1.642   2.107   3.164  0.1678 -0.3530 -0.8313
 6729TIP3    H141678   1.660   2.016   3.142  0.3749 -0.6353  0.4819
 6729TIP3    H241679   1.727   2.151   3.157 -0.0240 -0.1151 -2.0102
 6730TIP3   OH241680   4.373   3.911  14.812  0.8503 -0.0240 -0.6478
 6730TIP3    H141681   4.310   3.925  14.882 -0.7916 -2.1804 -1.5649
 6730TIP3    H241682   4.442   3.859  14.852  0.9763  0.5410 -0.1336
 6731TIP3   OH241683   1.311   1.363   4.630  0.2996  0.2629 -0.1741
 6731TIP3    H141684   1.387   1.420   4.632 -0.4761  1.3194  0.8446
 6731TIP3    H241685   1.239   1.417   4.662 -0.7981 -0.8347 -0.6638
 6732TIP3   OH241686   4.590   5.870  16.097 -0.0158  0.0926 -0.1634
 6732TIP3    H141687   4.650   5.814  16.047  0.2904 -1.1974  1.5385
 6732TIP3    H241688   4.645   5.910  16.164 -0.6034  0.9601 -0.1851
 6733TIP3   OH241689   0.881   4.736  12.776 -0.6910 -0.8332 -0.4762
 6733TIP3    H141690   0.949   4.759  12.839 -0.5726 -1.2232 -0.4579
 6733TIP3    H241691   0.813   4.694  12.829 -0.0892 -2.1975 -0.7588
 6734TIP3   OH241692   4.970   2.806   2.093 -0.2860 -0.8119 -0.1590
 6734TIP3    H141693   4.887   2.780   2.135 -1.3201 -1.4512 -2.4412
 6734TIP3    H241694   5.031   2.736   2.116 -0.0253  0.1502  2.3585
 6735TIP3   OH241695   0.492   2.948  16.907  0.5270  0.1840 -0.1756
 6735TIP3    H141696   0.515   2.873  16.962 -1.4770 -0.0067  0.4656
 6735TIP3    H241697   0.444   3.007  16.965 -1.1268  0.2504 -1.5264
 6736TIP3   OH241698   3.991   0.410  14.917  0.1524  0.3817  0.1575
 6736TIP3    H141699   3.946   0.424  15.001 -0.2687  0.4321 -0.0735
 6736TIP3    H241700   3.986   0.316  14.903  1.9332  0.0953  1.1256
 6737TIP3   OH241701   4.486   5.409  16.656 -0.5033  0.1232  0.2240
 6737TIP3    H141702   4.551   5.355  16.701  0.3085  0.3948 -0.5876
 6737TIP3    H241703   4.500   5.497  16.690 -1.5979 -0.0878  1.2941
 6738TIP3   OH241704   0.985   1.369   4.321  0.6725  0.1026 -0.0849
 6738TIP3    H141705   1.043   1.426   4.372 -1.3382  0.2596  2.2612
 6738TIP3    H241706   0.923   1.429   4.280  1.1295 -0.1596 -1.1751
 6739TIP3   OH241707   0.701   3.909  11.081 -0.0478  0.2200  0.2723
 6739TIP3    H141708   0.794   3.925  11.072  0.2598 -1.2571  0.5245
 6739TIP3    H241709   0.689   3.883  11.172 -0.3223 -1.6621 -0.2468
 6740TIP3   OH241710   0.780   5.434   3.871  0.2183  0.4792  0.5608
 6740TIP3    H141711   0.762   5.351   3.915  1.2577  0.1329  0.3638
 6740TIP3    H241712   0.698   5.482   3.876 -1.2953 -1.6264 -1.7245
 6741TIP3   OH241713   3.765   3.837  12.997  0.4098 -0.2016 -0.2216
 6741TIP3    H141714   3.841   3.858  13.051  1.0455  2.7581 -2.0220
 6741TIP3    H241715   3.778   3.746  12.971  2.4339 -0.2807  0.8887
 6742TIP3   OH241716   5.572   6.584   3.071  0.0707 -0.4896  0.2225
 6742TIP3    H141717   5.481   6.614   3.065  0.4431  0.4584 -1.1052
 6742TIP3    H241718   5.584   6.564   3.163 -0.5162  2.5598  1.0739
 6743TIP3   OH241719   6.319   4.814  12.216  0.2945 -0.5222 -0.1991
 6743TIP3    H141720   6.326   4.757  12.140  0.2196 -0.2286 -0.4291
 6743TIP3    H241721   6.227   4.842  12.216  0.2410 -0.6874  0.1230
 6744TIP3   OH241722   0.197   5.546  16.297  0.0715  0.6030  0.8358
 6744TIP3    H141723   0.172   5.496  16.220 -1.6093  0.5184  1.3946
 6744TIP3    H241724   0.195   5.637  16.268 -0.3092  0.5551  0.7018
 6745TIP3   OH241725   5.818   5.373   5.308  0.3343  0.1176  0.2216
 6745TIP3    H141726   5.896   5.401   5.356  1.9973 -2.1254 -0.9341
 6745TIP3    H241727   5.745   5.416   5.352  2.1004  1.2846  2.1925
 6746TIP3   OH241728   5.213   3.676   1.128 -0.0394  0.3238 -0.3471
 6746TIP3    H141729   5.190   3.753   1.076 -0.7085  0.9810  0.8730
 6746TIP3    H241730   5.130   3.640   1.157  0.3174  0.7083  1.2700
 6747TIP3   OH241731   2.967   0.888  15.135  1.1086 -0.3462  0.3001
 6747TIP3    H141732   3.047   0.876  15.083  1.3319 -0.1804  0.6032
 6747TIP3    H241733   2.896   0.879  15.071  1.3940  0.3092 -0.1240
 6748TIP3   OH241734   1.102   6.485  13.143  0.8283 -0.0604  0.1051
 6748TIP3    H141735   1.198   6.483  13.133  0.9315  1.6116  0.4370
 6748TIP3    H241736   1.077   6.573  13.116 -0.7456 -0.7291 -0.7702
 6749TIP3   OH241737   0.402   5.123  11.507  0.3445 -0.0304  0.2109
 6749TIP3    H141738   0.314   5.136  11.471 -0.3163 -0.4434  1.6110
 6749TIP3    H241739   0.461   5.157  11.439 -0.8484 -0.4670 -1.0849
 6750TIP3   OH241740   0.625   0.374   0.689 -0.5919 -0.2185 -0.1329
 6750TIP3    H141741   0.598   0.283   0.694 -0.3330 -0.2839  0.0841
 6750TIP3    H241742   0.607   0.400   0.599  0.1187 -0.7225 -0.4295
 6751TIP3   OH241743   3.270   4.779   4.648 -0.0937  0.2117  0.1937
 6751TIP3    H141744   3.341   4.808   4.591 -0.1738  2.5373  1.1433
 6751TIP3    H241745   3.314   4.744   4.725 -0.0026 -2.0708 -0.8073
 6752TIP3   OH241746   1.723   3.888  11.729 -0.5512  0.2024  0.4164
 6752TIP3    H141747   1.689   3.860  11.644  1.1270 -1.2333  0.1605
 6752TIP3    H241748   1.766   3.810  11.764 -0.6437  0.9573  2.3014
 6753TIP3   OH241749   4.890   1.742   1.458  0.1233 -0.1300 -0.6922
 6753TIP3    H141750   4.979   1.746   1.492 -0.3754  1.6283  0.5737
 6753TIP3    H241751   4.862   1.652   1.471  0.2533  0.2241  2.9830
 6754TIP3   OH241752   6.143   4.194   0.878 -0.2191  0.4534  0.7836
 6754TIP3    H141753   6.058   4.150   0.884 -1.1142  1.9375 -0.3434
 6754TIP3    H241754   6.167   4.212   0.969 -0.2409 -1.4852  1.2274
 6755TIP3   OH241755   6.708   5.215  13.820  0.0296  0.2521  0.6563
 6755TIP3    H141756   6.683   5.156  13.748  0.8760  0.1338  0.4501
 6755TIP3    H241757   6.626   5.257  13.845 -0.6905 -1.3330  1.1060
 6756TIP3   OH241758   4.545   4.314  10.863 -0.6155 -0.1980 -0.3884
 6756TIP3    H141759   4.487   4.327  10.787 -0.1185 -0.3890 -0.8097
 6756TIP3    H241760   4.620   4.370  10.845 -0.5550 -0.1459  0.0319
 6757TIP3   OH241761   4.031   6.825  13.252  0.2512 -0.5498  0.1202
 6757TIP3    H141762   4.003   6.739  13.221  0.7656 -1.4964  2.1147
 6757TIP3    H241763   4.079   6.806  13.333  0.5913  1.6027  0.4630
 6758TIP3   OH241764   1.248   5.189  11.990  0.1435 -0.1682 -0.5132
 6758TIP3    H141765   1.191   5.252  12.033 -1.4035 -1.2297 -0.9478
 6758TIP3    H241766   1.337   5.216  12.016 -0.4391  2.1654 -0.7072
 6759TIP3   OH241767   3.918   3.573  12.655  0.5956  0.2442  0.0850
 6759TIP3    H141768   3.897   3.535  12.740  0.0797 -0.3035 -0.2762
 6759TIP3    H241769   3.834   3.607  12.623  0.8115  0.5538 -0.1490
 6760TIP3   OH241770   1.689   2.694   1.189 -0.2082  0.2644 -0.5899
 6760TIP3    H141771   1.630   2.670   1.117  1.0227  1.6695 -2.1373
 6760TIP3    H241772   1.672   2.628   1.256 -1.6212 -0.9310 -2.0285
 6761TIP3   OH241773   4.355   2.130  11.143 -0.0395 -0.1113 -0.2151
 6761TIP3    H141774   4.376   2.070  11.072  0.8161  0.8451 -0.7919
 6761TIP3    H241775   4.311   2.203  11.101 -0.1136  0.1663  0.3331
 6762TIP3   OH241776   0.745   6.424  14.577  0.3034  0.6986 -0.4328
 6762TIP3    H141777   0.768   6.415  14.484 -1.9549 -0.2780 -0.9761
 6762TIP3    H241778   0.804   6.365  14.623  0.0245 -0.4658 -1.5299
 6763TIP3   OH241779   2.859   0.083   3.422  0.2871  0.4059  0.5799
 6763TIP3    H141780   2.908   0.164   3.407  1.4725 -0.5711 -1.1835
 6763TIP3    H241781   2.777   0.112   3.462  0.4896  2.5219 -0.3888
 6764TIP3   OH241782   5.124   1.639  13.130 -0.3867  0.3910  0.1961
 6764TIP3    H141783   5.103   1.642  13.223  2.6771 -1.3286  1.0922
 6764TIP3    H241784   5.076   1.563  13.097  0.0365 -0.1863  0.8779
 6765TIP3   OH241785   0.633   5.432  12.161  0.2948 -0.2914  0.6018
 6765TIP3    H141786   0.594   5.466  12.080  2.3807 -0.2139 -0.4412
 6765TIP3    H241787   0.578   5.358  12.185 -2.1909  1.5139  0.8946
 6766TIP3   OH241788   0.521   0.630   1.091 -1.0842  0.2655  0.1987
 6766TIP3    H141789   0.483   0.677   1.017  0.1632  1.6571  0.3841
 6766TIP3    H241790   0.490   0.677   1.168 -0.3101  0.4519  0.4117
 6767TIP3   OH241791   1.300   4.564   6.360  0.2855 -0.1039  0.0896
 6767TIP3    H141792   1.308   4.643   6.413 -3.5981  1.0821 -0.6994
 6767TIP3    H241793   1.350   4.583   6.281  1.2488  0.5899  0.8477
 6768TIP3   OH241794   0.068   5.722   0.715 -0.0823  0.3101  0.2204
 6768TIP3    H141795   0.071   5.704   0.621  1.8200 -1.1905  0.4945
 6768TIP3    H241796   0.047   5.638   0.755 -1.9538  1.1667  1.1293
 6769TIP3   OH241797   2.415   5.439  15.979  0.2758  0.7210  0.0825
 6769TIP3    H141798   2.398   5.367  16.039  1.3049 -0.2305 -0.7266
 6769TIP3    H241799   2.390   5.518  16.028 -1.1086 -0.1801  0.8889
 6770TIP3   OH241800   0.567   4.106  12.021  0.6408  0.0368 -0.3479
 6770TIP3    H141801   0.511   4.183  12.010 -0.5235 -0.7618 -0.0968
 6770TIP3    H241802   0.555   4.081  12.113  0.3818 -0.9271 -0.6384
 6771TIP3   OH241803   3.201   0.787  11.789  0.0253  0.4183 -0.1184
 6771TIP3    H141804   3.148   0.862  11.817  3.9523  3.1555  0.9396
 6771TIP3    H241805   3.206   0.731  11.866  0.2185  1.1659  0.4289
 6772TIP3   OH241806   1.053   6.836  16.401  0.4139  0.0381  0.0909
 6772TIP3    H141807   1.096   6.843  16.486  1.0569  0.1226 -0.2400
 6772TIP3    H241808   1.106   6.773  16.351 -0.5076 -0.7577  0.0825
 6773TIP3   OH241809   3.858   6.116  11.191  0.3158 -1.0015 -0.0495
 6773TIP3    H141810   3.881   6.059  11.264 -0.5444 -0.5419  0.5970
 6773TIP3    H241811   3.784   6.073  11.149  0.5411 -1.0516 -0.4003
 6774TIP3   OH241812   1.459   0.460  17.132 -0.1319 -0.6097 -0.1341
 6774TIP3    H141813   1.505   0.543  17.132  2.2422 -1.8533 -0.3066
 6774TIP3    H241814   1.522   0.397  17.167 -0.2765 -3.1495 -3.8923
 6775TIP3   OH241815   5.969   5.060   2.870 -0.3162  0.0395 -0.2751
 6775TIP3    H141816   6.002   4.988   2.923 -0.4138  0.8700  0.9374
 6775TIP3    H241817   5.969   5.025   2.781 -1.2814 -1.8083  0.3878
 6776TIP3   OH241818   2.572   3.212   3.888 -0.1014  0.4553  0.3154
 6776TIP3    H141819   2.539   3.282   3.832  0.1421 -0.3986 -0.9320
 6776TIP3    H241820   2.499   3.192   3.947 -1.3175 -0.3533 -1.3814
 6777TIP3   OH241821   1.868   2.798  10.985 -0.8020  0.4814 -0.1390
 6777TIP3    H141822   1.921   2.801  10.906 -1.9486  2.1208 -0.9010
 6777TIP3    H241823   1.877   2.885  11.024  0.1599 -0.4540  1.8577
 6778TIP3   OH241824   5.322   2.214   1.463 -0.0780  0.1369  0.3946
 6778TIP3    H141825   5.368   2.274   1.404 -0.5247  0.0561 -0.0459
 6778TIP3    H241826   5.231   2.216   1.432 -0.2447 -0.1845  0.8572
 6779TIP3   OH241827   5.266   6.641  16.938 -0.3322 -0.1980  0.1974
 6779TIP3    H141828   5.315   6.575  16.888 -2.5210 -0.3984 -1.8079
 6779TIP3    H241829   5.181   6.601  16.955 -0.3702  0.6733  2.3748
 6780TIP3   OH241830   1.374   4.508  16.534 -0.4223 -0.7034 -0.1836
 6780TIP3    H141831   1.284   4.484  16.553  0.0045 -3.7049 -1.3096
 6780TIP3    H241832   1.370   4.552  16.449 -0.9614  1.1593  0.7413
 6781TIP3   OH241833   4.110   3.988  11.822  0.4743  0.8340  0.4438
 6781TIP3    H141834   4.038   4.035  11.865 -0.5800 -0.3774  0.0886
 6781TIP3    H241835   4.100   3.897  11.852  0.4658  0.2038 -1.3342
 6782TIP3   OH241836   2.560   3.708   2.305 -0.4050  0.3456 -0.9891
 6782TIP3    H141837   2.566   3.623   2.261 -1.6510 -2.3080  3.2691
 6782TIP3    H241838   2.651   3.731   2.325 -0.1097 -1.6988  0.3615
 6783TIP3   OH241839   2.620   2.103   4.208  0.5848  0.5024 -0.3940
 6783TIP3    H141840   2.699   2.092   4.260  1.3360  0.0157 -1.6028
 6783TIP3    H241841   2.551   2.122   4.272  1.6548  0.8657  0.6750
 6784TIP3   OH241842   1.956   5.976  13.021  0.0270 -0.4690  0.6440
 6784TIP3    H141843   1.893   5.906  13.004 -1.6599  0.6587  1.9736
 6784TIP3    H241844   2.017   5.939  13.085  0.9506 -1.6556 -0.8502
 6785TIP3   OH241845   3.454   4.451  13.230  0.0478  0.5209  0.2615
 6785TIP3    H141846   3.488   4.454  13.140  1.4103  1.4221  0.7685
 6785TIP3    H241847   3.452   4.358  13.252 -1.8283  0.1471 -1.2184
 6786TIP3   OH241848   6.451   6.144  10.507 -0.5666  0.0527  0.3985
 6786TIP3    H141849   6.475   6.121  10.597 -0.3945  1.3147  0.7020
 6786TIP3    H241850   6.409   6.065  10.473 -0.5226 -0.4996  1.5432
 6787TIP3   OH241851   2.755   1.673  11.303  0.1134  0.1582  0.0314
 6787TIP3    H141852   2.829   1.731  11.316 -0.5108  0.7671  0.9348
 6787TIP3    H241853   2.731   1.685  11.211  1.0927 -0.0084 -0.2525
 6788TIP3   OH241854   1.472   0.552   0.864 -0.2161  0.0577  0.3529
 6788TIP3    H141855   1.499   0.505   0.943 -1.1333 -1.2994 -0.1053
 6788TIP3    H241856   1.439   0.484   0.805 -0.0984  1.1080 -0.9799
 6789TIP3   OH241857   2.751   1.180  11.068 -0.2607 -0.2823  0.2290
 6789TIP3    H141858   2.842   1.159  11.088 -0.2910  0.0557  0.7453
 6789TIP3    H241859   2.755   1.220  10.981  0.0559 -0.4479  0.1638
 6790TIP3   OH241860   5.861   0.619  14.569 -0.4234  0.3232  0.2965
 6790TIP3    H141861   5.772   0.622  14.534  0.0109 -2.2790 -1.2570
 6790TIP3    H241862   5.915   0.587  14.497  1.2495 -1.1368  2.0791
 6791TIP3   OH241863   3.323   1.591   3.521 -0.5476  0.3532  0.2885
 6791TIP3    H141864   3.289   1.527   3.458  0.6968  1.4885 -1.6454
 6791TIP3    H241865   3.260   1.589   3.593 -3.6889  0.9750 -2.2091
 6792TIP3   OH241866   1.177   6.798  14.235  0.1791  0.2876  0.3369
 6792TIP3    H141867   1.203   6.880  14.194 -0.8105  1.3238  1.7157
 6792TIP3    H241868   1.222   6.731  14.184 -0.0611  1.5735 -1.6703
 6793TIP3   OH241869   6.822   1.034  12.207 -0.1304  0.1524 -0.0185
 6793TIP3    H141870   6.852   1.055  12.295  0.4519 -2.8737  0.5972
 6793TIP3    H241871   6.902   1.011  12.159 -0.6169  0.2533 -0.9170
 6794TIP3   OH241872   5.081   0.583   5.563 -0.1126  0.5107  0.3065
 6794TIP3    H141873   5.071   0.488   5.574  0.2854  0.5665  1.2265
 6794TIP3    H241874   5.019   0.621   5.626  0.5894  0.8591  0.7909
 6795TIP3   OH241875   1.043   2.334   6.498  0.1116  0.0478  0.2867
 6795TIP3    H141876   1.075   2.251   6.462 -0.4304  0.0345 -0.1829
 6795TIP3    H241877   1.006   2.380   6.423 -0.6770  0.1929  0.7475
 6796TIP3   OH241878   2.449   1.792   4.084  0.4360  0.2526 -0.2539
 6796TIP3    H141879   2.519   1.852   4.107  0.3245 -0.0535  0.9163
 6796TIP3    H241880   2.439   1.736   4.160  1.4319 -2.1536 -1.7787
 6797TIP3   OH241881   1.247   0.442   4.975 -0.4802  0.2701  0.0508
 6797TIP3    H141882   1.170   0.464   4.923 -1.1175  0.9330  1.2379
 6797TIP3    H241883   1.241   0.498   5.052  2.2667  1.8429 -0.7273
 6798TIP3   OH241884   6.575   0.889  13.041 -0.1900 -0.7490  0.2574
 6798TIP3    H141885   6.667   0.868  13.057 -0.2695  0.1322  2.0959
 6798TIP3    H241886   6.533   0.803  13.028  0.5450 -1.3165  1.4638
 6799TIP3   OH241887   5.855   4.723   2.595  0.2725  0.2003  0.0659
 6799TIP3    H141888   5.844   4.704   2.502  0.2227  0.3950  0.0335
 6799TIP3    H241889   5.887   4.640   2.632  1.4894  0.4679 -0.3372
 6800TIP3   OH241890   5.851   4.959  15.309  0.2607 -0.1453  0.6776
 6800TIP3    H141891   5.910   4.944  15.383  0.6826  1.9907  0.8236
 6800TIP3    H241892   5.909   4.964  15.233 -0.0246 -0.7525  0.4107
 6801TIP3   OH241893   5.258   4.409   2.253  0.0900  0.5802  0.3152
 6801TIP3    H141894   5.318   4.348   2.209 -1.9227 -0.6159 -0.8898
 6801TIP3    H241895   5.184   4.355   2.280 -0.0904  1.8381  2.6636
 6802TIP3   OH241896   5.078   5.523   5.333  0.0354  0.4665  0.7198
 6802TIP3    H141897   5.169   5.549   5.319 -0.1480  0.7425  0.0193
 6802TIP3    H241898   5.040   5.594   5.384 -0.0902  0.9115  0.0180
 6803TIP3   OH241899   5.632   5.026   4.384  0.7724  0.4387 -0.5152
 6803TIP3    H141900   5.617   4.970   4.460  1.7416  0.1169 -0.5506
 6803TIP3    H241901   5.595   5.111   4.408 -0.1520 -0.0392 -0.2168
 6804TIP3   OH241902   4.155   4.647   6.005  0.0731 -0.1005 -0.0686
 6804TIP3    H141903   4.101   4.702   5.948 -0.5974 -1.1755 -0.4896
 6804TIP3    H241904   4.190   4.580   5.947 -0.1515 -0.8680  0.6636
 6805TIP3   OH241905   4.237   5.529   1.930 -0.9224 -0.3810  0.1407
 6805TIP3    H141906   4.265   5.620   1.939  0.4804 -0.8622  0.8601
 6805TIP3    H241907   4.202   5.523   1.841  2.1970  0.0743 -1.2461
 6806TIP3   OH241908   3.672   4.805   5.556 -0.4270  0.3635 -0.1953
 6806TIP3    H141909   3.727   4.748   5.502 -0.2014  0.0626  0.3374
 6806TIP3    H241910   3.583   4.788   5.526 -0.2672  0.5831 -0.8187
 6807TIP3   OH241911   3.628   0.189  14.033 -0.2579  0.5243 -0.5707
 6807TIP3    H141912   3.611   0.230  13.948 -0.1781 -1.7640 -1.7879
 6807TIP3    H241913   3.556   0.126  14.043  0.9619 -0.8332 -0.0456
 6808TIP3   OH241914   0.889   5.861  13.898 -0.1692 -0.5885  0.0357
 6808TIP3    H141915   0.820   5.799  13.920 -0.0938 -0.8168 -0.3630
 6808TIP3    H241916   0.953   5.852  13.968 -1.1883  0.6375  1.1757
 6809TIP3   OH241917   0.581   5.686   2.858  0.2564 -0.0102  0.2524
 6809TIP3    H141918   0.621   5.770   2.835 -0.1317 -0.2349 -1.4220
 6809TIP3    H241919   0.534   5.703   2.939 -1.8066  2.0850 -1.2620
 6810TIP3   OH241920   5.606   2.676  11.332  0.2425 -0.7244 -0.1321
 6810TIP3    H141921   5.601   2.582  11.313 -0.7519 -0.7457  0.1759
 6810TIP3    H241922   5.699   2.697  11.326  0.5305 -1.8315  0.2307
 6811TIP3   OH241923   5.588   6.584  11.015  0.2147 -0.7029 -0.0900
 6811TIP3    H141924   5.567   6.506  11.065 -2.1692  0.7825  1.4630
 6811TIP3    H241925   5.587   6.655  11.080  0.3071  0.8753 -1.7289
 6812TIP3   OH241926   0.912   5.194   3.485  0.2059  0.2120 -0.3513
 6812TIP3    H141927   0.965   5.115   3.471 -0.4544 -1.2321  3.7491
 6812TIP3    H241928   0.821   5.162   3.485 -0.1537  1.1979  0.0422
 6813TIP3   OH241929   3.565   5.803   3.313  0.0183 -0.1340 -0.4069
 6813TIP3    H141930   3.528   5.885   3.280  1.5398  0.1367 -1.5294
 6813TIP3    H241931   3.528   5.735   3.257  0.4946  0.0315 -0.9229
 6814TIP3   OH241932   5.828   6.449   4.151  0.0210 -0.3477  0.3300
 6814TIP3    H141933   5.868   6.417   4.232 -1.5623  0.8255  1.6720
 6814TIP3    H241934   5.899   6.494   4.105  0.9695 -1.0573  1.0633
 6815TIP3   OH241935   4.840   3.727  16.878  0.0002  0.3474 -0.9449
 6815TIP3    H141936   4.872   3.645  16.840  0.7326 -0.0782  0.5165
 6815TIP3    H241937   4.861   3.720  16.971 -2.6438  0.8894 -0.2361
 6816TIP3   OH241938   3.698   0.862   2.028  0.1166  0.5780 -0.3880
 6816TIP3    H141939   3.634   0.909   1.974  0.7512 -0.2158 -1.8747
 6816TIP3    H241940   3.774   0.919   2.030 -0.1805  0.9713  0.3797
 6817TIP3   OH241941   6.410   0.774  12.205 -0.5435 -0.1765 -1.2230
 6817TIP3    H141942   6.393   0.722  12.126 -3.6660  0.0681 -0.8405
 6817TIP3    H241943   6.328   0.820  12.221 -0.0317 -0.2077  2.1728
 6818TIP3   OH241944   3.657   5.937  14.437 -0.5794  0.0294 -0.8906
 6818TIP3    H141945   3.624   5.992  14.508 -0.1703 -0.7749 -0.0577
 6818TIP3    H241946   3.732   5.984  14.402  0.1195 -0.2556  0.1930
 6819TIP3   OH241947   3.266   5.498  12.163 -0.3011  0.4966  0.2832
 6819TIP3    H141948   3.311   5.448  12.096  2.8210  1.3008  1.5857
 6819TIP3    H241949   3.296   5.461  12.246 -1.4380  1.6143  1.2502
 6820TIP3   OH241950   0.129   3.084  11.941  0.3149 -0.1663 -0.2767
 6820TIP3    H141951   0.182   3.006  11.947 -0.1182 -0.4831 -0.4888
 6820TIP3    H241952   0.192   3.156  11.939  0.7297 -0.5328 -0.5560
 6821TIP3   OH241953   2.591   2.751  12.955  0.2438 -0.6695 -0.0656
 6821TIP3    H141954   2.612   2.661  12.980  0.7907 -0.1849  1.3292
 6821TIP3    H241955   2.525   2.779  13.018 -0.7225 -0.4314 -1.1539
 6822TIP3   OH241956   6.031   2.608   1.287 -0.1326  0.0202 -0.9979
 6822TIP3    H141957   6.102   2.671   1.273  0.9618 -1.0771 -0.6164
 6822TIP3    H241958   6.027   2.598   1.382  0.5920 -1.4308 -1.0976
 6823TIP3   OH241959   0.431   5.560   5.537  0.3669  0.1720  0.6906
 6823TIP3    H141960   0.442   5.517   5.452 -0.7944 -0.6340  0.9255
 6823TIP3    H241961   0.365   5.508   5.583 -2.9254  3.3858  0.1274
 6824TIP3   OH241962   6.018   2.447  14.112 -0.0209 -0.2687 -0.3760
 6824TIP3    H141963   6.063   2.488  14.038  1.3765 -0.3177  0.4169
 6824TIP3    H241964   5.980   2.367  14.076 -0.0459  0.1054 -1.2067
 6825TIP3   OH241965   1.600   6.825  14.713  0.0928  0.1199  0.0551
 6825TIP3    H141966   1.562   6.894  14.659  2.2901  0.3179 -1.3428
 6825TIP3    H241967   1.678   6.866  14.752  0.2832 -0.9811  0.8785
 6826TIP3   OH241968   3.857   4.196  13.432 -0.3866 -0.2071  0.1297
 6826TIP3    H141969   3.847   4.289  13.454 -0.6267 -0.0661 -0.5612
 6826TIP3    H241970   3.892   4.196  13.342  1.6687 -0.7420  0.8553
 6827TIP3   OH241971   6.382   1.600   5.204  0.3223 -0.3421  0.5344
 6827TIP3    H141972   6.304   1.548   5.185 -1.2387  1.8961  0.3730
 6827TIP3    H241973   6.453   1.536   5.207 -1.3998 -2.4153  0.1035
 6828TIP3   OH241974   4.633   3.997  13.541 -0.0421 -0.4235  0.3393
 6828TIP3    H141975   4.630   4.090  13.565 -1.5035  0.2035 -1.9091
 6828TIP3    H241976   4.720   3.985  13.503 -0.0094  0.1657  0.2195
 6829TIP3   OH241977   0.999   3.846  16.950 -0.5760  0.0283 -0.2170
 6829TIP3    H141978   0.998   3.933  16.989 -0.4069  0.4440 -1.1146
 6829TIP3    H241979   0.914   3.808  16.973 -0.4707  0.2477  0.5583
 6830TIP3   OH241980   2.214   0.266   5.424  0.4250 -0.1213  0.5520
 6830TIP3    H141981   2.274   0.248   5.352 -0.8902  2.0304 -1.2049
 6830TIP3    H241982   2.217   0.187   5.478  1.4213 -1.8630 -1.8633
 6831TIP3   OH241983   0.777   6.114  15.835 -0.7050  0.3742  0.3490
 6831TIP3    H141984   0.863   6.074  15.827 -1.4013 -1.2258  0.4156
 6831TIP3    H241985   0.793   6.208  15.827  1.0532  0.1250  0.5509
 6832TIP3   OH241986   0.824   2.613   2.948  0.5041  0.7334 -0.2031
 6832TIP3    H141987   0.824   2.708   2.961 -0.5056  0.7290 -0.1316
 6832TIP3    H241988   0.868   2.578   3.026 -1.8401  0.9634  1.3040
 6833TIP3   OH241989   6.001   4.623   5.283  0.2182 -0.2478  0.3564
 6833TIP3    H141990   6.069   4.661   5.338 -0.2110 -0.0944  0.7912
 6833TIP3    H241991   6.004   4.673   5.202  0.3257  0.0432  0.5408
 6834TIP3   OH241992   5.680   1.418   6.458 -0.1484 -0.4090 -0.1087
 6834TIP3    H141993   5.680   1.480   6.531 -0.4840  0.5726 -0.9142
 6834TIP3    H241994   5.660   1.333   6.498 -0.6688  0.1676  0.8864
 6835TIP3   OH241995   5.177   0.759  12.874  0.0388  0.1952 -0.3169
 6835TIP3    H141996   5.256   0.727  12.918  0.1464  0.8076 -0.0535
 6835TIP3    H241997   5.157   0.841  12.918 -1.5269 -0.5919  0.5192
 6836TIP3   OH241998   3.681   2.176  13.374  0.2116  0.1541 -0.3062
 6836TIP3    H141999   3.764   2.171  13.420  0.2813 -0.2850 -0.4778
 6836TIP3    H242000   3.652   2.085  13.365  1.1632  0.0398 -2.8775
 6837TIP3   OH242001   0.394   6.823  12.745  0.0450  0.1167  0.4842
 6837TIP3    H142002   0.320   6.874  12.778 -0.5264 -0.3720 -0.0152
 6837TIP3    H242003   0.356   6.739  12.720  0.3165  0.5994 -1.8199
 6838TIP3   OH242004   3.302   4.492  14.978 -0.6676  0.1771  0.5150
 6838TIP3    H142005   3.279   4.418  15.034 -1.8282 -0.3595 -0.6001
 6838TIP3    H242006   3.388   4.470  14.943 -0.5313 -0.1212  1.0231
 6839TIP3   OH242007   4.345   4.694   2.529 -0.2638 -0.1622  0.0716
 6839TIP3    H142008   4.384   4.614   2.494  0.8206  0.2165  0.3958
 6839TIP3    H242009   4.386   4.706   2.615  0.1104  1.1056 -0.2570
 6840TIP3   OH242010   1.959   1.948  12.727  0.1536  0.1818  0.1525
 6840TIP3    H142011   1.892   1.996  12.677  0.9652  2.1472  0.8488
 6840TIP3    H242012   1.910   1.878  12.770 -1.1857  0.6218 -0.5760
 6841TIP3   OH242013   1.381   0.234  12.947 -0.0037  0.0300  0.1750
 6841TIP3    H142014   1.368   0.160  12.888 -0.5740 -0.5149  0.9758
 6841TIP3    H242015   1.405   0.307  12.888 -2.0122 -0.1062 -0.9078
 6842TIP3   OH242016   4.748   0.239   1.082  0.3277 -0.0070 -0.3213
 6842TIP3    H142017   4.774   0.152   1.052 -0.1230 -0.2088 -0.1418
 6842TIP3    H242018   4.720   0.284   1.002  0.3256 -0.1152 -0.3827
 6843TIP3   OH242019   5.208   6.178  11.861  0.6054 -0.6372  0.0958
 6843TIP3    H142020   5.274   6.169  11.929  0.4679  0.6730  0.4361
 6843TIP3    H242021   5.125   6.159  11.906  0.6917 -2.0186 -0.2693
 6844TIP3   OH242022   2.274   6.270  16.618  0.1459  0.2127  0.3496
 6844TIP3    H142023   2.258   6.299  16.528 -1.7040 -0.1196  0.5230
 6844TIP3    H242024   2.333   6.336  16.655 -0.2034  1.1301 -0.6796
 6845TIP3   OH242025   3.699   1.001   3.223 -0.0103  0.6206 -0.1013
 6845TIP3    H142026   3.680   1.094   3.215 -0.8618  0.3596 -1.4450
 6845TIP3    H242027   3.639   0.959   3.161 -1.9594 -1.1330  2.7208
 6846TIP3   OH242028   4.840   4.317   5.577  0.4637  0.4447  0.1790
 6846TIP3    H142029   4.915   4.287   5.525  0.5311  0.3673  0.3209
 6846TIP3    H242030   4.878   4.376   5.642  0.2683  1.2477 -0.4257
 6847TIP3   OH242031   4.396   0.748   3.912 -0.4244 -0.3978 -0.5698
 6847TIP3    H142032   4.474   0.696   3.891 -1.0419 -2.1041  1.0283
 6847TIP3    H242033   4.397   0.819   3.848  2.1916 -0.5917 -0.8798
 6848TIP3   OH242034   5.220   0.139  13.331  0.2208  0.2533  0.4840
 6848TIP3    H142035   5.273   0.094  13.265  0.6525  0.3620  0.7539
 6848TIP3    H242036   5.160   0.072  13.363 -0.5077  0.3847 -0.5511
 6849TIP3   OH242037   0.001   4.744  16.619  0.4769 -0.2593  0.0070
 6849TIP3    H142038  -0.024   4.836  16.630 -0.8066 -0.4522 -1.0736
 6849TIP3    H242039  -0.006   4.728  16.525  2.4896 -0.9896 -0.0763
 6850TIP3   OH242040   2.610   5.878   0.348  0.1859  0.0964 -0.5387
 6850TIP3    H142041   2.516   5.858   0.348  0.1951  0.0224  0.2178
 6850TIP3    H242042   2.614   5.970   0.321 -0.2916  0.7740  1.4477
 6851TIP3   OH242043   0.288   3.408   2.853 -0.2416  0.2971 -0.7300
 6851TIP3    H142044   0.263   3.492   2.815 -1.7416  0.0407 -0.3780
 6851TIP3    H242045   0.265   3.343   2.785  1.1913  0.1701 -1.1263
 6852TIP3   OH242046   3.784   6.544  11.705 -0.2076  0.6796  0.2207
 6852TIP3    H142047   3.722   6.501  11.645 -1.0452  1.9823  0.1114
 6852TIP3    H242048   3.813   6.474  11.764 -0.1916 -0.3947 -1.0259
 6853TIP3   OH242049   3.699   0.250   0.538 -0.2315  0.1169 -0.1094
 6853TIP3    H142050   3.671   0.327   0.490  0.8068 -0.5739 -1.9441
 6853TIP3    H242051   3.764   0.283   0.601 -2.0676  1.1239  1.3432
 6854TIP3   OH242052   4.519   2.531   4.795  0.5354  0.6851 -0.2610
 6854TIP3    H142053   4.537   2.566   4.883  0.6507  1.2050 -0.4875
 6854TIP3    H242054   4.595   2.477   4.775  0.0721 -0.2211  0.3490
 6855TIP3   OH242055   6.685   5.729   4.266 -0.0739 -0.0005  0.0844
 6855TIP3    H142056   6.769   5.732   4.221 -0.4773 -0.7380 -0.7315
 6855TIP3    H242057   6.633   5.797   4.223 -0.8695 -1.5118 -1.4491
 6856TIP3   OH242058   4.913   5.121   3.055  0.4104 -0.1354 -0.1264
 6856TIP3    H142059   4.980   5.109   3.123 -2.0967 -0.1634  2.5373
 6856TIP3    H242060   4.962   5.149   2.977  3.5248 -0.7321  1.4771
 6857TIP3   OH242061   0.789   5.268   2.856  0.4924  0.0001  0.0745
 6857TIP3    H142062   0.814   5.353   2.821  2.1179 -0.4572  0.0644
 6857TIP3    H242063   0.869   5.216   2.853 -0.6012 -1.7516 -0.5460
 6858TIP3   OH242064   3.446   2.269  12.730  0.1476 -0.3304 -0.0821
 6858TIP3    H142065   3.503   2.283  12.654 -1.7514 -2.5005 -2.0839
 6858TIP3    H242066   3.423   2.357  12.759  0.8151  0.5996 -2.1287
 6859TIP3   OH242067   5.017   2.713  12.777 -0.1063 -0.1237 -0.0776
 6859TIP3    H142068   5.070   2.763  12.840  1.7746 -1.7907 -0.2309
 6859TIP3    H242069   4.969   2.780  12.728  1.6530  1.4980  0.2696
 6860TIP3   OH242070   2.297   1.591  11.510 -0.2507  0.3526 -0.1973
 6860TIP3    H142071   2.293   1.668  11.453  0.9508 -0.5724 -1.6173
 6860TIP3    H242072   2.345   1.621  11.587  0.7726  0.9162 -1.0098
 6861TIP3   OH242073   4.656   4.691  14.091 -0.6164 -0.1253  0.6035
 6861TIP3    H142074   4.595   4.629  14.132  0.0185 -2.3886 -1.6295
 6861TIP3    H242075   4.599   4.752  14.044 -1.2429 -1.0803  0.0795
 6862TIP3   OH242076   0.920   0.138   5.869  0.2730  0.6433 -0.7399
 6862TIP3    H142077   0.988   0.202   5.889 -0.2171  1.4448 -1.5387
 6862TIP3    H242078   0.961   0.053   5.882  1.6043  1.1050 -1.7943
 6863TIP3   OH242079   2.865   3.064   5.699  0.1111 -0.7208  0.6380
 6863TIP3    H142080   2.899   3.058   5.789  0.2313 -2.4936  0.5175
 6863TIP3    H242081   2.924   3.009   5.648  0.0451  0.2787 -0.5457
 6864TIP3   OH242082   2.155   3.151   1.691  0.0678 -0.3456 -0.2228
 6864TIP3    H142083   2.169   3.108   1.775  0.8126 -1.7888 -1.0582
 6864TIP3    H242084   2.060   3.159   1.684 -0.0339 -0.8405  0.4367
 6865TIP3   OH242085   5.411   0.215  14.429 -0.0125 -0.2857 -0.0094
 6865TIP3    H142086   5.366   0.297  14.411  0.6081  0.4314  1.5299
 6865TIP3    H242087   5.346   0.161  14.473 -0.5645 -0.8256 -1.4457
 6866TIP3   OH242088   5.252   3.743  11.350 -0.0064  0.2547 -0.7028
 6866TIP3    H142089   5.196   3.806  11.305 -0.6915 -1.2962 -2.1688
 6866TIP3    H242090   5.313   3.796  11.402  0.8888  2.2315 -3.5288
 6867TIP3   OH242091   4.943   3.461   3.264 -0.4077  0.1389 -0.0255
 6867TIP3    H142092   5.012   3.526   3.252  0.1473 -0.0706  1.7113
 6867TIP3    H242093   4.971   3.387   3.210 -0.3963  0.8531 -1.0244
 6868TIP3   OH242094   5.690   0.357  11.432 -0.4270 -0.2750 -0.2765
 6868TIP3    H142095   5.619   0.382  11.373 -2.0753  0.7916  2.0041
 6868TIP3    H242096   5.664   0.270  11.464  0.3840 -0.7849 -0.9591
 6869TIP3   OH242097   1.429   1.805   3.366 -0.3840  0.3877 -0.2741
 6869TIP3    H142098   1.369   1.872   3.333 -0.0132  1.4122  1.0850
 6869TIP3    H242099   1.507   1.813   3.311 -0.8496  0.1443 -0.9879
 6870TIP3   OH242100   3.490   0.174   5.463 -0.0334  0.1411 -0.0241
 6870TIP3    H142101   3.482   0.197   5.370 -1.4483 -1.1081 -0.2441
 6870TIP3    H242102   3.571   0.217   5.491  1.4777 -1.0296 -2.3125
 6871TIP3   OH242103   0.923   0.489   6.402  0.5819 -0.1380 -0.5890
 6871TIP3    H142104   0.925   0.552   6.329  0.4752  0.5636 -0.0057
 6871TIP3    H242105   1.005   0.503   6.448  0.7903 -0.8053 -0.7569
 6872TIP3   OH242106   3.617   5.365  12.873  0.3176 -0.3276  0.0018
 6872TIP3    H142107   3.582   5.447  12.908 -0.2874 -1.5231  2.3319
 6872TIP3    H242108   3.540   5.317  12.842  0.4572 -0.8046  0.3824
 6873TIP3   OH242109   4.451   1.889  14.785 -0.3971 -0.0566 -0.5597
 6873TIP3    H142110   4.495   1.974  14.791 -1.1240  0.3907 -1.3231
 6873TIP3    H242111   4.502   1.840  14.722 -0.6501  0.2555 -1.0146
 6874TIP3   OH242112   3.282   4.949   0.770  0.1592 -0.1303 -0.3092
 6874TIP3    H142113   3.351   5.007   0.804 -0.4599 -0.0230  0.8429
 6874TIP3    H242114   3.282   4.964   0.676 -1.0958  3.0425  0.0824
 6875TIP3   OH242115   1.672   4.101  15.768 -0.5224 -0.1855  0.1450
 6875TIP3    H142116   1.726   4.170  15.729  0.7625 -0.3397  1.5906
 6875TIP3    H242117   1.668   4.033  15.700  0.0315  0.3758 -0.4669
 6876TIP3   OH242118   2.202   1.048   5.875  0.3418  0.8966 -0.0221
 6876TIP3    H142119   2.149   0.986   5.825  1.0930  0.9080 -0.8720
 6876TIP3    H242120   2.234   0.998   5.950  1.1495  0.1528 -0.8301
 6877TIP3   OH242121   4.584   5.181  12.237  0.0063  0.4217 -0.3561
 6877TIP3    H142122   4.676   5.155  12.249 -0.0074  0.1839 -0.7447
 6877TIP3    H242123   4.546   5.177  12.325  0.1891 -0.1729 -0.2993
 6878TIP3   OH242124   4.434   5.671  15.483 -0.2219  0.1167 -0.8615
 6878TIP3    H142125   4.490   5.630  15.417  1.7367  0.0709  0.7004
 6878TIP3    H242126   4.405   5.599  15.538  0.1128  0.3859 -0.3196
 6879TIP3   OH242127   1.436   3.226  12.214  0.3575 -0.1253 -0.1837
 6879TIP3    H142128   1.492   3.237  12.291 -1.1720  0.7877  0.8652
 6879TIP3    H242129   1.365   3.170  12.245  0.7497 -1.4268 -1.5463
 6880TIP3   OH242130   1.184   0.927   2.693  0.2561 -0.0438 -0.0800
 6880TIP3    H142131   1.096   0.890   2.686 -0.4687  1.6988 -0.6219
 6880TIP3    H242132   1.242   0.852   2.683 -1.1268 -0.9371 -1.9970
 6881TIP3   OH242133   5.347   0.710   4.074 -0.1149  0.4749  0.1897
 6881TIP3    H142134   5.411   0.662   4.126 -0.9028  0.1160  0.8438
 6881TIP3    H242135   5.362   0.680   3.984  0.7618  0.5463  0.3048
 6882TIP3   OH242136   4.375   5.534   3.702 -0.4149 -0.0009 -0.2896
 6882TIP3    H142137   4.300   5.556   3.757 -0.1832 -2.1618  1.0061
 6882TIP3    H242138   4.352   5.450   3.663  1.2807 -0.7029  0.1336
 6883TIP3   OH242139   3.326   4.292   4.006  0.8422  0.4109 -0.6483
 6883TIP3    H142140   3.341   4.294   4.100  2.4573 -2.0941 -0.7463
 6883TIP3    H242141   3.231   4.294   3.996  0.5286 -1.5819  1.2181
 6884TIP3   OH242142   6.384   4.691  11.984  0.6788  0.0633 -0.0754
 6884TIP3    H142143   6.380   4.769  11.929  0.3084 -0.7081 -1.1722
 6884TIP3    H242144   6.477   4.672  11.992  0.6964 -0.8420 -1.9589
 6885TIP3   OH242145   5.514   1.171   5.373 -0.0329  0.3346  0.3766
 6885TIP3    H142146   5.598   1.142   5.409 -0.4762  0.4525  1.5304
 6885TIP3    H242147   5.450   1.151   5.441 -0.9373  0.3467 -0.4461
 6886TIP3   OH242148   1.604   3.120  15.047 -0.1505  0.1260 -0.4777
 6886TIP3    H142149   1.535   3.140  14.984 -0.2096 -0.9756 -0.7769
 6886TIP3    H242150   1.675   3.085  14.994  1.0311  2.1193 -0.2843
 6887TIP3   OH242151   2.578   2.443   2.308 -0.0333  1.0291 -0.3110
 6887TIP3    H142152   2.657   2.393   2.289 -1.2836 -0.5944 -1.5674
 6887TIP3    H242153   2.512   2.407   2.248 -1.9112  1.8397  1.1725
 6888TIP3   OH242154   3.710   3.811  10.360 -0.3515  0.1802 -0.4700
 6888TIP3    H142155   3.782   3.823  10.298 -1.1405  1.7436 -1.1326
 6888TIP3    H242156   3.727   3.725  10.400  1.5394  0.2499 -1.0285
 6889TIP3   OH242157   2.557   5.261  13.751  0.1300  0.6493 -0.0497
 6889TIP3    H142158   2.502   5.334  13.724  0.7293  0.0065 -3.4884
 6889TIP3    H242159   2.646   5.294  13.745  0.3376  0.6793  2.2033
 6890TIP3   OH242160   4.358   5.229  11.273  0.5694  0.0745  0.2320
 6890TIP3    H142161   4.376   5.137  11.294 -1.6527 -0.5506 -0.2579
 6890TIP3    H242162   4.356   5.231  11.177  1.0255  0.7459  0.2324
 6891TIP3   OH242163   5.139   6.232  13.812  0.3627  0.4827 -0.8912
 6891TIP3    H142164   5.177   6.312  13.846 -1.1838  0.4149  1.1270
 6891TIP3    H242165   5.075   6.261  13.747 -0.7725  0.9908  0.4014
 6892TIP3   OH242166   3.662   3.242   1.847 -0.4107 -0.3265 -0.1671
 6892TIP3    H142167   3.756   3.253   1.833 -0.7416  1.6231 -1.1811
 6892TIP3    H242168   3.639   3.312   1.909 -0.8199 -2.3143  2.0657
 6893TIP3   OH242169   4.984   6.032   5.926 -0.7036 -0.5688 -0.1055
 6893TIP3    H142170   4.907   6.085   5.950  0.1560  0.2729  0.9240
 6893TIP3    H242171   4.982   6.028   5.830 -2.4738 -1.2745 -0.0787
 6894TIP3   OH242172   0.253   1.139  13.404  0.2264  0.1304  0.1591
 6894TIP3    H142173   0.295   1.225  13.399  1.8783 -0.6031  0.6836
 6894TIP3    H242174   0.235   1.127  13.497 -2.2165  0.8698 -0.1488
 6895TIP3   OH242175   6.372   1.744  12.163  0.1418 -0.3198 -0.3575
 6895TIP3    H142176   6.433   1.805  12.123 -0.9307  2.7396  2.2382
 6895TIP3    H242177   6.421   1.704  12.234  0.0444 -0.3570 -0.3119
 6896TIP3   OH242178   4.594   2.463   0.108 -0.0865  0.7634 -0.0154
 6896TIP3    H142179   4.573   2.393   0.169  1.7058  0.3778  0.2071
 6896TIP3    H242180   4.620   2.418   0.028  1.0113  1.1491  0.1048
 6897TIP3   OH242181   0.445   2.917   3.802  0.4749 -0.0562 -0.1235
 6897TIP3    H142182   0.444   2.893   3.709  1.0864 -0.7102  0.0315
 6897TIP3    H242183   0.474   3.009   3.803 -0.8512  0.3901 -0.6549
 6898TIP3   OH242184   3.354   4.745  12.128 -0.3248 -0.0977 -0.0794
 6898TIP3    H142185   3.332   4.821  12.180 -1.3714 -0.2757 -0.2467
 6898TIP3    H242186   3.321   4.670  12.178  1.8126 -0.5834  0.7119
 6899TIP3   OH242187   3.179   3.095   1.941  0.4140  0.3907  0.6959
 6899TIP3    H142188   3.187   3.188   1.961  0.1363  0.4863  0.3665
 6899TIP3    H242189   3.260   3.073   1.894  0.5289  0.4404  0.8708
 6900TIP3   OH242190   1.872   3.590   5.702 -0.4321  0.3950 -0.5554
 6900TIP3    H142191   1.896   3.531   5.774 -2.7477  0.5043  0.3960
 6900TIP3    H242192   1.915   3.552   5.626  0.5643 -0.8192  0.5483
 6901TIP3   OH242193   1.537   3.780   1.013  0.1326 -0.2251  0.4767
 6901TIP3    H142194   1.450   3.808   0.983  0.2651 -0.3002  0.0024
 6901TIP3    H242195   1.564   3.848   1.075 -0.8197 -0.8968  1.6669
 6902TIP3   OH242196   4.238   0.607  12.392  0.3153  0.1202  0.4809
 6902TIP3    H142197   4.285   0.571  12.317 -0.9872  0.9970 -0.7947
 6902TIP3    H242198   4.148   0.579  12.380  0.2574 -0.5921  2.2985
 6903TIP3   OH242199   4.135   6.521  12.526  0.9628 -0.2628 -0.1931
 6903TIP3    H142200   4.046   6.539  12.494  1.3935  0.0201 -1.2843
 6903TIP3    H242201   4.192   6.568  12.465  2.0005 -2.7974 -1.3245
 6904TIP3   OH242202   0.993   4.321   3.221 -0.0554  0.7843  0.0165
 6904TIP3    H142203   1.012   4.341   3.129 -0.6891  1.4671  0.0281
 6904TIP3    H242204   0.917   4.264   3.217  0.9513 -0.6264  0.0513
 6905TIP3   OH242205   1.840   2.895   0.324 -0.5013  0.8750  0.7677
 6905TIP3    H142206   1.775   2.826   0.340  1.0378 -0.9209 -0.3589
 6905TIP3    H242207   1.820   2.927   0.236 -0.9740  1.6106  1.1380
 6906TIP3   OH242208   5.779   5.604   1.140 -0.0119  0.1354 -0.1800
 6906TIP3    H142209   5.704   5.639   1.189 -1.3589 -0.7780 -1.4949
 6906TIP3    H242210   5.742   5.579   1.055  2.1948  1.4410 -1.5959
 6907TIP3   OH242211   5.269   2.048   6.867 -0.8315  0.2535  0.0082
 6907TIP3    H142212   5.236   1.980   6.809 -1.1512  0.1114  0.3472
 6907TIP3    H242213   5.364   2.047   6.856 -0.8365 -0.2489  0.0160
 6908TIP3   OH242214   4.652   4.575   0.171  1.0972 -0.1440  0.6622
 6908TIP3    H142215   4.560   4.591   0.152  0.8609 -0.8141  1.1644
 6908TIP3    H242216   4.675   4.639   0.238  0.5167 -1.0151  1.7407
 6909TIP3   OH242217   1.569   5.882  12.161 -0.1138  0.6296 -0.4179
 6909TIP3    H142218   1.540   5.972  12.174 -0.6756  0.3472  0.3264
 6909TIP3    H242219   1.495   5.829  12.189  1.4255 -0.1590  2.5599
 6910TIP3   OH242220   3.237   5.541   0.813 -0.0930 -0.2739  0.1792
 6910TIP3    H142221   3.232   5.553   0.718 -0.8977 -0.8026  0.1416
 6910TIP3    H242222   3.293   5.465   0.825 -0.8568 -0.8679  0.0645
 6911TIP3   OH242223   5.867   5.854   2.534 -0.2472 -0.3445  0.5206
 6911TIP3    H142224   5.940   5.913   2.548  0.1434 -0.8533  0.6874
 6911TIP3    H242225   5.809   5.900   2.474 -0.4902  0.6635  1.4976
 6912TIP3   OH242226   6.335   0.738  15.811 -0.2098  0.4932 -0.4698
 6912TIP3    H142227   6.243   0.765  15.810 -1.2981 -2.5417  1.7590
 6912TIP3    H242228   6.374   0.789  15.882 -1.2781 -0.9734  1.2489
 6913TIP3   OH242229   6.739   1.432  16.099  0.3225 -0.3314 -0.2224
 6913TIP3    H142230   6.743   1.488  16.021 -1.1158 -0.8083 -0.6645
 6913TIP3    H242231   6.823   1.386  16.100  1.1680  1.1350 -0.3556
 6914TIP3   OH242232   4.764   1.388  11.222  0.3279 -0.0631  0.0078
 6914TIP3    H142233   4.818   1.375  11.144 -0.0661 -0.5619 -0.1896
 6914TIP3    H242234   4.809   1.339  11.291 -1.2323 -2.7793 -0.7682
 6915TIP3   OH242235   1.788   5.146   0.730  0.2745  0.5506  0.0975
 6915TIP3    H142236   1.783   5.144   0.826  1.1272  0.2680  0.1371
 6915TIP3    H242237   1.715   5.090   0.702  0.6328 -0.1893  0.6044
 6916TIP3   OH242238   0.125   2.487  11.653 -0.2059 -0.2233  0.0146
 6916TIP3    H142239   0.169   2.448  11.728 -0.0642  0.0783  0.0910
 6916TIP3    H242240   0.078   2.562  11.689  0.1642  0.1416 -0.2548
 6917TIP3   OH242241   5.128   3.044  14.242  0.2330 -0.0662  0.5522
 6917TIP3    H142242   5.149   3.076  14.154 -0.5649 -1.4114 -0.1569
 6917TIP3    H242243   5.113   2.950  14.231 -3.0058  0.2172  1.4833
 6918TIP3   OH242244   0.299   6.517  15.809  0.6856 -0.2862  0.4209
 6918TIP3    H142245   0.384   6.544  15.845  0.5512  1.5800 -0.4984
 6918TIP3    H242246   0.309   6.529  15.714 -0.0072 -1.8850  0.1236
 6919TIP3   OH242247   4.700   5.900   2.718  0.0768  0.0269 -0.2790
 6919TIP3    H142248   4.634   5.899   2.787  1.8402 -0.6275  1.4838
 6919TIP3    H242249   4.681   5.823   2.665 -1.0198  0.2724 -0.2613
 6920TIP3   OH242250   5.380   0.788   0.810  0.0233  0.3447  0.1380
 6920TIP3    H142251   5.366   0.881   0.797 -0.5664 -0.0397 -2.5041
 6920TIP3    H242252   5.315   0.762   0.875  1.4932  2.0461  2.4668
 6921TIP3   OH242253   2.952   2.373   5.727 -0.6062 -0.3217 -0.7002
 6921TIP3    H142254   2.916   2.414   5.805 -0.6746  0.5323 -1.1760
 6921TIP3    H242255   2.877   2.332   5.685 -0.6009 -0.6218 -0.4254
 6922TIP3   OH242256   5.968   5.948   4.925  0.0517  0.2862 -0.1295
 6922TIP3    H142257   5.919   5.932   4.845 -0.6840 -1.4310  0.6251
 6922TIP3    H242258   5.979   6.043   4.928 -0.2685  0.4198 -2.0273
 6923TIP3   OH242259   4.878   5.849   0.185 -0.3587 -0.4884 -0.2534
 6923TIP3    H142260   4.923   5.842   0.101 -1.1902  0.8993 -0.8528
 6923TIP3    H242261   4.925   5.918   0.232 -0.6091 -0.4442 -0.0609
 6924TIP3   OH242262   5.060   6.057  11.474 -0.5723 -0.1193 -0.3098
 6924TIP3    H142263   4.999   6.101  11.533  0.8020  1.8478 -0.2476
 6924TIP3    H242264   5.125   6.124  11.452  1.9505 -2.2479  0.1531
 6925TIP3   OH242265   4.601   3.610   3.326 -0.0960 -0.7522  0.1149
 6925TIP3    H142266   4.598   3.618   3.421 -1.0916  1.8576 -0.0708
 6925TIP3    H242267   4.556   3.527   3.308 -0.8365 -0.7682  1.8528
 6926TIP3   OH242268   3.532   5.606   4.389  0.5393  0.5876 -0.0961
 6926TIP3    H142269   3.514   5.516   4.416  2.0634  0.1129 -0.5744
 6926TIP3    H242270   3.561   5.599   4.298 -0.7584  1.7458 -0.6504
 6927TIP3   OH242271   6.295   0.955  16.968  0.2017 -0.2561 -0.3503
 6927TIP3    H142272   6.230   0.895  16.931 -0.8134  1.4148 -1.3950
 6927TIP3    H242273   6.248   1.002  17.036  1.1799 -1.0530  0.9255
 6928TIP3   OH242274   5.823   0.566  14.014 -0.4154  0.0255 -0.0451
 6928TIP3    H142275   5.879   0.495  13.982 -2.1944 -1.2498 -0.5319
 6928TIP3    H242276   5.792   0.610  13.935 -0.9320  0.0136  0.1423
 6929TIP3   OH242277   0.594   2.306   4.931  0.7782 -0.2386 -0.3223
 6929TIP3    H142278   0.648   2.384   4.922 -0.1817  0.4266 -0.4750
 6929TIP3    H242279   0.504   2.339   4.928  0.3587 -1.2413  0.5325
 6930TIP3   OH242280   5.277   3.241  15.743  0.9139 -0.3037  0.3287
 6930TIP3    H142281   5.264   3.263  15.835  1.4484  0.0546  0.3266
 6930TIP3    H242282   5.201   3.188  15.720 -0.8164  2.0333  0.1771
 6931TIP3   OH242283   4.904   2.068   3.226 -0.0805  0.7285  0.9903
 6931TIP3    H142284   4.825   2.023   3.256 -0.6206  1.3728  0.5580
 6931TIP3    H242285   4.872   2.146   3.181  0.6889  0.0044 -0.9253
 6932TIP3   OH242286   6.368   4.491   4.452 -0.2355  0.0845 -0.0415
 6932TIP3    H142287   6.394   4.497   4.544 -1.3150 -3.2876  0.6151
 6932TIP3    H242288   6.288   4.543   4.447 -0.9525 -0.8180  1.3130
 6933TIP3   OH242289   0.255   2.372  15.198  0.2245 -0.4463 -0.0851
 6933TIP3    H142290   0.264   2.280  15.225  0.4398 -0.2178  0.6531
 6933TIP3    H242291   0.173   2.400  15.238  1.1830  0.2704  1.4989
 6934TIP3   OH242292   4.946   3.743   5.423 -0.0972 -0.9087  0.8726
 6934TIP3    H142293   4.986   3.745   5.509  0.1302 -1.1721  0.7728
 6934TIP3    H242294   4.877   3.676   5.429 -0.9198 -0.0612  1.2136
 6935TIP3   OH242295   5.854   1.904  16.556  0.1435 -0.2858 -0.0075
 6935TIP3    H142296   5.866   1.880  16.464 -2.0969  0.5600 -0.5868
 6935TIP3    H242297   5.840   1.999  16.554  1.8289  0.0510  1.4513
 6936TIP3   OH242298   2.788   2.347   4.697 -0.6904  0.3849 -0.5767
 6936TIP3    H142299   2.773   2.289   4.771 -0.9878  1.5699  0.3279
 6936TIP3    H242300   2.722   2.322   4.632 -0.2387 -0.8593 -0.5814
 6937TIP3   OH242301   1.915   6.637   5.469 -0.3400  0.4319  0.3147
 6937TIP3    H142302   1.988   6.626   5.530  0.7228  1.0217 -0.8213
 6937TIP3    H242303   1.946   6.702   5.406 -0.1847 -2.3609 -2.7293
 6938TIP3   OH242304   6.031   3.364  12.631 -0.2787 -0.0917 -0.4917
 6938TIP3    H142305   6.021   3.315  12.549 -2.7045  0.3475 -0.5507
 6938TIP3    H242306   6.044   3.297  12.698  4.6248 -0.3880 -1.3963
 6939TIP3   OH242307   3.098   0.712   1.609  0.2456 -0.5884 -0.2592
 6939TIP3    H142308   3.126   0.801   1.631  1.4578 -1.0414  0.1345
 6939TIP3    H242309   3.016   0.700   1.657  0.0519  0.3273 -0.3442
 6940TIP3   OH242310   4.750   0.701   3.008 -0.2193 -0.1066 -0.3662
 6940TIP3    H142311   4.840   0.669   3.013 -0.1687  0.2230  1.3176
 6940TIP3    H242312   4.733   0.740   3.093 -1.2957  1.6633 -1.3350
 6941TIP3   OH242313   2.781   0.804  12.053 -0.0558 -0.7368  0.0873
 6941TIP3    H142314   2.824   0.843  12.129 -0.9468 -0.4392  0.4468
 6941TIP3    H242315   2.832   0.725  12.035  2.3032  0.9287 -1.1454
 6942TIP3   OH242316   2.047   0.851  12.812 -0.1690 -0.0097  0.4959
 6942TIP3    H142317   1.996   0.824  12.889  0.2932  1.0791  1.2096
 6942TIP3    H242318   2.100   0.925  12.843  1.9328 -1.1485 -0.1777
 6943TIP3   OH242319   1.124   0.670  10.647  0.0081  0.0036 -0.0607
 6943TIP3    H142320   1.121   0.592  10.702  1.9123 -0.3509 -0.3843
 6943TIP3    H242321   1.043   0.668  10.597  0.1679 -1.9697 -0.3096
 6944TIP3   OH242322   6.105   6.008   6.647  0.5252  0.1024  0.0081
 6944TIP3    H142323   6.197   5.989   6.668  1.0534  1.6722 -0.6848
 6944TIP3    H242324   6.080   6.075   6.711 -0.6694 -1.4077  1.1906
 6945TIP3   OH242325   5.310   4.427   6.016  0.5593 -0.3317 -0.1054
 6945TIP3    H142326   5.377   4.481   6.058  0.0666  0.1816  0.0365
 6945TIP3    H242327   5.359   4.357   5.973  1.1789  0.0023  0.0452
 6946TIP3   OH242328   2.906   6.700   1.599 -0.3764 -0.0240 -0.5153
 6946TIP3    H142329   2.865   6.766   1.544  0.1865  0.4098 -0.4217
 6946TIP3    H242330   3.000   6.717   1.592 -0.2574 -0.4191  0.0033
 6947TIP3   OH242331   5.325   0.893   4.626  0.4620  0.0701  0.3224
 6947TIP3    H142332   5.375   0.832   4.571  1.4895  0.7700  0.4517
 6947TIP3    H242333   5.345   0.867   4.716 -2.9717 -2.5267  0.5390
 6948TIP3   OH242334   2.878   0.540  11.344  0.3199 -0.0064  0.0424
 6948TIP3    H142335   2.962   0.549  11.298 -0.0456  0.1542 -0.6071
 6948TIP3    H242336   2.827   0.615  11.314 -0.5525 -0.8534 -0.6373
 6949TIP3   OH242337   4.787   0.796   3.278 -0.6697  0.1921  0.0029
 6949TIP3    H142338   4.766   0.769   3.368 -0.0576  0.9623  0.3954
 6949TIP3    H242339   4.808   0.889   3.286 -1.6505  0.5251 -1.1240
 6950TIP3   OH242340   5.204   6.435   3.626  0.0448  0.0864 -0.7596
 6950TIP3    H142341   5.209   6.493   3.702  2.6626  0.5747 -1.2190
 6950TIP3    H242342   5.266   6.364   3.645 -0.0708 -0.3612 -1.9602
 6951TIP3   OH242343   2.945   3.690   3.162 -0.0694  0.1993 -0.4685
 6951TIP3    H142344   2.889   3.762   3.189 -1.0421 -0.3540 -0.9650
 6951TIP3    H242345   3.001   3.674   3.238 -1.0335  0.3315  0.2848
 6952TIP3   OH242346   1.900   6.089   1.371 -0.1464 -0.1532 -0.1066
 6952TIP3    H142347   1.995   6.088   1.361 -0.0471 -0.8258  0.7743
 6952TIP3    H242348   1.885   6.121   1.460 -0.6610 -1.7871  0.4250
 6953TIP3   OH242349   3.445   6.491   3.334  0.2260 -0.0714  0.3783
 6953TIP3    H142350   3.384   6.515   3.403 -0.1882  0.9553 -0.3161
 6953TIP3    H242351   3.449   6.568   3.277 -1.3708 -1.6953 -2.1304
 6954TIP3   OH242352   1.562   2.133  11.045  0.2950 -0.2911 -0.6679
 6954TIP3    H142353   1.583   2.140  10.952  4.9678  0.9402  0.2196
 6954TIP3    H242354   1.635   2.083  11.082 -1.7501 -1.3008  2.3030
 6955TIP3   OH242355   0.425   0.399  12.125 -0.2840  0.1122 -0.5958
 6955TIP3    H142356   0.360   0.453  12.081 -0.4397  3.5039  3.1717
 6955TIP3    H242357   0.381   0.367  12.203  1.6708  0.0301  0.5607
 6956TIP3   OH242358   2.884   3.668  15.875 -0.0191 -0.0501 -0.1211
 6956TIP3    H142359   2.932   3.666  15.792  2.4682 -0.8478  1.2185
 6956TIP3    H242360   2.793   3.685  15.850  0.8663  1.3031 -2.8724
 6957TIP3   OH242361   3.370   2.902   5.011  0.7556 -0.0110  0.3145
 6957TIP3    H142362   3.454   2.907   4.965 -0.6348 -1.5899 -2.6684
 6957TIP3    H242363   3.316   2.970   4.971 -0.6560 -1.7385 -0.8529
 6958TIP3   OH242364   5.968   2.036   5.070  0.1017  0.0110 -0.3007
 6958TIP3    H142365   5.984   2.073   5.157 -2.3653  0.3501  0.0702
 6958TIP3    H242366   5.873   2.027   5.065  0.0898  0.9195 -3.3529
 6959TIP3   OH242367   6.245   2.131   0.813  0.2510 -0.3938  0.2326
 6959TIP3    H142368   6.175   2.195   0.826 -0.8008 -1.4223 -0.1980
 6959TIP3    H242369   6.275   2.110   0.901  0.2042  0.2498  0.4069
 6960TIP3   OH242370   5.110   1.554   4.988 -0.2419  0.7532 -0.5300
 6960TIP3    H142371   5.142   1.530   5.075 -1.3202  1.3006  0.0392
 6960TIP3    H242372   5.048   1.485   4.966 -1.1040  1.4106 -0.1941
 6961TIP3   OH242373   4.781   4.463   2.426 -0.1237 -0.2218 -0.3640
 6961TIP3    H142374   4.776   4.373   2.393 -1.8487  0.5819 -2.5541
 6961TIP3    H242375   4.767   4.455   2.520  0.7131 -2.3048 -0.3611
 6962TIP3   OH242376   3.541   5.060  11.989 -0.6074  0.7407  0.1854
 6962TIP3    H142377   3.545   5.060  12.084  3.1594  1.2852  0.1991
 6962TIP3    H242378   3.547   4.968  11.964 -2.2146  0.5526  0.4342
 6963TIP3   OH242379   0.592   1.299   1.511 -0.4151 -0.4147 -0.2381
 6963TIP3    H142380   0.552   1.355   1.577  1.2441  0.6273 -0.0728
 6963TIP3    H242381   0.654   1.356   1.465 -0.3496 -1.5331 -1.6280
 6964TIP3   OH242382   6.536   0.853   2.147 -0.2377 -0.1580  0.3982
 6964TIP3    H142383   6.629   0.875   2.159 -0.1991 -0.2059  0.1890
 6964TIP3    H242384   6.490   0.913   2.205 -0.0343 -0.5882  1.0184
 6965TIP3   OH242385   2.331   3.956  14.942  0.1851  0.5823 -0.1440
 6965TIP3    H142386   2.340   3.893  15.014 -1.4816  0.6566  0.1634
 6965TIP3    H242387   2.278   4.027  14.978 -0.7499  0.5866 -1.4690
 6966TIP3   OH242388   0.714   3.244   1.483 -0.1754 -0.1832 -0.1266
 6966TIP3    H142389   0.749   3.319   1.434  1.4693  0.4050  1.8452
 6966TIP3    H242390   0.767   3.170   1.454  1.0417  0.2301  0.9443
 6967TIP3   OH242391   0.958   0.691  13.354  0.1893  0.0235  0.3762
 6967TIP3    H142392   1.011   0.721  13.280  0.8044  0.1810  0.8747
 6967TIP3    H242393   1.021   0.668  13.421 -0.3546 -0.4709  0.7265
 6968TIP3   OH242394   4.805   5.685  13.249 -0.0123 -0.3111 -0.0117
 6968TIP3    H142395   4.812   5.627  13.173 -0.0880 -0.2544 -0.0611
 6968TIP3    H242396   4.890   5.675  13.294 -0.4988 -1.4541  0.7046
 6969TIP3   OH242397   6.534   5.616   0.746  0.9445 -0.7371 -0.0505
 6969TIP3    H142398   6.540   5.681   0.815  0.2692 -0.1510 -0.5264
 6969TIP3    H242399   6.441   5.592   0.743  0.7442  0.0543 -1.4485
 6970TIP3   OH242400   2.763   2.038   5.325 -0.9653  0.6991  0.7869
 6970TIP3    H142401   2.671   2.013   5.314 -0.7108 -0.1314  0.4650
 6970TIP3    H242402   2.812   1.958   5.308 -0.1881  1.0607  1.2420
 6971TIP3   OH242403   4.893   3.380   5.687  0.1645 -0.4055 -0.6321
 6971TIP3    H142404   4.859   3.308   5.633  1.7493 -1.2924 -0.4884
 6971TIP3    H242405   4.863   3.359   5.775  0.4821 -0.8079 -0.6180
 6972TIP3   OH242406   4.567   6.159   5.738 -0.1016 -0.6709  0.2352
 6972TIP3    H142407   4.568   6.066   5.762 -0.2439 -0.3835  1.3952
 6972TIP3    H242408   4.507   6.199   5.801  2.5281  0.7880  1.9582
 6973TIP3   OH242409   4.185   2.375   3.760 -0.3390  0.4479  0.5852
 6973TIP3    H142410   4.242   2.427   3.817 -0.7030  0.8399  0.5987
 6973TIP3    H242411   4.168   2.295   3.809 -0.4228  0.6622  0.9093
 6974TIP3   OH242412   0.548   6.045  15.720  0.1279 -0.0151  0.1566
 6974TIP3    H142413   0.628   6.070  15.766 -0.8480 -0.5464  2.3012
 6974TIP3    H242414   0.525   6.121  15.668  2.9786 -0.4811 -2.0533
 6975TIP3   OH242415   2.816   2.166  13.320  0.2859  0.0746  0.7246
 6975TIP3    H142416   2.783   2.241  13.369  0.6746  1.0913 -0.4941
 6975TIP3    H242417   2.901   2.146  13.360  1.0904  1.5680 -0.1348
 6976TIP3   OH242418   3.371   0.434  15.656  0.6250 -0.2886  0.7530
 6976TIP3    H142419   3.337   0.406  15.571 -0.5675 -0.0023  1.1181
 6976TIP3    H242420   3.311   0.503  15.684  1.4470  0.1458  1.4887
 6977TIP3   OH242421   2.667   1.753  15.310 -0.1374  0.5686 -0.1829
 6977TIP3    H142422   2.675   1.837  15.355 -1.0474  0.2905  0.5388
 6977TIP3    H242423   2.621   1.696  15.373  1.1825 -0.7183 -0.3288
 6978TIP3   OH242424   5.665   4.001  12.903 -0.5023  0.0942 -0.3777
 6978TIP3    H142425   5.616   4.079  12.928 -2.2677 -1.4334  1.2887
 6978TIP3    H242426   5.642   3.986  12.811 -0.4220  1.3206 -0.6098
 6979TIP3   OH242427   4.502   1.427  11.462  0.7326  0.8550 -0.0212
 6979TIP3    H142428   4.568   1.493  11.443 -0.0814  1.0665 -2.4212
 6979TIP3    H242429   4.420   1.465  11.431  0.0592 -0.7948 -0.3761
 6980TIP3   OH242430   3.131   4.950  12.668 -0.5729  0.1366  0.1787
 6980TIP3    H142431   3.040   4.940  12.698 -0.3021  0.2418  1.0659
 6980TIP3    H242432   3.131   5.032  12.619 -0.9786  0.0751  0.0671
 6981TIP3   OH242433   4.737   4.856   2.490  0.3643 -0.3588 -0.0863
 6981TIP3    H142434   4.832   4.858   2.497  0.2722  0.4602  1.3154
 6981TIP3    H242435   4.706   4.863   2.580 -1.0389 -2.0175 -0.3811
 6982TIP3   OH242436   5.319   1.051   2.997 -0.3724 -0.3621  0.2998
 6982TIP3    H142437   5.386   0.984   3.008 -0.8549 -0.9498 -0.2339
 6982TIP3    H242438   5.347   1.123   3.054  1.0815 -0.2980 -0.4316
 6983TIP3   OH242439   5.408   1.835   5.838 -0.1301  0.5365  0.2202
 6983TIP3    H142440   5.422   1.849   5.931  0.1386  0.7902  0.1453
 6983TIP3    H242441   5.352   1.757   5.833  1.1906 -0.4675  0.5344
 6984TIP3   OH242442   4.051   2.934   0.096  0.1149  0.1248 -0.3605
 6984TIP3    H142443   4.073   3.009   0.151  2.3314 -0.3504 -0.5064
 6984TIP3    H242444   3.969   2.901   0.132 -0.4577  2.0772  0.2454
 6985TIP3   OH242445   4.821   3.067   1.173  0.1682  0.7497  0.1971
 6985TIP3    H142446   4.755   3.013   1.129  1.1532 -1.3200  1.1348
 6985TIP3    H242447   4.774   3.147   1.198 -2.3550 -1.0949  1.8237
 6986TIP3   OH242448   5.665   4.079  16.015 -0.5075  0.3495  0.0137
 6986TIP3    H142449   5.678   4.166  15.978 -3.9002  1.0166  0.0790
 6986TIP3    H242450   5.574   4.057  15.995 -0.2238 -2.5592  1.3163
 6987TIP3   OH242451   1.418   2.047  15.212  0.2391  0.0452  0.2409
 6987TIP3    H142452   1.430   2.015  15.122  0.6438  0.6655  0.0727
 6987TIP3    H242453   1.366   2.127  15.202  0.4216  0.2031  0.5493
 6988TIP3   OH242454   0.522   0.996  13.355  0.6645 -0.2286 -0.4962
 6988TIP3    H142455   0.587   0.973  13.289  0.4109  0.6456 -1.0791
 6988TIP3    H242456   0.569   1.056  13.414  0.5653 -0.0988 -0.5495
 6989TIP3   OH242457   0.202   0.069  16.705 -0.2289 -0.1116  0.6235
 6989TIP3    H142458   0.156   0.141  16.748 -2.9720 -0.5509 -1.3291
 6989TIP3    H242459   0.133   0.012  16.672  1.7971 -2.0694 -0.5538
 6990TIP3   OH242460   1.874   6.690   5.153 -0.0844 -0.4791 -0.0259
 6990TIP3    H142461   1.886   6.784   5.169 -1.8449 -0.7345  3.7779
 6990TIP3    H242462   1.780   6.679   5.139 -0.2394 -1.8268  1.6829
 6991TIP3   OH242463   4.703   0.546   5.667  0.2681 -0.2341  0.4293
 6991TIP3    H142464   4.788   0.571   5.704  0.5141  0.2817 -0.4532
 6991TIP3    H242465   4.646   0.536   5.743  0.7279  0.8871  0.9467
 6992TIP3   OH242466   1.993   5.489   3.777 -0.3335 -0.2203  0.0511
 6992TIP3    H142467   2.032   5.527   3.698  1.4052  2.1077  1.9118
 6992TIP3    H242468   1.926   5.552   3.803 -0.8688 -0.9500  0.4745
 6993TIP3   OH242469   4.304   3.641  11.076  0.1269  0.1115 -0.2484
 6993TIP3    H142470   4.212   3.666  11.079  0.3402  0.9682 -0.4695
 6993TIP3    H242471   4.331   3.659  10.986  0.3060 -0.9363 -0.4200
 6994TIP3   OH242472   3.561   1.953  14.248  0.0210 -0.2208  0.1017
 6994TIP3    H142473   3.633   1.893  14.226 -0.7015 -1.5721  1.2096
 6994TIP3    H242474   3.571   1.968  14.343 -1.2590 -0.6061  0.3148
 6995TIP3   OH242475   6.472   4.590   3.389 -0.2610  0.7452 -0.5544
 6995TIP3    H142476   6.485   4.685   3.387  1.2733  0.5999  0.6874
 6995TIP3    H242477   6.394   4.578   3.443 -0.6907  1.3073 -1.0351
 6996TIP3   OH242478   5.570   0.898  13.654  0.4268 -0.4792 -0.3920
 6996TIP3    H142479   5.518   0.829  13.695 -2.1736  1.1378 -0.7490
 6996TIP3    H242480   5.564   0.971  13.716  0.3263  0.4834 -1.5195
 6997TIP3   OH242481   3.551   1.866  12.073 -1.0111  0.9176 -0.3191
 6997TIP3    H142482   3.585   1.779  12.098  0.1804  1.1967 -0.8818
 6997TIP3    H242483   3.456   1.856  12.075 -0.9108 -0.0877  0.7183
 6998TIP3   OH242484   5.223   1.024   0.435 -0.4684  0.0695 -0.3229
 6998TIP3    H142485   5.232   1.119   0.446 -0.7557  0.2409 -1.4252
 6998TIP3    H242486   5.181   1.014   0.350  1.2225 -1.0906 -1.0758
 6999TIP3   OH242487   4.885   6.557  12.471  0.0426 -0.3451  0.5495
 6999TIP3    H142488   4.900   6.616  12.545 -1.4382  0.8957 -0.0989
 6999TIP3    H242489   4.840   6.482  12.509  2.8978 -1.7063  1.5839
 7000TIP3   OH242490   3.425   4.725   0.925 -0.0160  0.1131 -0.0903
 7000TIP3    H142491   3.360   4.750   0.859  0.7864  1.5910 -0.3548
 7000TIP3    H242492   3.389   4.758   1.007  0.1634  0.4786 -0.1595
 7001TIP3   OH242493   1.252   1.409  15.269  0.1159 -0.3621 -0.1343
 7001TIP3    H142494   1.246   1.504  15.275 -0.7480 -0.4871  1.1932
 7001TIP3    H242495   1.162   1.380  15.256  0.1375 -1.1028  1.2578
 7002TIP3   OH242496   3.889   3.848  16.890  0.0049  0.1006  0.7266
 7002TIP3    H142497   3.965   3.897  16.857  0.4963  0.1146  1.8580
 7002TIP3    H242498   3.834   3.835  16.812  0.9930  0.3926 -0.0401
 7003TIP3   OH242499   4.858   1.138  12.831 -0.2379 -0.1794 -0.5431
 7003TIP3    H142500   4.826   1.136  12.922 -3.5785 -0.9972 -1.5916
 7003TIP3    H242501   4.913   1.060  12.823  0.1782 -0.0447  0.7821
 7004TIP3   OH242502   1.735   2.211  14.778 -0.6253 -0.3147  0.3134
 7004TIP3    H142503   1.679   2.273  14.732 -1.1841 -2.0777 -1.4988
 7004TIP3    H242504   1.819   2.255  14.786 -1.0163  0.6868 -0.9047
 7005TIP3   OH242505   1.982   2.617  10.540 -0.0370  0.1375 -0.0172
 7005TIP3    H142506   1.947   2.536  10.501  1.0654 -0.6741  0.6319
 7005TIP3    H242507   2.075   2.616  10.516 -0.1201  1.5241 -0.4872
 7006TIP3   OH242508   3.874   0.414  11.547  0.6195  0.2105  0.3044
 7006TIP3    H142509   3.920   0.352  11.604  1.4780  3.8472  4.1153
 7006TIP3    H242510   3.943   0.468  11.509 -0.1724 -0.0201 -1.5652
 7007TIP3   OH242511   1.104   4.281  12.049  0.2490 -0.6437  0.2158
 7007TIP3    H142512   1.027   4.230  12.025 -0.1652 -0.0078  0.1497
 7007TIP3    H242513   1.159   4.222  12.101 -0.3588 -1.0536  0.3899
 7008TIP3   OH242514   4.923   0.137   0.159  0.0641  0.2043 -0.1942
 7008TIP3    H142515   4.891   0.167   0.074  0.8156 -0.4021 -0.7045
 7008TIP3    H242516   4.852   0.156   0.220 -0.9979 -0.4846 -1.1722
 7009TIP3   OH242517   1.528   0.432   2.228 -0.7014  0.2520  0.6830
 7009TIP3    H142518   1.449   0.404   2.183  0.3352 -0.5967 -0.6754
 7009TIP3    H242519   1.508   0.520   2.260 -1.5059  0.8644 -1.3902
 7010TIP3   OH242520   2.405   2.910  11.512 -0.2954  0.2832 -0.0698
 7010TIP3    H142521   2.495   2.880  11.499 -0.2063  1.1916 -1.9905
 7010TIP3    H242522   2.410   3.005  11.502 -1.5849  0.2691 -1.2234
 7011TIP3   OH242523   5.439   3.427   6.212 -0.6423  0.6789  0.5329
 7011TIP3    H142524   5.522   3.469   6.188 -1.1358  0.4445 -1.8700
 7011TIP3    H242525   5.462   3.369   6.285  1.4398  0.2714 -0.3508
 7012TIP3   OH242526   6.348   2.380   2.331 -0.0624  0.7616 -0.0348
 7012TIP3    H142527   6.264   2.398   2.371 -0.4418 -0.7166 -0.0950
 7012TIP3    H242528   6.412   2.402   2.398 -0.5565  0.8695  0.4089
 7013TIP3   OH242529   2.352   2.170  11.663  0.1501  0.5816 -0.7761
 7013TIP3    H142530   2.339   2.076  11.657 -0.1822  0.6097 -0.4917
 7013TIP3    H242531   2.343   2.201  11.573  0.4911  0.3132 -0.9053
 7014TIP3   OH242532   6.419   2.264   3.901 -0.0861 -0.4700 -0.1591
 7014TIP3    H142533   6.328   2.237   3.915 -0.2951 -0.0964 -0.7414
 7014TIP3    H242534   6.456   2.196   3.845 -0.3396 -0.0530 -0.8479
 7015TIP3   OH242535   2.853   4.825  11.336 -0.3898  0.7655  0.0378
 7015TIP3    H142536   2.802   4.830  11.416  0.9263  0.1214  0.9598
 7015TIP3    H242537   2.870   4.732  11.323  1.3913  1.0102  0.3548
 7016TIP3   OH242538   2.612   3.900  13.109  0.2515  0.2702 -0.2015
 7016TIP3    H142539   2.693   3.943  13.136  0.1807 -0.0088  0.4713
 7016TIP3    H242540   2.564   3.968  13.061  0.9766  0.3692 -0.8132
 7017TIP3   OH242541   6.361   4.677  11.414  0.4674  0.2879 -0.1580
 7017TIP3    H142542   6.391   4.646  11.328  1.6693 -1.2370  0.7686
 7017TIP3    H242543   6.440   4.710  11.457  0.2989 -0.9571  1.1612
 7018TIP3   OH242544   2.101   5.650  13.638  0.2354 -0.2262 -0.0106
 7018TIP3    H142545   2.085   5.740  13.668 -0.0387 -0.7561  1.5384
 7018TIP3    H242546   2.014   5.616  13.618  0.0932 -0.7709  1.3878
 7019TIP3   OH242547   6.593   1.727  15.357  0.6226  0.2945 -0.0203
 7019TIP3    H142548   6.523   1.700  15.298  1.6762  0.1912 -1.2664
 7019TIP3    H242549   6.669   1.675  15.329  1.4314  1.0447  0.7123
 7020TIP3   OH242550   0.070   1.236  14.315  0.3996 -0.3084  0.8232
 7020TIP3    H142551   0.099   1.151  14.349  0.5708 -1.2656 -1.5413
 7020TIP3    H242552   0.150   1.277  14.282 -0.0769 -0.5634 -0.7385
 7021TIP3   OH242553   6.084   4.771  14.809  0.6941 -0.6030 -0.5075
 7021TIP3    H142554   6.179   4.783  14.810  0.6070  0.1804 -0.6516
 7021TIP3    H242555   6.055   4.817  14.729  0.2168 -0.9903 -0.5639
 7022TIP3   OH242556   6.836   4.918   0.859 -0.2208  0.0658 -0.0472
 7022TIP3    H142557   6.884   4.842   0.827  1.2854  1.6526 -1.8308
 7022TIP3    H242558   6.890   4.993   0.833 -1.0817  1.7321  2.6052
 7023TIP3   OH242559   6.000   0.856  14.336  0.6565  0.3600  0.7783
 7023TIP3    H142560   6.007   0.768  14.300  1.6844  0.7784 -0.0965
 7023TIP3    H242561   5.918   0.855  14.387  0.3172 -0.8870  0.2405
 7024TIP3   OH242562   2.417   6.355  14.460  0.8780 -0.3635 -0.0160
 7024TIP3    H142563   2.443   6.263  14.450 -0.2545 -0.6885 -0.1330
 7024TIP3    H242564   2.499   6.404  14.453  1.4269 -1.3234 -0.5418
 7025TIP3   OH242565   6.786   2.465  11.252  0.1299  0.0944 -0.3862
 7025TIP3    H142566   6.768   2.371  11.258  1.7602 -0.2050  0.1352
 7025TIP3    H242567   6.765   2.499  11.339  1.4106 -0.1514  0.0373
 7026TIP3   OH242568   5.792   2.161  15.877 -0.2092  0.3618 -0.2636
 7026TIP3    H142569   5.750   2.243  15.849  1.4036  0.5677 -2.3136
 7026TIP3    H242570   5.885   2.181  15.877  0.2296 -1.4940 -0.9490
 7027TIP3   OH242571   0.852   2.323   2.720 -0.0420  0.0133  0.7917
 7027TIP3    H142572   0.781   2.259   2.707 -1.6882  1.5708  1.6323
 7027TIP3    H242573   0.807   2.405   2.737  2.0142  1.1849  0.9023
 7028TIP3   OH242574   0.729   4.354  15.027  0.4612 -0.0296 -0.2101
 7028TIP3    H142575   0.688   4.308  15.100 -0.2916 -0.4190 -0.8547
 7028TIP3    H242576   0.734   4.445  15.055  1.9270 -0.4468  1.0713
 7029TIP3   OH242577   3.348   1.217  16.378 -0.1397 -0.1567 -0.0175
 7029TIP3    H142578   3.328   1.186  16.466  1.9139 -0.3549  0.4426
 7029TIP3    H242579   3.325   1.143  16.321 -2.2707  0.2705  0.2013
 7030TIP3   OH242580   0.341   5.319  14.971 -0.5741 -0.2081 -0.0822
 7030TIP3    H142581   0.284   5.388  15.007 -0.6577 -0.0768 -0.4666
 7030TIP3    H242582   0.426   5.362  14.961 -0.2952 -0.5056  0.8461
 7031TIP3   OH242583   4.436   2.894  16.383 -0.3296  0.1398  0.0817
 7031TIP3    H142584   4.523   2.909  16.347  0.1501 -2.1723  0.1015
 7031TIP3    H242585   4.394   2.836  16.319 -0.5546 -1.5929  1.7118
 7032TIP3   OH242586   1.219   1.692  12.761 -0.4031 -0.3441 -0.6618
 7032TIP3    H142587   1.259   1.616  12.804 -0.3067 -0.1772 -0.4541
 7032TIP3    H242588   1.126   1.670  12.754 -0.5336 -0.1151  0.2024
 7033TIP3   OH242589   6.705   1.052  14.525  0.0565  0.0420  0.0902
 7033TIP3    H142590   6.798   1.030  14.525 -0.0550 -0.9395 -3.3476
 7033TIP3    H242591   6.665   0.986  14.468 -2.7414  0.5983  1.2490
 7034TIP3   OH242592   0.942   2.971  10.552  0.2342 -0.0824  0.2896
 7034TIP3    H142593   0.986   2.897  10.594 -1.0205  0.6525  3.1897
 7034TIP3    H242594   0.858   2.936  10.523  1.0371 -0.5511 -1.6132
 7035TIP3   OH242595   5.443   1.593   1.250  0.2527  0.7838  0.1792
 7035TIP3    H142596   5.512   1.610   1.315  1.4811  0.1268 -0.9137
 7035TIP3    H242597   5.491   1.573   1.169 -1.2221 -0.8642 -0.3228
 7036TIP3   OH242598   2.499   5.021   3.862 -0.4214 -0.0419 -0.0791
 7036TIP3    H142599   2.448   5.102   3.855  0.4919  0.5313 -0.4261
 7036TIP3    H242600   2.589   5.048   3.840  0.2173 -0.8164  1.4145
 7037TIP3   OH242601   4.160   0.530   2.813 -0.4243 -0.1819 -0.3471
 7037TIP3    H142602   4.071   0.548   2.843  0.2308  0.9073  1.0820
 7037TIP3    H242603   4.215   0.593   2.860  1.0075 -0.1361 -1.9412
 7038TIP3   OH242604   0.436   2.211   6.123 -0.0526 -0.3769 -0.9629
 7038TIP3    H142605   0.505   2.148   6.104 -0.5667 -0.8615 -1.2470
 7038TIP3    H242606   0.463   2.252   6.205 -0.7551 -2.5119  0.4444
 7039TIP3   OH242607   1.322   0.253   5.281  0.1751  0.6256 -0.4683
 7039TIP3    H142608   1.233   0.227   5.260 -0.6073  1.0335  1.9994
 7039TIP3    H242609   1.324   0.347   5.267 -0.1103  0.7737  0.4206
 7040TIP3   OH242610   3.035   3.691   5.896  0.6158 -0.9544  0.7687
 7040TIP3    H142611   3.007   3.739   5.974 -1.4617  1.6447 -1.3317
 7040TIP3    H242612   2.953   3.663   5.855  1.6571 -2.4872 -0.3701
 7041TIP3   OH242613   2.380   3.524   2.178 -0.1918 -0.1623 -0.9174
 7041TIP3    H142614   2.317   3.464   2.220  0.5643 -0.8445 -0.7328
 7041TIP3    H242615   2.436   3.466   2.126  1.2052  0.2384  0.0657
 7042TIP3   OH242616   2.442   4.442  11.017  0.5702 -0.7964 -0.7021
 7042TIP3    H142617   2.378   4.508  10.990  1.3340  0.1317 -0.3076
 7042TIP3    H242618   2.477   4.409  10.935 -1.1081 -2.0501 -0.9576
 7043TIP3   OH242619   6.820   1.489   3.070 -0.5008 -0.1020 -0.1904
 7043TIP3    H142620   6.858   1.443   3.145 -0.2419  2.6982  1.5480
 7043TIP3    H242621   6.887   1.484   3.002  0.6070 -0.0673  0.8656
 7044TIP3   OH242622   5.275   5.559   1.727 -0.0135 -0.4744 -0.1447
 7044TIP3    H142623   5.246   5.588   1.814 -1.7041 -1.2874 -0.3851
 7044TIP3    H242624   5.209   5.495   1.700  0.3558 -0.0942 -2.1219
 7045TIP3   OH242625   4.536   1.220  15.810 -0.1763 -0.6765  0.7461
 7045TIP3    H142626   4.591   1.290  15.775 -1.6405  0.3503  0.3984
 7045TIP3    H242627   4.548   1.225  15.905 -0.7840  0.5302  0.7757
 7046TIP3   OH242628   2.283   0.293   2.314 -0.2031 -0.3481 -0.4939
 7046TIP3    H142629   2.287   0.222   2.250  0.2831 -1.5963  0.8711
 7046TIP3    H242630   2.371   0.296   2.352 -0.4112  0.5302 -0.0434
 7047TIP3   OH242631   2.176   4.552   5.923 -0.0321  0.2897 -0.1603
 7047TIP3    H142632   2.134   4.638   5.918  0.9339  0.7344 -1.0637
 7047TIP3    H242633   2.203   4.533   5.833  2.7830  0.6160  0.5146
 7048TIP3   OH242634   1.725   5.296  14.478  0.1751 -0.3403 -0.2815
 7048TIP3    H142635   1.746   5.213  14.436  0.3368 -1.2753  1.5472
 7048TIP3    H242636   1.633   5.287  14.504 -0.2483  0.6506 -1.3112
 7049TIP3   OH242637   2.837   0.809  13.835  0.3973 -0.0211 -0.2482
 7049TIP3    H142638   2.764   0.830  13.893  1.0141 -0.2895  0.6489
 7049TIP3    H242639   2.886   0.891  13.829  0.8827 -0.2508  0.4353
 7050TIP3   OH242640   0.451   3.668   2.263  0.0673  0.0745  0.4790
 7050TIP3    H142641   0.542   3.696   2.259  0.0995  0.0725  1.2198
 7050TIP3    H242642   0.434   3.651   2.355 -1.1460  1.5860  0.5607
 7051TIP3   OH242643   0.076   1.526   5.601 -0.5717  0.5875 -0.5575
 7051TIP3    H142644   0.128   1.605   5.592  0.0275  0.2085 -0.4681
 7051TIP3    H242645   0.138   1.454   5.585 -1.1488  0.1427 -0.8421
 7052TIP3   OH242646   2.120   5.850   5.139  0.1244 -0.3796 -0.2527
 7052TIP3    H142647   2.025   5.864   5.136  0.1801  0.4484  1.1964
 7052TIP3    H242648   2.146   5.848   5.047 -1.0240  1.3529 -0.6580
 7053TIP3   OH242649   1.606   3.488  13.135 -0.2629  0.6210  0.1852
 7053TIP3    H142650   1.614   3.423  13.066 -1.1983 -1.5241  1.9828
 7053TIP3    H242651   1.692   3.489  13.178  0.1083  1.4625 -0.5453
 7054TIP3   OH242652   5.731   4.917  16.668 -0.2821  0.7344  0.2128
 7054TIP3    H142653   5.712   4.826  16.647  0.1670  0.6579  0.1324
 7054TIP3    H242654   5.680   4.935  16.747 -0.1804  0.3413  0.3683
 7055TIP3   OH242655   2.224   0.916   6.105 -0.2448 -0.3621 -0.3532
 7055TIP3    H142656   2.295   0.851   6.107  0.2602  0.1838  1.0571
 7055TIP3    H242657   2.234   0.963   6.187 -1.0372  1.0471 -1.0395
 7056TIP3   OH242658   4.826   0.471  15.665 -0.8245 -0.4502  0.4005
 7056TIP3    H142659   4.840   0.475  15.760 -1.2153  1.9119  0.4159
 7056TIP3    H242660   4.840   0.561  15.635 -1.0821 -1.0763 -1.7485
 7057TIP3   OH242661   3.251   3.813   1.832 -0.0521 -0.2558 -0.4140
 7057TIP3    H142662   3.339   3.790   1.805  0.7477  0.2372  1.5862
 7057TIP3    H242663   3.250   3.799   1.927 -1.2906  2.2395  0.0307
 7058TIP3   OH242664   0.546   5.569  15.014  0.0857  0.1807  0.6170
 7058TIP3    H142665   0.580   5.585  15.102 -0.4462 -0.6352  0.9787
 7058TIP3    H242666   0.594   5.493  14.982  0.4285  0.6012  0.1090
 7059TIP3   OH242667   0.285   1.439  13.351  0.2356 -0.0803 -0.4361
 7059TIP3    H142668   0.260   1.415  13.262 -0.2570 -0.4141 -0.2150
 7059TIP3    H242669   0.300   1.533  13.348 -2.0121  0.3313 -0.3840
 7060TIP3   OH242670   5.102   3.183  16.592 -0.4710 -0.2946  0.5608
 7060TIP3    H142671   5.133   3.158  16.505 -1.8006 -0.8153  0.2110
 7060TIP3    H242672   5.020   3.229  16.576  0.9089  2.6904  1.3226
 7061TIP3   OH242673   0.028   3.547  12.645  0.6110  0.3907  0.0114
 7061TIP3    H142674   0.036   3.613  12.577 -0.1684  0.9059  0.4037
 7061TIP3    H242675   0.116   3.536  12.679  0.9165  0.4997 -0.7245
 7062TIP3   OH242676   2.900   1.056   6.094 -0.2832 -0.1470 -0.1851
 7062TIP3    H142677   2.842   1.122   6.132 -2.7440 -0.7277 -2.6343
 7062TIP3    H242678   2.897   0.983   6.156  0.6936  1.0928  1.4307
 7063TIP3   OH242679   5.149   1.996   4.732  0.5621 -0.0913  0.0906
 7063TIP3    H142680   5.070   2.048   4.722 -0.1440 -1.4652 -1.9733
 7063TIP3    H242681   5.136   1.948   4.814  0.2712  1.2869  0.8881
 7064TIP3   OH242682   2.421   4.871  12.512  0.0197  0.7487  0.2442
 7064TIP3    H142683   2.347   4.812  12.529  0.7223 -0.4032 -0.5739
 7064TIP3    H242684   2.380   4.957  12.502 -1.3957 -0.0354 -1.3943
 7065TIP3   OH242685   3.058   0.162  15.300  0.0764  0.3613  0.9233
 7065TIP3    H142686   3.144   0.120  15.301 -0.1099 -0.1524  3.8711
 7065TIP3    H242687   3.070   0.241  15.353 -0.2812  2.7049 -2.1927
 7066TIP3   OH242688   4.119   5.050  12.839 -0.3054  0.1982  0.2180
 7066TIP3    H142689   4.045   4.993  12.861  0.2668 -0.4899  0.3870
 7066TIP3    H242690   4.086   5.138  12.854 -1.6650  0.0251 -1.3742
 7067TIP3   OH242691   2.568   5.157   4.527 -0.3307 -0.1782  0.5268
 7067TIP3    H142692   2.512   5.223   4.488 -1.8529 -2.0366 -0.6021
 7067TIP3    H242693   2.508   5.089   4.558  1.2065 -1.5362  0.6614
 7068TIP3   OH242694   1.406   6.681  13.300  0.1757  0.6877 -0.2634
 7068TIP3    H142695   1.391   6.617  13.230  0.9027 -1.6146  1.5748
 7068TIP3    H242696   1.480   6.733  13.268  0.9947 -0.8182 -0.9192
 7069TIP3   OH242697   1.195   3.573   4.005  0.4109  0.6306  0.0118
 7069TIP3    H142698   1.218   3.614   3.922  1.1774  1.7337  0.7504
 7069TIP3    H242699   1.237   3.487   4.002  2.0053  1.3740 -0.0116
 7070TIP3   OH242700   6.723   1.978  12.712  0.0339 -0.7234 -0.4750
 7070TIP3    H142701   6.707   2.023  12.795  0.8456 -1.7177  0.2584
 7070TIP3    H242702   6.671   2.026  12.648 -0.9122 -0.1527  0.6725
 7071TIP3   OH242703   5.513   0.873   6.471 -0.3181 -0.2993 -0.0480
 7071TIP3    H142704   5.449   0.820   6.518 -0.0280  0.2891  1.0632
 7071TIP3    H242705   5.547   0.933   6.538 -0.3915  1.0452 -1.1748
 7072TIP3   OH242706   6.049   1.139   5.224 -0.5648  0.0626 -0.7910
 7072TIP3    H142707   5.973   1.187   5.191  0.4162  1.9337 -0.4662
 7072TIP3    H242708   6.120   1.162   5.164  0.1540 -0.2723 -0.0852
 7073TIP3   OH242709   5.129   5.806  12.512  0.7686  0.0136 -0.9290
 7073TIP3    H142710   5.085   5.724  12.489 -2.1838  1.0669  0.3738
 7073TIP3    H242711   5.171   5.787  12.596  1.0192 -0.4493 -1.1523
 7074TIP3   OH242712   2.954   1.458  13.483  0.2313 -0.5899  0.1970
 7074TIP3    H142713   2.887   1.406  13.440 -1.4288  1.2480  0.4358
 7074TIP3    H242714   2.909   1.537  13.512  1.9432 -0.3846  2.6210
 7075TIP3   OH242715   0.630   2.167   2.736 -0.7435  0.4378 -0.2650
 7075TIP3    H142716   0.645   2.129   2.822 -1.5294 -0.9083 -0.6882
 7075TIP3    H242717   0.546   2.211   2.744 -1.3793 -0.6571 -0.6145
 7076TIP3   OH242718   6.123   1.759  15.470  0.2485  0.0779 -0.0055
 7076TIP3    H142719   6.167   1.844  15.462  1.8780 -0.9028 -2.8167
 7076TIP3    H242720   6.079   1.746  15.387 -0.7030 -1.4769  0.6919
 7077TIP3   OH242721   3.998   4.323  12.655  0.5429 -0.3900  0.5140
 7077TIP3    H142722   4.033   4.255  12.598  0.7385  0.8613 -0.8984
 7077TIP3    H242723   4.038   4.404  12.624 -1.8252  0.7808  0.3095
 7078TIP3   OH242724   6.298   5.920   4.421  0.3551 -0.4130 -0.4918
 7078TIP3    H142725   6.338   5.932   4.507  0.4800 -0.8524 -0.4874
 7078TIP3    H242726   6.256   5.834   4.425 -1.4190  0.4252 -0.1839
 7079TIP3   OH242727   3.251   2.004   3.998  0.0034 -0.2627 -0.1350
 7079TIP3    H142728   3.339   1.980   4.026  0.5988  1.3790 -0.5170
 7079TIP3    H242729   3.255   2.098   3.980 -1.8872 -0.0969  0.0578
 7080TIP3   OH242730   2.646   0.433   2.635 -0.4495  0.0093 -0.1948
 7080TIP3    H142731   2.714   0.409   2.572  0.2746  0.9148  0.2245
 7080TIP3    H242732   2.669   0.384   2.714 -2.0858 -2.1522 -0.9600
 7081TIP3   OH242733   3.030   5.200   3.596 -0.4985 -0.3907  0.1638
 7081TIP3    H142734   2.985   5.171   3.517  1.1496 -1.0703 -0.5734
 7081TIP3    H242735   3.119   5.167   3.586  0.1460  0.8063  1.6171
 7082TIP3   OH242736   3.585   4.821   4.862 -0.3046 -0.2838 -0.5361
 7082TIP3    H142737   3.626   4.768   4.794  2.1747  1.0539 -0.2099
 7082TIP3    H242738   3.560   4.902   4.818  3.4985  1.6073  0.3974
 7083TIP3   OH242739   2.434   2.532  14.241  0.2776  0.1908 -0.7960
 7083TIP3    H142740   2.381   2.497  14.312  0.4300  1.8816  0.2147
 7083TIP3    H242741   2.524   2.514  14.267  0.3028 -0.2289 -1.1575
 7084TIP3   OH242742   5.702   2.172   5.819 -0.2356  0.6160 -0.1569
 7084TIP3    H142743   5.642   2.190   5.891  0.4887  0.0643  0.6036
 7084TIP3    H242744   5.788   2.194   5.854  0.5051 -2.4681  0.2072
 7085TIP3   OH242745   0.110   0.034   0.394 -0.5689  0.0542 -0.2234
 7085TIP3    H142746   0.087   0.095   0.464  1.7342  0.7398 -0.0024
 7085TIP3    H242747   0.150  -0.040   0.438  0.5468  0.3162 -0.7667
 7086TIP3   OH242748   2.442   5.234   1.135  0.5097  0.0713 -0.1554
 7086TIP3    H142749   2.350   5.209   1.130  0.0178  0.8732  2.9068
 7086TIP3    H242750   2.442   5.314   1.187  3.0027 -0.3735  0.6664
 7087TIP3   OH242751   2.539   0.429   3.658  0.1147 -0.2985  0.0360
 7087TIP3    H142752   2.557   0.415   3.751 -0.9920 -3.7660 -0.1284
 7087TIP3    H242753   2.444   0.440   3.653  0.0428 -1.1730 -0.7428
 7088TIP3   OH242754   5.775   3.434  13.454 -0.0720 -0.1015  0.0880
 7088TIP3    H142755   5.704   3.496  13.439 -0.9652 -0.5877  2.0567
 7088TIP3    H242756   5.855   3.485  13.439 -0.7960  0.4658 -2.0809
 7089TIP3   OH242757   5.367   3.166  16.030 -0.3048 -0.5207  0.2902
 7089TIP3    H142758   5.442   3.176  16.088 -2.0896 -1.6229  3.0000
 7089TIP3    H242759   5.294   3.145  16.089 -2.9747  1.4223 -2.0705
 7090TIP3   OH242760   6.776   6.392   3.948 -0.0447 -0.1987  0.3876
 7090TIP3    H142761   6.776   6.312   3.896 -0.6149 -0.8207  1.3032
 7090TIP3    H242762   6.721   6.453   3.899  0.5883 -0.2804 -0.4347
 7091TIP3   OH242763   2.600   3.369   3.309  0.5314  0.4133 -0.1904
 7091TIP3    H142764   2.597   3.465   3.309  0.6021  0.4220  0.4245
 7091TIP3    H242765   2.666   3.347   3.374  1.3547 -0.0472 -1.1571
 7092TIP3   OH242766   3.866   2.294   5.152 -0.5388 -0.0406 -0.1487
 7092TIP3    H142767   3.874   2.248   5.236  1.1305 -0.5774 -0.5607
 7092TIP3    H242768   3.867   2.224   5.087  1.9491  0.5200 -0.7853
 7093TIP3   OH242769   2.544   3.413   0.375 -0.1918  0.4758 -0.5641
 7093TIP3    H142770   2.611   3.478   0.395 -0.0717  0.6318 -1.4249
 7093TIP3    H242771   2.507   3.390   0.460  1.2623  0.0364 -0.0267
 7094TIP3   OH242772   2.206   2.797   3.854 -0.3673 -0.0316 -0.1507
 7094TIP3    H142773   2.231   2.754   3.936 -2.9327  0.2259  0.8407
 7094TIP3    H242774   2.210   2.727   3.789 -0.4427 -0.7658  0.6129
 7095TIP3   OH242775   0.190   1.538   0.611  0.1053 -0.3456  0.4777
 7095TIP3    H142776   0.256   1.469   0.616 -0.1722 -0.5567  1.7501
 7095TIP3    H242777   0.205   1.580   0.527  0.4783 -1.7646 -0.1976
 7096TIP3   OH242778   1.010   0.542  12.165 -0.8468 -0.5346  0.0168
 7096TIP3    H142779   1.102   0.565  12.149 -0.6752 -0.5767  0.8912
 7096TIP3    H242780   0.990   0.477  12.097  0.2746 -1.7564  0.7877
 7097TIP3   OH242781   4.897   4.575  12.874 -0.0695 -1.0741  0.3617
 7097TIP3    H142782   4.992   4.570  12.887 -0.2410 -0.5672  2.0807
 7097TIP3    H242783   4.882   4.536  12.788  1.8226  0.0035 -0.5178
 7098TIP3   OH242784   3.905   3.096  11.794  0.3834  0.0041 -0.5649
 7098TIP3    H142785   3.990   3.111  11.838  0.0110 -1.4440  0.7374
 7098TIP3    H242786   3.883   3.181  11.756  1.0916  1.1835  1.4858
 7099TIP3   OH242787   4.972   4.373  11.763 -0.2033 -0.5642  0.2662
 7099TIP3    H142788   4.952   4.463  11.738  2.6962 -0.0687 -0.6635
 7099TIP3    H242789   4.920   4.319  11.704  1.0641  0.5775 -1.9958
 7100TIP3   OH242790   0.315   5.342   0.412 -0.3020 -0.7831  0.3594
 7100TIP3    H142791   0.268   5.261   0.392 -3.5092  1.5145 -2.7357
 7100TIP3    H242792   0.255   5.392   0.467 -0.3668  1.1001 -1.2934
 7101TIP3   OH242793   6.432   0.913   0.130 -0.1818  0.5405 -0.0162
 7101TIP3    H142794   6.526   0.921   0.117 -0.1320  2.7014  1.2739
 7101TIP3    H242795   6.419   0.823   0.158  1.4756  0.1839 -0.3167
 7102TIP3   OH242796   5.632   0.668   2.042 -0.4519 -0.3928 -0.5451
 7102TIP3    H142797   5.578   0.680   1.964 -2.6777  0.6419  1.0555
 7102TIP3    H242798   5.598   0.589   2.084 -0.0085 -0.3340 -0.0493
 7103TIP3   OH242799   4.822   1.827   3.467  0.4548  0.0316  0.2370
 7103TIP3    H142800   4.809   1.737   3.497 -1.2363  0.5652  1.2566
 7103TIP3    H242801   4.736   1.854   3.433  1.2734  0.8380 -1.3190
 7104TIP3   OH242802   0.493   3.603   5.744  0.1947 -0.1422 -0.0237
 7104TIP3    H142803   0.565   3.626   5.802  0.4009  0.5772 -0.5524
 7104TIP3    H242804   0.534   3.589   5.659 -0.1117 -1.1262 -0.0258
 7105TIP3   OH242805   1.130   1.781  11.320  0.8956  0.5359 -0.3367
 7105TIP3    H142806   1.079   1.766  11.240 -0.3085 -2.0132  0.7891
 7105TIP3    H242807   1.221   1.766  11.293  0.4049 -1.4864 -1.0205
 7106TIP3   OH242808   0.650   3.303   0.207  0.2434 -0.1158  0.2119
 7106TIP3    H142809   0.697   3.223   0.228  0.6501  0.5860  2.2266
 7106TIP3    H242810   0.700   3.343   0.136  1.0224 -0.7929  0.3699
 7107TIP3   OH242811   3.836   6.801   3.265  0.8474  0.1763  0.1790
 7107TIP3    H142812   3.812   6.835   3.179  1.1089 -1.9413 -0.7941
 7107TIP3    H242813   3.914   6.748   3.249  0.5212 -0.7857  1.5845
 7108TIP3   OH242814   1.209   2.654   1.216 -0.3301  0.3635  0.2703
 7108TIP3    H142815   1.254   2.644   1.299 -0.6574  0.4118  0.4566
 7108TIP3    H242816   1.195   2.748   1.207 -0.9925  0.2949  0.5394
 7109TIP3   OH242817   4.916   5.669   5.490 -0.4976 -0.6652  0.2087
 7109TIP3    H142818   4.982   5.733   5.516 -0.1312 -0.7659 -0.4502
 7109TIP3    H242819   4.870   5.648   5.571  0.1188 -0.4101  0.6355
 7110TIP3   OH242820   3.359   3.305   2.052 -0.0019  0.5487  0.1966
 7110TIP3    H142821   3.384   3.292   1.960  0.2261  2.1289  0.0047
 7110TIP3    H242822   3.307   3.385   2.051 -0.6743  0.1570  1.3592
 7111TIP3   OH242823   4.790   2.471   2.015  0.2607 -0.1318 -0.1864
 7111TIP3    H142824   4.701   2.485   2.048  0.6997 -0.3721  1.1548
 7111TIP3    H242825   4.780   2.470   1.920 -1.0731  0.4815 -0.0780
 7112TIP3   OH242826   2.972   0.833  15.409  0.3425  0.2353  0.5700
 7112TIP3    H142827   3.054   0.792  15.437 -0.3199 -1.0402  0.7051
 7112TIP3    H242828   2.980   0.841  15.314  0.4807 -0.2018  0.5448
 7113TIP3   OH242829   6.604   0.333   3.585  0.1662 -0.2860  0.9357
 7113TIP3    H142830   6.583   0.283   3.664 -0.9369 -0.6704  0.4189
 7113TIP3    H242831   6.580   0.423   3.607  0.6149 -0.2575  1.3108
 7114TIP3   OH242832   0.277   5.596  12.098  0.0232 -0.6095  0.4453
 7114TIP3    H142833   0.263   5.683  12.060  1.3627 -1.0866 -1.2539
 7114TIP3    H242834   0.243   5.604  12.187 -1.5444  1.1147 -0.2314
 7115TIP3   OH242835   5.087   4.121  14.620 -0.8074  0.3154 -0.1498
 7115TIP3    H142836   5.121   4.089  14.536 -1.4407 -1.0403  0.0974
 7115TIP3    H242837   5.147   4.192  14.643  0.9378 -0.9616 -0.5008
 7116TIP3   OH242838   0.819   1.616  14.244  0.3455  0.1595 -0.1600
 7116TIP3    H142839   0.803   1.590  14.334  0.6354  2.8744  0.7688
 7116TIP3    H242840   0.884   1.686  14.250  0.2976  0.4965 -2.4647
 7117TIP3   OH242841   5.369   1.058  14.258  0.0219  0.0702  0.2456
 7117TIP3    H142842   5.298   1.006  14.221  2.7350 -2.7046 -1.4888
 7117TIP3    H242843   5.379   1.131  14.197 -1.4203  0.6383  0.6455
 7118TIP3   OH242844   3.554   2.030   0.349  0.5114  0.1403  0.2068
 7118TIP3    H142845   3.568   2.034   0.254 -4.2096 -0.2317 -0.7266
 7118TIP3    H242846   3.522   1.942   0.365 -0.6518  0.8031  1.8022
 7119TIP3   OH242847   2.364   0.744   4.937 -0.0374  0.0672 -0.2908
 7119TIP3    H142848   2.444   0.764   4.985 -0.0270 -0.7798  0.0604
 7119TIP3    H242849   2.301   0.721   5.005 -0.8880  1.6855 -0.4870
 7120TIP3   OH242850   3.082   2.859  16.986 -0.2838 -0.0106  0.2241
 7120TIP3    H142851   3.015   2.926  16.983 -0.7167 -0.4298  0.3953
 7120TIP3    H242852   3.165   2.907  16.984 -0.5830  0.5556  1.1493
 7121TIP3   OH242853   6.484   3.593   4.590  0.2044  0.5470  0.0287
 7121TIP3    H142854   6.538   3.523   4.552 -1.3097 -0.1425 -0.9636
 7121TIP3    H242855   6.447   3.638   4.513 -1.1884  0.5321  0.6608
 7122TIP3   OH242856   2.845   1.271   2.505 -0.2596 -0.0606 -0.3002
 7122TIP3    H142857   2.920   1.260   2.564  0.1656  1.0049 -0.6087
 7122TIP3    H242858   2.768   1.261   2.561  0.0864 -1.4065 -0.0191
 7123TIP3   OH242859   3.442   0.487   6.594  0.3388  0.3987  0.7453
 7123TIP3    H142860   3.392   0.460   6.517  3.5012  2.1235 -2.2039
 7123TIP3    H242861   3.472   0.405   6.632 -2.4185 -0.5547  1.0845
 7124TIP3   OH242862   3.016   2.446   0.660 -0.0814  0.4629 -0.2686
 7124TIP3    H142863   3.098   2.490   0.639 -0.0737  0.1192 -0.9834
 7124TIP3    H242864   2.975   2.430   0.575 -0.6208  0.1209  0.0494
 7125TIP3   OH242865   0.734   4.717  15.340 -0.2116  0.2830  0.6782
 7125TIP3    H142866   0.822   4.724  15.304  0.4190  0.4262  2.1677
 7125TIP3    H242867   0.676   4.717  15.264  1.0449  0.6712 -0.2988
 7126TIP3   OH242868   1.211   6.469   4.332  0.0800 -0.5748  0.4263
 7126TIP3    H142869   1.295   6.479   4.287  1.1330 -2.4869  1.7965
 7126TIP3    H242870   1.160   6.411   4.276  0.2644 -0.6041  0.2869
 7127TIP3   OH242871   0.619   5.682  11.900  0.2588 -0.6597  0.3185
 7127TIP3    H142872   0.698   5.659  11.850 -0.2263 -1.5729 -0.0396
 7127TIP3    H242873   0.561   5.722  11.836  0.8200  1.0120  0.7969
 7128TIP3   OH242874   3.208   3.488   4.713 -0.2168 -0.3738  0.4515
 7128TIP3    H142875   3.164   3.481   4.628  1.8726  1.0379 -0.8483
 7128TIP3    H242876   3.197   3.401   4.753  1.1309 -2.0719 -2.5299
 7129TIP3   OH242877   2.742   1.153  12.389 -0.1636 -0.4361 -0.2828
 7129TIP3    H142878   2.691   1.233  12.394 -2.5834 -1.9250  0.8377
 7129TIP3    H242879   2.797   1.154  12.468  0.5252  0.5198 -0.7605
 7130TIP3   OH242880   5.951   4.476   3.734 -0.2115 -0.1110  0.3377
 7130TIP3    H142881   6.046   4.483   3.731 -0.1541 -0.6358  0.7845
 7130TIP3    H242882   5.929   4.489   3.826 -0.3361 -2.5175  0.7243
 7131TIP3   OH242883   6.585   0.536  13.595  0.3948  0.2284 -0.1045
 7131TIP3    H142884   6.507   0.587  13.613  0.0062 -0.4382  0.1560
 7131TIP3    H242885   6.572   0.502  13.506  0.6761  0.6223 -0.2978
 7132TIP3   OH242886   1.885   1.083   2.698 -0.7812  0.3102  0.2535
 7132TIP3    H142887   1.846   1.068   2.612 -1.1081 -1.8619  0.7273
 7132TIP3    H242888   1.812   1.075   2.759 -0.4882  1.4727  0.7820
 7133TIP3   OH242889   3.847   1.031   2.774  0.0941  0.3443 -0.7493
 7133TIP3    H142890   3.892   1.106   2.735 -0.0600  0.9207  0.1561
 7133TIP3    H242891   3.881   0.955   2.727  1.2283  0.8658 -0.7899
 7134TIP3   OH242892   4.203   4.221   1.997  0.0731 -0.4652  0.0173
 7134TIP3    H142893   4.189   4.218   1.903  0.4037 -2.9025 -0.0104
 7134TIP3    H242894   4.171   4.308   2.024 -1.7898 -0.4502 -2.0328
 7135TIP3   OH242895   1.102   3.455   1.572  0.0549 -0.2403 -0.0657
 7135TIP3    H142896   1.097   3.367   1.610 -0.6612  0.1689  0.8208
 7135TIP3    H242897   1.069   3.513   1.641  2.0922  0.9287  0.0164
 7136TIP3   OH242898   2.140   5.263  16.098 -0.3325 -0.1922 -0.3625
 7136TIP3    H142899   2.216   5.267  16.156 -0.6909  0.9858  0.0480
 7136TIP3    H242900   2.073   5.218  16.150 -0.7836  1.2207  0.3126
 7137TIP3   OH242901   6.590   0.576   4.764  0.3346 -0.0608 -0.3034
 7137TIP3    H142902   6.502   0.595   4.798  0.8884 -0.7898  1.6569
 7137TIP3    H242903   6.577   0.502   4.704 -0.4601  0.2171 -0.4918
 7138TIP3   OH242904   3.937   6.519   6.096  0.7455 -0.3157 -0.2128
 7138TIP3    H142905   3.865   6.469   6.133  0.5062 -0.4274 -0.8192
 7138TIP3    H242906   3.896   6.594   6.054  0.8704 -0.9464 -1.5074
 7139TIP3   OH242907   4.224   4.654  16.327  0.4634 -0.0227  0.2209
 7139TIP3    H142908   4.262   4.659  16.239  0.4446 -1.0617  0.1473
 7139TIP3    H242909   4.210   4.561  16.343 -1.2501  0.2673  0.6040
 7140TIP3   OH242910   6.437   3.025   4.260 -0.0608 -0.0767 -0.1279
 7140TIP3    H142911   6.406   2.981   4.340 -1.0063  1.6315  0.5007
 7140TIP3    H242912   6.358   3.037   4.207  0.4559 -0.6018 -1.0230
 7141TIP3   OH242913   5.679   1.867   6.750  0.0272 -0.4661 -0.0416
 7141TIP3    H142914   5.639   1.948   6.780  0.1108 -0.9229  1.3735
 7141TIP3    H242915   5.734   1.893   6.676  0.9716  0.9496  1.1176
 7142TIP3   OH242916   0.715   0.388   5.842 -0.1539 -0.4001  0.6244
 7142TIP3    H142917   0.697   0.307   5.890 -0.4182 -1.4779 -1.1935
 7142TIP3    H242918   0.786   0.365   5.783  0.4250  0.9941  0.7494
 7143TIP3   OH242919   5.311   1.350   4.493  0.0771 -0.3089 -0.2702
 7143TIP3    H142920   5.376   1.279   4.487  1.7136  1.1425 -0.5888
 7143TIP3    H242921   5.233   1.308   4.527  0.8394 -2.3634 -0.8892
 7144TIP3   OH242922   1.264   3.927  11.143  0.0135 -0.3133  0.2904
 7144TIP3    H142923   1.329   3.908  11.076 -0.3300  1.1948 -0.5117
 7144TIP3    H242924   1.312   3.923  11.225  0.7393 -0.8734 -0.1517
 7145TIP3   OH242925   3.234   5.479   5.477 -0.3631 -0.3077 -0.7129
 7145TIP3    H142926   3.239   5.447   5.567  1.0280  0.3707 -0.5145
 7145TIP3    H242927   3.183   5.560   5.484  3.4157  2.2664  0.3472
 7146TIP3   OH242928   2.253   3.761  13.972 -0.3397 -0.0992  0.4918
 7146TIP3    H142929   2.165   3.723  13.966  0.1354 -1.1819  0.0143
 7146TIP3    H242930   2.309   3.687  13.994  0.4130  0.6399  1.1143
 7147TIP3   OH242931   4.931   1.617  14.439 -0.0039 -0.3757 -0.3558
 7147TIP3    H142932   4.919   1.711  14.448  2.0012  0.1075 -2.0209
 7147TIP3    H242933   4.951   1.587  14.528 -1.6730  0.5418  0.3837
 7148TIP3   OH242934   6.838   3.874   1.640 -0.6303 -0.6083 -0.5192
 7148TIP3    H142935   6.746   3.892   1.662 -0.7326 -1.2474 -0.4039
 7148TIP3    H242936   6.845   3.778   1.644  0.1085 -0.5469 -0.2400
 7149TIP3   OH242937   3.679   6.594  13.112 -0.1564 -0.2424 -0.0167
 7149TIP3    H142938   3.708   6.533  13.044  0.2257 -1.1803  0.9685
 7149TIP3    H242939   3.669   6.677  13.066 -0.3236 -0.9457 -1.3119
 7150TIP3   OH242940   5.202   3.209   0.208  0.2725  0.1595  0.0732
 7150TIP3    H142941   5.138   3.180   0.272  3.5058  0.4748  3.8710
 7150TIP3    H242942   5.223   3.299   0.234  1.2196  0.5986 -1.9512
 7151TIP3   OH242943   4.268   3.587   0.639  0.1360 -0.1267  0.6198
 7151TIP3    H142944   4.360   3.597   0.616  0.5554  1.6409  2.7184
 7151TIP3    H242945   4.266   3.514   0.701 -0.2113 -1.3932 -0.8175
 7152TIP3   OH242946   0.472   4.475  14.181  0.1152 -0.4848  0.0484
 7152TIP3    H142947   0.549   4.498  14.232 -0.9076  3.6627  0.0407
 7152TIP3    H242948   0.471   4.539  14.109 -0.8706 -3.3681 -2.7527
 7153TIP3   OH242949   0.782   0.972  15.815  0.4656 -0.4848  0.4162
 7153TIP3    H142950   0.815   1.061  15.805  0.0577 -0.3874 -0.1340
 7153TIP3    H242951   0.851   0.916  15.778  0.8729 -0.4259  1.0783
 7154TIP3   OH242952   4.833   0.736   4.959  0.0519  0.1803 -0.1444
 7154TIP3    H142953   4.742   0.752   4.936 -1.6550  0.5249  5.4093
 7154TIP3    H242954   4.875   0.822   4.955 -0.5220  0.4494 -0.4619
 7155TIP3   OH242955   6.264   1.461   3.342 -0.0575  0.7168 -0.4941
 7155TIP3    H142956   6.178   1.500   3.356 -1.0691 -1.1589 -1.1567
 7155TIP3    H242957   6.287   1.423   3.427 -0.2755  0.4660 -0.5487
 7156TIP3   OH242958   5.524   3.962   4.368  0.2086  0.4001  0.3757
 7156TIP3    H142959   5.465   3.893   4.337 -1.2134  1.4680  0.5899
 7156TIP3    H242960   5.587   3.973   4.297  0.3416 -0.9810  0.2611
 7157TIP3   OH242961   4.807   1.765  14.849 -0.3626  0.5734 -0.4954
 7157TIP3    H142962   4.758   1.761  14.931  1.6116 -0.4794  0.7146
 7157TIP3    H242963   4.740   1.763  14.781 -2.0833 -3.4612  0.9807
 7158TIP3   OH242964   0.954   0.079   5.580 -0.2613  0.4701 -0.0906
 7158TIP3    H142965   1.047   0.091   5.601 -0.1795  0.8594 -0.6210
 7158TIP3    H242966   0.908   0.118   5.654 -0.0100 -0.1405  0.3976
 7159TIP3   OH242967   6.700   5.789  16.591  0.0291 -0.9673 -0.1412
 7159TIP3    H142968   6.675   5.742  16.512 -0.1728 -0.0455 -0.6397
 7159TIP3    H242969   6.706   5.880  16.564  1.8231 -0.8639  0.4618
 7160TIP3   OH242970   0.520   0.762  15.106 -0.7168 -0.1828 -0.0963
 7160TIP3    H142971   0.605   0.728  15.135  0.9298 -0.4799 -4.5145
 7160TIP3    H242972   0.479   0.688  15.060 -1.1316  1.2305 -2.1371
 7161TIP3   OH242973   6.241   5.375  14.073  0.2416 -0.0083  0.5768
 7161TIP3    H142974   6.216   5.293  14.031 -1.0601 -0.0058  1.2608
 7161TIP3    H242975   6.334   5.367  14.091  0.6837 -0.2827 -1.6427
 7162TIP3   OH242976   6.788   1.000  13.387  0.1000 -0.0849 -0.4316
 7162TIP3    H142977   6.713   0.949  13.359 -1.7358  3.2519 -2.2314
 7162TIP3    H242978   6.758   1.047  13.465  0.0252  1.6541 -1.4448
 7163TIP3   OH242979   1.876   5.358  12.642  0.6320 -0.0886  0.1294
 7163TIP3    H142980   1.964   5.355  12.604  1.4580 -0.9545  2.0239
 7163TIP3    H242981   1.837   5.274  12.620  0.4001  0.1328 -0.3447
 7164TIP3   OH242982   4.164   0.889  13.086 -0.6515  0.2777  0.4274
 7164TIP3    H142983   4.172   0.957  13.019 -0.2674 -1.4503 -1.3896
 7164TIP3    H242984   4.100   0.828  13.050 -1.7036  0.1207  2.4429
 7165TIP3   OH242985   0.901   3.831  15.841  0.5876 -0.4476 -0.5671
 7165TIP3    H142986   0.811   3.864  15.844  0.6977 -0.1527 -0.3942
 7165TIP3    H242987   0.938   3.859  15.925  1.5269  1.4286 -1.5388
 7166TIP3   OH242988   3.344   1.946   0.856 -0.1168 -0.0208 -0.3354
 7166TIP3    H142989   3.251   1.930   0.869 -0.1328 -0.1573 -0.6199
 7166TIP3    H242990   3.352   1.969   0.763  0.2961 -1.1863 -0.6082
 7167TIP3   OH242991   6.301   3.547  14.638 -0.3188 -0.6205  0.1418
 7167TIP3    H142992   6.230   3.483  14.644 -1.5116  0.7466  1.2504
 7167TIP3    H242993   6.305   3.570  14.545 -1.0197 -1.0547 -0.0048
 7168TIP3   OH242994   0.921   3.888   1.624  0.8581 -0.0878  0.4556
 7168TIP3    H142995   0.973   3.820   1.667  2.3281  0.5110 -0.3047
 7168TIP3    H242996   0.906   3.954   1.692  0.6085 -0.5207  0.8238
 7169TIP3   OH242997   4.413   3.734  14.473 -0.3518  0.0342 -0.0088
 7169TIP3    H142998   4.488   3.673  14.474  0.0001  0.4656  0.0075
 7169TIP3    H242999   4.343   3.683  14.433 -0.1985 -0.5462  0.4326
 7170TIP3   OH243000   6.238   6.468   5.471  0.2304  0.9758 -0.1661
 7170TIP3    H143001   6.215   6.559   5.457 -1.6009  0.7847  1.2893
 7170TIP3    H243002   6.178   6.437   5.539  0.7867 -1.3197 -0.6083
 7171TIP3   OH243003   3.017   4.065  12.152 -0.5885  0.3309 -0.0909
 7171TIP3    H143004   3.031   4.150  12.194  0.6807 -1.3645  3.3377
 7171TIP3    H243005   3.097   4.048  12.103 -0.4708  0.7386 -0.0416
 7172TIP3   OH243006   3.865   0.408   0.679 -0.0618 -0.1602 -0.3382
 7172TIP3    H143007   3.838   0.480   0.737 -0.1177 -1.4241  1.2876
 7172TIP3    H243008   3.960   0.402   0.690 -0.0313 -0.2227 -0.6208
 7173TIP3   OH243009   6.607   3.510  14.177  0.3731 -0.0877 -0.5460
 7173TIP3    H143010   6.592   3.536  14.268 -0.1815 -0.8074 -0.4182
 7173TIP3    H243011   6.702   3.507  14.168  0.4682  1.8164 -0.5368
 7174TIP3   OH243012   3.996   2.223   2.443 -0.1511  0.2061 -0.0826
 7174TIP3    H143013   4.044   2.257   2.519 -0.3178 -0.2161  0.2157
 7174TIP3    H243014   4.052   2.153   2.409 -0.8670 -0.7708  0.6939
 7175TIP3   OH243015   1.321   6.188  14.551  0.0197 -0.1253 -0.2199
 7175TIP3    H143016   1.399   6.241  14.536 -0.0579 -0.2685 -1.1626
 7175TIP3    H243017   1.354   6.104  14.584  0.0979  0.8436  2.4837
 7176TIP3   OH243018   6.715   5.623   5.852  0.3382 -1.1130 -0.4801
 7176TIP3    H143019   6.667   5.544   5.826 -1.3259  0.3692 -2.1435
 7176TIP3    H243020   6.647   5.683   5.883  1.4375  0.1120 -0.3848
 7177TIP3   OH243021   1.680   0.676  14.710 -0.0145  0.3356 -0.0072
 7177TIP3    H143022   1.730   0.702  14.788  1.2166  0.5194 -0.8374
 7177TIP3    H243023   1.725   0.598  14.678 -2.7817 -2.1529  1.6045
 7178TIP3   OH243024   4.052   1.154   0.380  0.3988  0.0527  0.5576
 7178TIP3    H143025   4.020   1.243   0.362  1.1299  0.3006  0.4374
 7178TIP3    H243026   4.124   1.166   0.442  0.3146 -0.4881  0.7697
 7179TIP3   OH243027   2.001   5.173   0.097  0.2071 -0.3908 -0.5757
 7179TIP3    H143028   2.012   5.243   0.033  0.4709 -1.1727 -1.4120
 7179TIP3    H243029   2.047   5.204   0.175  0.5609  0.2508 -1.0289
 7180TIP3   OH243030   1.903   1.973  14.484 -0.2848 -0.1336  0.5268
 7180TIP3    H143031   1.990   1.989  14.446 -0.8434 -0.6212 -1.0364
 7180TIP3    H243032   1.842   1.994  14.413 -1.2996 -3.3672  0.2926
 7181TIP3   OH243033   1.805   5.562   0.334 -0.1760 -0.2631 -0.1998
 7181TIP3    H143034   1.772   5.612   0.408  0.2074 -0.7000  0.2674
 7181TIP3    H243035   1.885   5.520   0.366 -0.9997 -1.9499 -0.2858
 7182TIP3   OH243036   5.506   2.804   1.593 -0.1627 -0.5377 -0.6313
 7182TIP3    H143037   5.504   2.864   1.668  1.9798 -2.6622  1.2880
 7182TIP3    H243038   5.414   2.780   1.579 -0.8619  1.6743 -0.2661
 7183TIP3   OH243039   0.496   5.354   4.365  0.1439  0.1360  0.5391
 7183TIP3    H143040   0.413   5.400   4.374 -0.9282 -1.7589  0.8224
 7183TIP3    H243041   0.540   5.368   4.448 -1.4086 -1.5960  1.7340
 7184TIP3   OH243042   6.116   6.429  10.876 -0.0022  0.0770  0.0136
 7184TIP3    H143043   6.064   6.441  10.797 -0.5249 -1.0208  0.1699
 7184TIP3    H243044   6.167   6.509  10.884 -0.4303  0.4713 -1.0712
 7185TIP3   OH243045   4.457   3.934  12.574  0.1412 -0.6758  0.3097
 7185TIP3    H143046   4.395   3.872  12.614  0.4728 -1.2459 -0.0539
 7185TIP3    H243047   4.406   4.015  12.565 -0.3390 -0.9287  0.6640
 7186TIP3   OH243048   3.331   3.944  14.975  0.4326  0.7660  0.4166
 7186TIP3    H143049   3.332   3.882  14.903 -0.3182  2.4447 -1.1178
 7186TIP3    H243050   3.238   3.960  14.993  0.5855  1.9074  0.3159
 7187TIP3   OH243051   1.290   5.415  11.141 -0.8400  0.5342 -1.0416
 7187TIP3    H143052   1.211   5.468  11.125  0.1840  2.8772  1.0094
 7187TIP3    H243053   1.274   5.375  11.226  0.7371  2.3675  0.2069
 7188TIP3   OH243054   1.248   2.335   5.153 -0.0236 -0.0616 -0.4036
 7188TIP3    H143055   1.325   2.279   5.146  0.9625  1.0335  1.1348
 7188TIP3    H243056   1.196   2.297   5.224  0.1305  0.3566 -0.0593
 7189TIP3   OH243057   2.373   2.209  12.946  0.2509  0.6786  1.0870
 7189TIP3    H143058   2.364   2.298  12.980 -2.2892  0.1430  2.0008
 7189TIP3    H243059   2.394   2.156  13.022  0.0204  0.2601  0.8618
 7190TIP3   OH243060   3.983   5.882  13.392  0.4179 -0.1637 -0.0773
 7190TIP3    H143061   4.019   5.885  13.304  1.2955  0.1345  0.2818
 7190TIP3    H243062   3.897   5.840  13.382  0.6394 -0.4048 -1.0206
 7191TIP3   OH243063   4.335   1.589   4.111 -0.2200  0.0180  0.5958
 7191TIP3    H143064   4.308   1.569   4.200  0.0509  0.0699  0.6890
 7191TIP3    H243065   4.411   1.534   4.096 -0.9423 -0.8559 -0.0030
 7192TIP3   OH243066   6.275   2.878  16.121  0.1632  0.0796  0.2799
 7192TIP3    H143067   6.348   2.907  16.176 -0.2483 -0.3636  1.0720
 7192TIP3    H243068   6.211   2.949  16.125  0.0198 -0.0666  0.5900
 7193TIP3   OH243069   5.707   5.044  11.987  0.0373  0.1293 -0.4755
 7193TIP3    H143070   5.737   4.961  11.951  0.1321 -0.4466  0.8975
 7193TIP3    H243071   5.727   5.108  11.918 -0.1240 -0.9824 -1.5791
 7194TIP3   OH243072   1.469   0.250  15.886 -0.1797 -0.4941  0.3585
 7194TIP3    H143073   1.514   0.261  15.802  0.2613  1.0135  0.7563
 7194TIP3    H243074   1.462   0.156  15.897  2.5797 -0.8281  0.0835
 7195TIP3   OH243075   4.156   2.388  12.800  0.2094  0.0097  0.0442
 7195TIP3    H143076   4.176   2.481  12.803 -3.5496  0.9381  0.8752
 7195TIP3    H243077   4.141   2.369  12.708  2.8045 -0.3390 -0.3843
 7196TIP3   OH243078   3.527   4.418   0.502 -0.0636 -0.0280 -0.1823
 7196TIP3    H143079   3.578   4.391   0.426  0.7683 -1.7424  0.9135
 7196TIP3    H243080   3.593   4.438   0.569 -0.6483 -3.6247  1.7193
 7197TIP3   OH243081   0.025   3.745  14.408 -0.2231 -0.7337  0.2966
 7197TIP3    H143082  -0.061   3.703  14.412 -0.0426 -1.1601 -0.2064
 7197TIP3    H243083   0.006   3.838  14.395 -0.6452 -0.5311  2.1060
 7198TIP3   OH243084   3.590   3.348  15.492 -0.1817  0.4854 -0.6085
 7198TIP3    H143085   3.551   3.410  15.431 -0.9661 -0.5930 -1.2391
 7198TIP3    H243086   3.569   3.262  15.456 -3.1317 -0.3643  2.5412
 7199TIP3   OH243087   2.234   5.424   3.486  0.3460 -0.2336 -0.1852
 7199TIP3    H143088   2.174   5.349   3.490 -0.5896  0.3758 -1.8814
 7199TIP3    H243089   2.225   5.467   3.571 -0.5281 -0.9730  0.1061
 7200TIP3   OH243090   3.294   3.207   5.116 -0.0244  0.2745 -0.0381
 7200TIP3    H143091   3.381   3.236   5.088  0.3395 -2.0349 -1.5383
 7200TIP3    H243092   3.281   3.251   5.200  0.9136  3.6706 -1.4952
 7201TIP3   OH243093   4.219   1.189   4.175  0.6544 -0.1882  0.1701
 7201TIP3    H143094   4.188   1.206   4.086 -0.0821 -1.0404  0.2522
 7201TIP3    H243095   4.153   1.231   4.231  1.0019  0.1634  0.3158
 7202TIP3   OH243096   1.352   2.122   4.975  0.6941 -0.1744  0.1289
 7202TIP3    H143097   1.346   2.042   4.923 -0.0741  0.0294 -0.1170
 7202TIP3    H243098   1.442   2.123   5.008  0.7559 -1.0563  0.0119
 7203TIP3   OH243099   1.784   3.935   6.612 -0.4588  0.3878  0.3285
 7203TIP3    H143100   1.794   3.846   6.645 -0.0311  0.7892  1.3547
 7203TIP3    H243101   1.696   3.938   6.574 -1.2227  0.0328  1.9841
 7204TIP3   OH243102   3.170   4.147  11.046 -0.6750 -0.4563  0.3789
 7204TIP3    H143103   3.149   4.149  10.953 -0.6860  1.1673  0.3830
 7204TIP3    H243104   3.104   4.203  11.087  0.8819  1.0299  0.9902
 7205TIP3   OH243105   2.700   1.774  11.064 -0.0244  0.1860  0.2196
 7205TIP3    H143106   2.715   1.844  11.000 -0.2982  0.7409  0.7559
 7205TIP3    H243107   2.631   1.720  11.024  1.8229 -1.1955 -1.3060
 7206TIP3   OH243108   3.100   5.972   4.519 -0.0953  0.1789 -0.1592
 7206TIP3    H143109   3.139   6.048   4.562  0.3563 -1.0105  1.6277
 7206TIP3    H243110   3.016   5.959   4.564 -0.6870  0.2696 -1.2067
 7207TIP3   OH243111   5.516   1.343  16.151  0.2154  0.0676 -0.0302
 7207TIP3    H143112   5.548   1.255  16.170 -1.4117 -0.1486  2.1720
 7207TIP3    H243113   5.515   1.387  16.236  0.4499  2.0492 -0.9929
 7208TIP3   OH243114   4.684   6.181  15.485 -0.3080  0.2065 -0.4887
 7208TIP3    H143115   4.707   6.160  15.575 -2.1201  2.4846  0.5815
 7208TIP3    H243116   4.624   6.111  15.458  0.3096 -0.5279 -0.0143
 7209TIP3   OH243117   3.299   4.425  15.310  0.3933 -0.2703 -0.1958
 7209TIP3    H143118   3.343   4.510  15.314  1.5340 -0.7876 -1.0049
 7209TIP3    H243119   3.370   4.361  15.315 -0.3858 -1.1652 -0.3074
 7210TIP3   OH243120   3.449   3.087   0.036 -0.4184 -0.4110  0.5060
 7210TIP3    H143121   3.506   3.134  -0.026 -1.9724  0.4585 -0.3215
 7210TIP3    H243122   3.494   3.004   0.052  0.1280 -0.5765 -1.6443
 7211TIP3   OH243123   0.564   4.331  11.481 -0.2236  0.1690 -0.5564
 7211TIP3    H143124   0.638   4.287  11.523  0.1442  0.0063 -1.3611
 7211TIP3    H243125   0.487   4.283  11.510  0.2577 -1.8762 -2.4428
 7212TIP3   OH243126   4.941   0.137  16.927 -0.3461  0.5070  0.1296
 7212TIP3    H143127   5.035   0.140  16.913 -0.5409  0.5491 -1.3282
 7212TIP3    H243128   4.912   0.059  16.879 -1.3193  1.6916 -1.2943
 7213TIP3   OH243129   1.254   4.234  14.769 -0.6274 -1.1412  0.6842
 7213TIP3    H143130   1.338   4.262  14.807  0.7714 -4.3873  0.3395
 7213TIP3    H243131   1.189   4.252  14.837  0.3586  1.1056  1.1146
 7214TIP3   OH243132   2.907   1.489  14.700 -0.3027  0.3314  0.1659
 7214TIP3    H143133   2.823   1.455  14.728  0.0785  0.3609  1.3880
 7214TIP3    H243134   2.925   1.444  14.617 -0.4052 -1.4958  1.0879
 7215TIP3   OH243135   3.805   2.775   1.482  0.5682  0.4819  0.0214
 7215TIP3    H143136   3.791   2.861   1.444 -0.2911  0.4641  0.2730
 7215TIP3    H243137   3.761   2.779   1.567  1.5298  0.1725  0.5460
 7216TIP3   OH243138   5.611   5.260  15.937  0.3680  0.3549 -0.4002
 7216TIP3    H143139   5.597   5.205  15.860  1.2444  0.8986 -0.9580
 7216TIP3    H243140   5.523   5.288  15.962  0.2077  2.4268 -2.8839
 7217TIP3   OH243141   1.300   6.464   5.523 -0.2134 -0.0497  0.5854
 7217TIP3    H143142   1.359   6.409   5.472  0.0662 -0.5598  1.4297
 7217TIP3    H243143   1.321   6.554   5.497  2.2955 -0.0740  2.2115
 7218TIP3   OH243144   0.541   6.279   2.501 -0.0658  0.3019 -0.3136
 7218TIP3    H143145   0.495   6.359   2.527 -0.2429  0.2210 -0.3704
 7218TIP3    H243146   0.509   6.262   2.412  0.3394  0.4346 -0.4877
 7219TIP3   OH243147   0.002   0.436   3.418  0.7562  0.0673  0.2864
 7219TIP3    H143148  -0.074   0.462   3.469  0.1499  1.0408 -1.0437
 7219TIP3    H243149   0.055   0.516   3.411  2.1028 -0.6655  1.4529
 7220TIP3   OH243150   3.964   4.028  12.085  0.5289  0.1384 -0.5090
 7220TIP3    H143151   4.027   3.963  12.113 -0.3984  0.1373  1.7581
 7220TIP3    H243152   3.894   3.977  12.042 -0.4919 -0.5154  1.7938
 7221TIP3   OH243153   0.518   0.127   0.683  0.4103 -0.0737 -0.2547
 7221TIP3    H143154   0.458   0.092   0.617  0.7004  0.5271 -0.8336
 7221TIP3    H243155   0.578   0.055   0.701 -1.1544 -1.1126  1.1905
 7222TIP3   OH243156   5.509   1.944   3.721  0.2890  0.4024  0.2149
 7222TIP3    H143157   5.514   2.031   3.761  0.1857  1.6721 -2.3157
 7222TIP3    H243158   5.415   1.927   3.713  0.2894  0.8103 -0.7500
 7223TIP3   OH243159   1.687   5.963  16.093 -0.3585 -0.3297 -0.1359
 7223TIP3    H143160   1.658   5.898  16.157 -0.4104 -0.1262  0.0486
 7223TIP3    H243161   1.704   5.913  16.013  0.3551 -0.6895  0.2305
 7224TIP3   OH243162   1.814   2.396  10.464  0.3009  0.3427  0.0808
 7224TIP3    H143163   1.806   2.319  10.407 -1.7371  0.5867 -0.0472
 7224TIP3    H243164   1.762   2.373  10.541  0.1324  1.3741  0.2862
 7225TIP3   OH243165   5.941   3.812   0.582  0.2938 -0.0018 -0.4781
 7225TIP3    H143166   5.874   3.810   0.650  0.1259 -1.1047 -0.6553
 7225TIP3    H243167   5.974   3.902   0.583  1.1327 -0.2588  1.8680
 7226TIP3   OH243168   4.874   2.918  13.833 -0.2483 -0.1379  0.2164
 7226TIP3    H143169   4.834   2.852  13.891 -2.1675  1.5182  0.9058
 7226TIP3    H243170   4.830   3.000  13.857  1.4839  1.2594 -1.1633
 7227TIP3   OH243171   5.386   2.373  13.920 -0.1816 -0.2061 -0.0043
 7227TIP3    H143172   5.343   2.406  13.841 -1.7279 -0.7832  0.5632
 7227TIP3    H243173   5.422   2.288  13.894  0.1121  0.0150 -0.3277
 7228TIP3   OH243174   2.510   0.221  14.351 -0.3682 -0.0688  0.6003
 7228TIP3    H143175   2.547   0.310  14.353 -0.0901 -0.1103 -1.1936
 7228TIP3    H243176   2.586   0.164  14.341 -0.7361 -0.2619 -1.4646
 7229TIP3   OH243177   6.181   3.321  14.765 -0.0805 -0.3113 -0.2183
 7229TIP3    H143178   6.155   3.354  14.851  0.9887  0.0381 -0.0189
 7229TIP3    H243179   6.116   3.253  14.745 -0.1128 -0.6801  1.0384
 7230TIP3   OH243180   4.009   2.789   4.609 -0.5645 -0.4997  0.5514
 7230TIP3    H143181   4.077   2.828   4.554 -0.2985 -2.5614 -0.6793
 7230TIP3    H243182   4.055   2.768   4.691 -0.0770 -0.5049  0.2850
 7231TIP3   OH243183   6.738   4.292   1.112 -0.2852 -0.5337 -0.0083
 7231TIP3    H143184   6.709   4.280   1.022 -1.8372 -0.6686  0.4904
 7231TIP3    H243185   6.769   4.382   1.116  1.9467 -1.1657 -1.2166
 7232TIP3   OH243186   0.545   2.664  14.785 -0.2671 -0.0891 -0.6301
 7232TIP3    H143187   0.628   2.650  14.831 -0.5613 -0.0639 -0.0766
 7232TIP3    H243188   0.533   2.759  14.787 -3.3372 -0.1673  4.9664
 7233TIP3   OH243189   4.855   0.190  11.281 -0.2276  0.3974 -0.1321
 7233TIP3    H143190   4.873   0.166  11.190  1.6167  2.5785 -0.4292
 7233TIP3    H243191   4.940   0.216  11.316 -1.2021  1.2594  1.7084
 7234TIP3   OH243192   5.052   5.035  15.127 -0.1805 -0.1915 -0.2573
 7234TIP3    H143193   5.063   4.941  15.141  0.3988 -0.1608 -0.4563
 7234TIP3    H243194   4.963   5.054  15.157 -0.5084 -0.9024 -0.7363
 7235TIP3   OH243195   5.021   4.445   5.757 -0.0798  0.2428 -0.1580
 7235TIP3    H143196   5.073   4.525   5.767 -1.7954  1.0911  3.2728
 7235TIP3    H243197   5.063   4.382   5.816 -0.3698 -0.5416 -0.7652
 7236TIP3   OH243198   3.937   5.327  15.045 -0.2880 -0.3776  0.3709
 7236TIP3    H143199   3.864   5.344  15.105 -0.4440  1.6192 -0.3127
 7236TIP3    H243200   3.988   5.408  15.045  1.1647 -1.2414 -0.2478
 7237TIP3   OH243201   3.059   1.886   0.872 -0.1033 -0.4364 -0.2649
 7237TIP3    H143202   3.016   1.938   0.805 -0.6035  1.0657  1.1316
 7237TIP3    H243203   3.021   1.917   0.954  1.9083 -0.7634  0.8587
 7238TIP3   OH243204   3.842   1.244  13.225  0.3921 -0.3599  0.1902
 7238TIP3    H143205   3.837   1.178  13.294  2.1508  0.2850  1.0102
 7238TIP3    H243206   3.852   1.194  13.144  2.0226 -1.1574  0.8236
 7239TIP3   OH243207   3.230   5.566  17.184 -0.1827 -0.2963 -0.0665
 7239TIP3    H143208   3.297   5.617  17.229 -0.2886 -0.4249  0.2370
 7239TIP3    H243209   3.206   5.620  17.109  0.3837 -0.3225 -0.2789
 7240TIP3   OH243210   5.698   6.233   3.457  0.0553  0.1462  0.0158
 7240TIP3    H143211   5.742   6.148   3.455  1.0077  0.4820  2.7556
 7240TIP3    H243212   5.609   6.215   3.429  0.6988 -1.3959 -1.1784
 7241TIP3   OH243213   3.454   0.953   5.661 -0.2224  0.4202  0.7251
 7241TIP3    H143214   3.474   1.032   5.612  1.6804  0.3767  1.3541
 7241TIP3    H243215   3.412   0.895   5.597  2.1064  0.3836 -0.9151
 7242TIP3   OH243216   4.294   6.726   1.366 -0.0747  0.1164 -0.4929
 7242TIP3    H143217   4.341   6.753   1.287  0.3740 -0.4877 -0.4422
 7242TIP3    H243218   4.284   6.806   1.417  2.7316 -0.0231  0.4577
 7243TIP3   OH243219   3.626   5.583   6.408  0.0072  0.0326 -0.0873
 7243TIP3    H143220   3.556   5.535   6.364  1.6437 -1.3576 -1.2979
 7243TIP3    H243221   3.629   5.547   6.496 -0.9740  0.3287  0.0823
 7244TIP3   OH243222   0.423   1.813  13.020 -0.6144  0.1326  0.4341
 7244TIP3    H143223   0.515   1.798  12.999 -0.2034  1.8731  0.8132
 7244TIP3    H243224   0.399   1.890  12.968 -1.4160  0.5898  1.4465
 7245TIP3   OH243225   4.890   6.438   2.301 -0.2401 -0.3447  0.4330
 7245TIP3    H143226   4.957   6.380   2.264 -0.1648  0.0028  0.0086
 7245TIP3    H243227   4.893   6.516   2.245 -1.1730 -0.4291  0.2607
 7246TIP3   OH243228   4.311   4.245  12.827 -0.3096  0.4686 -0.1916
 7246TIP3    H143229   4.407   4.249  12.833 -0.1473  0.2947 -2.0115
 7246TIP3    H243230   4.292   4.275  12.738 -1.9271  0.0422 -0.0124
 7247TIP3   OH243231   0.973   0.123   0.595  0.4615  0.1768  0.4692
 7247TIP3    H143232   0.910   0.146   0.527  0.9822 -1.7363 -0.7332
 7247TIP3    H243233   0.995   0.207   0.636 -1.9666  1.0329  0.1766
 7248TIP3   OH243234   6.452   2.569  12.227  1.0591  0.1464 -0.0751
 7248TIP3    H143235   6.458   2.626  12.303 -0.7437  0.8610 -0.4108
 7248TIP3    H243236   6.431   2.627  12.154 -1.1978 -0.9155 -0.3602
 7249TIP3   OH243237   4.423   0.853   3.507  0.0672 -0.0735 -0.5040
 7249TIP3    H143238   4.332   0.870   3.530  0.6105  0.3887  1.5239
 7249TIP3    H243239   4.449   0.927   3.452 -0.6971 -0.0620 -0.8513
 7250TIP3   OH243240   0.871   3.953  10.792 -0.4049  0.2458  0.2688
 7250TIP3    H143241   0.857   3.860  10.775  2.2717 -0.3148  0.6199
 7250TIP3    H243242   0.935   3.955  10.864  1.7111  2.2444 -1.4926
 7251TIP3   OH243243   1.835   6.824  12.286 -0.5570  0.0811 -0.0372
 7251TIP3    H143244   1.888   6.895  12.250 -0.1204  0.7914  1.8769
 7251TIP3    H243245   1.895   6.773  12.340 -1.4255 -0.1237  0.7845
 7252TIP3   OH243246   3.384   0.165  12.519 -0.0646  0.3798  0.6072
 7252TIP3    H143247   3.399   0.259  12.511  2.6052 -0.0720 -0.6296
 7252TIP3    H243248   3.342   0.141  12.436 -3.4594  0.8108  2.0305
 7253TIP3   OH243249   1.958   3.257   4.321  0.6145  0.1736 -0.6136
 7253TIP3    H143250   1.937   3.342   4.361  0.8214 -0.2206  0.3530
 7253TIP3    H243251   1.879   3.233   4.273  0.2030  0.4673 -0.0954
 7254TIP3   OH243252   1.162   6.017  15.967  0.0529  0.5780 -0.4948
 7254TIP3    H143253   1.191   6.108  15.962 -1.4700  1.0581 -0.9526
 7254TIP3    H243254   1.137   5.995  15.878 -0.5810  0.0454 -0.1905
 7255TIP3   OH243255   6.116   3.490   4.950 -0.1731  0.2383  0.1637
 7255TIP3    H143256   6.163   3.440   5.017  1.5389  1.7537  0.1688
 7255TIP3    H243257   6.178   3.498   4.878 -1.1915  0.5460 -0.7023
 7256TIP3   OH243258   2.559   4.643  12.421  0.8467 -0.5767  0.0945
 7256TIP3    H143259   2.586   4.611  12.507  0.4640 -0.2444  0.3406
 7256TIP3    H243260   2.497   4.713  12.440  1.0723 -0.2235 -0.4454
 7257TIP3   OH243261   6.684   2.039  13.758 -0.2070 -0.4436 -0.0536
 7257TIP3    H143262   6.718   1.962  13.712  0.8687 -1.1904  1.8991
 7257TIP3    H243263   6.745   2.109  13.736 -0.7185 -0.3269 -1.1662
 7258TIP3   OH243264   2.358   0.332  14.012  0.1440  0.1324 -0.1765
 7258TIP3    H143265   2.279   0.291  14.049 -0.1194  0.1269 -0.7359
 7258TIP3    H243266   2.408   0.259  13.975 -0.6635  0.3720 -1.8040
 7259TIP3   OH243267   2.979   5.168  15.166  0.1726 -0.3162 -0.4348
 7259TIP3    H143268   2.884   5.154  15.172  0.1438  0.3089  0.9132
 7259TIP3    H243269   3.018   5.089  15.203  0.2010 -0.8095 -1.4939
 7260TIP3   OH243270   1.572   2.803  15.942 -0.0454  0.4449 -0.1406
 7260TIP3    H143271   1.585   2.818  15.849 -2.0773  0.7041 -0.4287
 7260TIP3    H243272   1.505   2.734  15.946  1.5834 -1.1742  1.1640
 7261TIP3   OH243273   0.795   4.143  15.545  0.6129  0.5204  0.1846
 7261TIP3    H143274   0.738   4.089  15.491  1.7680  0.5436 -1.1362
 7261TIP3    H243275   0.819   4.216  15.488 -0.0109  1.8548  1.5522
 7262TIP3   OH243276   4.254   2.648   3.200  0.3510 -0.0981 -0.4400
 7262TIP3    H143277   4.331   2.665   3.253  1.5568  1.9535 -2.6362
 7262TIP3    H243278   4.180   2.674   3.255  1.3460 -0.2464  1.0166
 7263TIP3   OH243279   0.373   3.858  11.298  0.1072  0.6371  0.5717
 7263TIP3    H143280   0.308   3.914  11.340  0.3022  1.4690 -0.2066
 7263TIP3    H243281   0.334   3.835  11.214  0.8671  1.2306  0.0546
 7264TIP3   OH243282   4.351   0.399  14.738 -0.0087  0.3253 -0.3400
 7264TIP3    H143283   4.385   0.339  14.671 -0.7008  1.9938 -2.3166
 7264TIP3    H243284   4.287   0.453  14.691 -3.6875 -1.0492  2.6307
 7265TIP3   OH243285   5.324   5.487  17.053 -0.5364  0.1403 -0.2469
 7265TIP3    H143286   5.288   5.435  17.125  0.8757 -1.1024 -0.3895
 7265TIP3    H243287   5.247   5.509  17.000 -1.6354  1.1889  1.6517
 7266TIP3   OH243288   0.018   6.614  16.185  0.2020 -0.2695 -0.2731
 7266TIP3    H143289   0.046   6.525  16.164 -1.3920 -0.7244 -0.5793
 7266TIP3    H243290   0.064   6.669  16.121 -0.5055 -1.1029 -1.5278
 7267TIP3   OH243291   6.055   6.506   2.118 -0.2017 -0.1483 -0.5192
 7267TIP3    H143292   6.083   6.532   2.030 -0.5722 -1.5360 -1.0902
 7267TIP3    H243293   6.104   6.425   2.135 -1.3559 -0.7913 -0.1572
 7268TIP3   OH243294   3.990   0.424   4.368 -0.1710  0.3009 -0.1824
 7268TIP3    H143295   3.985   0.497   4.429  2.7149  1.8404 -1.5901
 7268TIP3    H243296   3.924   0.442   4.301 -0.3381  0.9322  0.1545
 7269TIP3   OH243297   4.565   6.823   4.476 -0.5927  0.5542 -0.0568
 7269TIP3    H143298   4.609   6.752   4.521 -1.5427 -0.6099 -0.8774
 7269TIP3    H243299   4.596   6.816   4.385 -2.8416 -0.7382 -0.8225
 7270TIP3   OH243300   2.486   4.233  11.200  0.1482  0.4811  0.7423
 7270TIP3    H143301   2.457   4.264  11.115  1.1598 -0.1617  0.1478
 7270TIP3    H243302   2.417   4.260  11.260 -0.2345  1.5791 -0.1581
 7271TIP3   OH243303   0.567   1.073  16.323 -0.7535 -0.4190  0.7114
 7271TIP3    H143304   0.495   1.107  16.271 -1.4598  0.5411  2.2670
 7271TIP3    H243305   0.578   0.983  16.293 -1.3195  0.0162 -0.8736
 7272TIP3   OH243306   5.487   5.698   6.449 -0.2130  0.8062  1.0437
 7272TIP3    H143307   5.475   5.670   6.359 -1.3762  2.1012  0.7556
 7272TIP3    H243308   5.576   5.733   6.452  0.3907 -0.6718  0.8214
 7273TIP3   OH243309   6.371   2.792   0.343  0.5704 -0.4800 -0.3345
 7273TIP3    H143310   6.342   2.857   0.279  0.6234 -0.0763  0.0437
 7273TIP3    H243311   6.441   2.744   0.299  2.8887  1.8938  0.4520
 7274TIP3   OH243312   2.205   3.020   4.939 -0.2200 -0.1479 -0.2782
 7274TIP3    H143313   2.123   2.983   4.908 -0.4146  0.7749 -0.9270
 7274TIP3    H243314   2.247   3.054   4.860  0.2555  0.3893  0.1982
 7275TIP3   OH243315   4.752   5.992   1.681  0.6259 -0.5160 -0.0182
 7275TIP3    H143316   4.835   5.966   1.642  1.0566  1.1676 -0.3007
 7275TIP3    H243317   4.775   6.060   1.744 -0.5289 -0.0217 -0.1000
 7276TIP3   OH243318   1.414   1.080  15.732  0.3926  0.0707 -0.2515
 7276TIP3    H143319   1.494   1.113  15.691 -0.2954  0.8362 -1.0204
 7276TIP3    H243320   1.387   1.151  15.791 -0.6285  0.5718 -1.2736
 7277TIP3   OH243321   3.759   2.558   1.912  0.4153 -0.7675  0.9925
 7277TIP3    H143322   3.735   2.534   1.823  0.7362  1.7930  0.1291
 7277TIP3    H243323   3.852   2.579   1.908 -0.0863  1.9051  1.2137
 7278TIP3   OH243324   0.166   5.782  12.768 -0.1815 -0.7330 -0.2068
 7278TIP3    H143325   0.224   5.818  12.700 -0.4428 -0.1784 -0.1393
 7278TIP3    H243326   0.195   5.823  12.849  0.7112 -2.0630  0.1796
 7279TIP3   OH243327   0.733   2.253   3.838  0.0510 -0.1430 -0.5983
 7279TIP3    H143328   0.801   2.233   3.773  0.9741  1.8991 -0.3523
 7279TIP3    H243329   0.686   2.171   3.850 -0.0382 -0.6839 -3.7011
 7280TIP3   OH243330   2.480   0.901   0.890 -0.1569 -0.1626 -0.1264
 7280TIP3    H143331   2.561   0.936   0.853  0.2428  0.8152  1.5748
 7280TIP3    H243332   2.469   0.816   0.847 -0.4917  1.4116 -3.4650
 7281TIP3   OH243333   2.545   3.754   0.796  0.5878  0.2970 -0.2973
 7281TIP3    H143334   2.536   3.670   0.751 -0.8177 -0.2893  1.0010
 7281TIP3    H243335   2.456   3.777   0.823  1.0530  1.8348  0.0427
 7282TIP3   OH243336   0.574   0.411  16.008 -0.4395 -0.3714  0.0601
 7282TIP3    H143337   0.662   0.372  16.009 -0.7673 -1.1347  0.0354
 7282TIP3    H243338   0.580   0.482  15.944  0.5141  0.4423  1.0167
 7283TIP3   OH243339   2.372   4.619   5.396  0.0706 -0.6729 -0.0416
 7283TIP3    H143340   2.435   4.654   5.460 -0.1349  0.7122 -0.5590
 7283TIP3    H243341   2.332   4.697   5.357  0.2149 -1.4843 -1.8885
 7284TIP3   OH243342   6.827   0.233  14.235  0.3043 -0.0870 -0.5835
 7284TIP3    H143343   6.782   0.225  14.150  0.0846 -0.7728 -0.4052
 7284TIP3    H243344   6.785   0.168  14.291 -0.7943  1.5505  0.6166
 7285TIP3   OH243345   6.633   5.325   1.794  0.6312  0.0334 -0.2663
 7285TIP3    H143346   6.560   5.300   1.738  0.5724  0.7938 -0.5387
 7285TIP3    H243347   6.669   5.242   1.824 -1.1064 -0.3441  0.8836
 7286TIP3   OH243348   0.976   6.782   1.697  0.2017 -0.3350 -0.0219
 7286TIP3    H143349   0.914   6.709   1.698 -1.0431  0.7102  0.5934
 7286TIP3    H243350   1.041   6.759   1.763 -1.8090  0.4397  2.3713
 7287TIP3   OH243351   2.855   4.487  13.169  0.0286  0.0774 -0.4483
 7287TIP3    H143352   2.950   4.495  13.158  0.0121  0.3024 -0.4505
 7287TIP3    H243353   2.818   4.522  13.088 -0.0626  0.3494 -0.2928
 7288TIP3   OH243354   3.645   2.176   3.123  0.1089 -0.2491  0.6818
 7288TIP3    H143355   3.627   2.085   3.103  2.7866 -1.1378  1.8703
 7288TIP3    H243356   3.731   2.193   3.085 -0.6255  2.0778 -0.1874
 7289TIP3   OH243357   6.040   4.542  15.803  0.0170  0.3030  0.1479
 7289TIP3    H143358   5.974   4.557  15.735 -0.6486  1.0562  0.9324
 7289TIP3    H243359   6.026   4.452  15.830 -0.4049  0.3179 -0.0036
 7290TIP3   OH243360   0.138   3.261  12.194  0.6773  0.1189 -0.0822
 7290TIP3    H143361   0.101   3.183  12.234  0.8597  0.8517  1.6065
 7290TIP3    H243362   0.198   3.228  12.127  1.9684 -1.2514  1.6734
 7291TIP3   OH243363   2.192   1.736   2.815 -0.3011  0.4651 -0.1178
 7291TIP3    H143364   2.160   1.690   2.892 -0.1689 -1.3342 -1.0802
 7291TIP3    H243365   2.166   1.681   2.741  1.9324  0.7194 -1.1822
 7292TIP3   OH243366   4.337   0.817   5.661 -0.2805  0.2784 -0.2703
 7292TIP3    H143367   4.383   0.773   5.589 -0.1045  0.1917 -0.1069
 7292TIP3    H243368   4.269   0.868   5.618  0.0315  0.4865 -0.5228
 7293TIP3   OH243369   6.597   6.683   6.121 -0.2843 -0.0464 -0.3411
 7293TIP3    H143370   6.662   6.706   6.187 -0.1136  0.8181 -0.7989
 7293TIP3    H243371   6.549   6.764   6.105  0.4240  0.0797 -2.1032
 7294TIP3   OH243372   2.050   5.256   4.544  0.0691 -0.6606  0.6803
 7294TIP3    H143373   1.968   5.280   4.502  0.8393  2.1747  0.5984
 7294TIP3    H243374   2.032   5.264   4.638  0.6091  1.6087  0.6434
 7295TIP3   OH243375   4.799   3.137  13.975 -0.6707  0.1170 -0.7734
 7295TIP3    H143376   4.835   3.180  14.053  3.1427 -0.7263 -1.8481
 7295TIP3    H243377   4.774   3.209  13.917  2.0785  1.0105 -1.0240
 7296TIP3   OH243378   5.187   5.144  12.852  0.2836  0.2415 -0.4523
 7296TIP3    H143379   5.238   5.192  12.916  2.2764 -0.6396 -1.3123
 7296TIP3    H243380   5.188   5.199  12.774 -0.9413  0.6553 -0.2059
 7297TIP3   OH243381   0.154   0.393   1.795 -0.1162  0.0277  1.0224
 7297TIP3    H143382   0.097   0.445   1.737  0.6688 -0.9070 -0.6517
 7297TIP3    H243383   0.102   0.382   1.875 -1.3362  1.1580  0.4350
 7298TIP3   OH243384   0.184   0.086  10.937  0.8591  0.1373 -0.1098
 7298TIP3    H143385   0.175   0.181  10.924  0.3534 -0.0615 -1.3627
 7298TIP3    H243386   0.265   0.076  10.987  0.5152  1.2666  0.7147
 7299TIP3   OH243387   2.461   2.544  16.786  0.2527  0.2178  0.1014
 7299TIP3    H143388   2.425   2.460  16.755 -0.1101  0.1644  0.6634
 7299TIP3    H243389   2.398   2.609  16.757  1.1270  0.4562 -1.3965
 7300TIP3   OH243390   5.611   2.049   1.194  0.2508 -0.0856  0.0911
 7300TIP3    H143391   5.523   2.011   1.195  0.4988 -0.7043 -0.4739
 7300TIP3    H243392   5.603   2.125   1.136  0.2872 -0.6799 -0.7123
 7301TIP3   OH243393   4.987   1.484   4.329 -0.1292 -0.3248 -0.0294
 7301TIP3    H143394   4.988   1.546   4.256 -0.4578  0.1627  0.3862
 7301TIP3    H243395   4.976   1.398   4.286 -0.9360  0.0093 -0.5234
 7302TIP3   OH243396   4.940   5.655   4.860 -0.1283 -0.1725  0.5262
 7302TIP3    H143397   4.856   5.623   4.895 -0.2954 -0.4217 -0.0891
 7302TIP3    H243398   4.923   5.746   4.837 -0.5204 -0.4927 -0.5004
 7303TIP3   OH243399   2.086   0.106  13.803  0.6534  0.3775 -0.3358
 7303TIP3    H143400   1.999   0.140  13.779  0.6239  0.1509 -0.5522
 7303TIP3    H243401   2.088   0.111  13.899  0.0103 -0.5578 -0.2561
 7304TIP3   OH243402   5.706   2.383  12.773  0.2449 -0.1875  0.1654
 7304TIP3    H143403   5.681   2.346  12.858  0.0678 -1.9046 -0.5971
 7304TIP3    H243404   5.641   2.348  12.712  1.0401  0.0925 -0.8679
 7305TIP3   OH243405   3.845   1.835  17.046  0.3476 -0.3372 -0.5331
 7305TIP3    H143406   3.876   1.805  16.961  0.3186  0.4887 -0.8466
 7305TIP3    H243407   3.865   1.928  17.047 -0.4403 -0.1630  0.0095
 7306TIP3   OH243408   5.989   1.721   0.593  0.4321 -0.0333 -0.2777
 7306TIP3    H143409   5.971   1.790   0.529  0.5323  0.0013 -0.2693
 7306TIP3    H243410   5.943   1.645   0.559  0.3265  0.0362 -0.2908
 7307TIP3   OH243411   5.510   3.881   0.425 -0.0382 -0.2168  0.0936
 7307TIP3    H143412   5.451   3.811   0.453 -0.3822  0.1161  0.2229
 7307TIP3    H243413   5.538   3.922   0.507 -2.6057  2.0389 -0.0155
 7308TIP3   OH243414   6.140   1.049   6.766  0.3009  0.4095 -0.7285
 7308TIP3    H143415   6.156   0.957   6.746  0.1587 -0.4993  2.6510
 7308TIP3    H243416   6.182   1.063   6.851 -1.1057  2.9947 -0.3398
 7309TIP3   OH243417   5.475   2.648   2.282  0.6416 -0.4057  0.1472
 7309TIP3    H143418   5.447   2.709   2.351  2.8305 -0.9468  1.6043
 7309TIP3    H243419   5.505   2.705   2.211 -1.8274  0.1607 -0.5329
 7310TIP3   OH243420   0.362   6.342  13.204  0.2321 -0.1535  0.2450
 7310TIP3    H143421   0.373   6.249  13.186 -0.4199 -0.2804  0.4792
 7310TIP3    H243422   0.447   6.371  13.238  0.4272 -0.6634  0.1909
 7311TIP3   OH243423   1.591   3.680   2.080 -0.5026 -0.0696 -0.0855
 7311TIP3    H143424   1.601   3.621   2.156  0.5649  0.0484 -0.1228
 7311TIP3    H243425   1.660   3.653   2.020 -2.1940 -1.1137 -1.6940
 7312TIP3   OH243426   2.109   0.839  15.382  0.4102 -0.3213 -0.5296
 7312TIP3    H143427   2.199   0.807  15.390  0.0311 -1.5220 -0.8504
 7312TIP3    H243428   2.093   0.840  15.288 -0.0709 -0.5783 -0.4494
 7313TIP3   OH243429   3.176   1.958   5.827  0.0689  0.2585 -0.3326
 7313TIP3    H143430   3.149   1.884   5.881  0.9729 -1.1657 -1.7501
 7313TIP3    H243431   3.095   2.007   5.811 -0.9725 -1.6222 -1.1160
 7314TIP3   OH243432   2.582   5.746   0.085  0.5591  0.3113  0.3220
 7314TIP3    H143433   2.554   5.708   0.002  1.7008 -1.3381  0.6414
 7314TIP3    H243434   2.573   5.675   0.149 -0.4909  1.5883  1.7002
 7315TIP3   OH243435   2.286   1.423  16.789 -0.0360 -0.2038 -0.5484
 7315TIP3    H143436   2.193   1.445  16.797  0.2742  0.9915 -0.0462
 7315TIP3    H243437   2.306   1.375  16.869  0.3130  1.6367  0.5387
 7316TIP3   OH243438   4.565   5.413   5.494 -0.4270  0.0610  0.0093
 7316TIP3    H143439   4.493   5.396   5.433 -1.0098  2.1936  0.0247
 7316TIP3    H243440   4.522   5.445   5.573  0.4868  0.3307  0.4058
 7317TIP3   OH243441   4.571   3.726   2.618 -0.0225  0.4946  0.1514
 7317TIP3    H143442   4.529   3.756   2.537  0.6808 -1.5330 -1.0374
 7317TIP3    H243443   4.648   3.782   2.627  0.4757  0.0826 -1.2094
 7318TIP3   OH243444   1.689   5.569   1.228  0.2478 -0.0173  0.0706
 7318TIP3    H143445   1.706   5.580   1.322 -0.5707 -0.7751  0.3253
 7318TIP3    H243446   1.671   5.475   1.218  0.3104  0.0615 -0.8419
 7319TIP3   OH243447   2.536   4.473   3.062 -0.0200  0.4882 -0.5715
 7319TIP3    H143448   2.574   4.559   3.043 -0.1869  0.5972 -0.4164
 7319TIP3    H243449   2.539   4.426   2.979  1.5825  0.0511 -0.3111
 7320TIP3   OH243450   2.215   2.871   4.575 -0.7304 -0.2462  0.5779
 7320TIP3    H143451   2.158   2.929   4.524 -0.5267 -0.2683  0.3235
 7320TIP3    H243452   2.272   2.930   4.624  0.2530 -0.2311 -0.5594
 7321TIP3   OH243453   2.391   5.275  16.201 -0.1412 -0.1339 -0.0157
 7321TIP3    H143454   2.476   5.242  16.170 -0.6915 -0.8622 -0.7888
 7321TIP3    H243455   2.410   5.312  16.288  1.1934  0.8044 -0.6664
 7322TIP3   OH243456   3.570   6.075   2.459 -0.2664 -0.1025 -0.0129
 7322TIP3    H143457   3.621   6.068   2.540  0.9982  1.2939 -0.6404
 7322TIP3    H243458   3.480   6.089   2.489 -0.2952 -2.2859  1.1178
 7323TIP3   OH243459   5.094   0.770   0.266  0.2331  0.7882  0.6823
 7323TIP3    H143460   5.053   0.745   0.349  2.8283 -2.1578  1.2906
 7323TIP3    H243461   5.052   0.715   0.201  1.6110 -0.6800  0.9682
 7324TIP3   OH243462   3.867   2.805   2.696 -0.1154 -0.1238  0.3856
 7324TIP3    H143463   3.827   2.803   2.609 -0.6312  1.0171  0.5768
 7324TIP3    H243464   3.803   2.762   2.753 -0.6245  0.7633  0.5061
 7325TIP3   OH243465   5.868   0.114   5.662 -0.2735  0.2342  0.5798
 7325TIP3    H143466   5.780   0.092   5.692  0.0123 -1.5942  0.2471
 7325TIP3    H243467   5.926   0.058   5.714  0.4901 -0.3705 -0.8525
 7326TIP3   OH243468   0.609   2.766  15.188  0.3256 -0.2775 -0.1530
 7326TIP3    H143469   0.535   2.734  15.239 -0.8386 -0.2221 -1.7432
 7326TIP3    H243470   0.683   2.712  15.217 -0.6032 -1.2097  0.5515
 7327TIP3   OH243471   0.498   1.217  13.171 -0.5309 -0.1085  0.6002
 7327TIP3    H143472   0.462   1.159  13.238 -0.6394  0.1641  0.7802
 7327TIP3    H243473   0.485   1.305  13.207 -0.1920  0.0162  0.4156
 7328TIP3   OH243474   3.030   6.033  13.690 -0.3202  0.1063 -0.0328
 7328TIP3    H143475   3.086   5.975  13.741 -0.8934 -0.6532 -0.2519
 7328TIP3    H243476   3.089   6.075  13.627  0.2268  0.3404  0.6235
 7329TIP3   OH243477   3.655   4.067  12.927 -0.4307  0.3842  0.4340
 7329TIP3    H143478   3.731   4.110  12.888 -1.2511  0.3989 -1.2392
 7329TIP3    H243479   3.686   3.980  12.952  0.2255  0.5300  0.1320
 7330TIP3   OH243480   4.959   2.306  16.287 -0.6912 -0.3487 -0.6171
 7330TIP3    H143481   4.947   2.257  16.206 -0.4219  1.3422 -1.7430
 7330TIP3    H243482   5.008   2.384  16.260 -0.8168  0.3745  1.1394
 7331TIP3   OH243483   5.699   3.610  15.249 -0.0749 -0.0234  0.2929
 7331TIP3    H143484   5.621   3.555  15.256 -0.3609  0.5930  2.7811
 7331TIP3    H243485   5.756   3.562  15.189 -2.2310 -0.5926 -1.4803
 7332TIP3   OH243486   0.812   6.591   3.246 -0.2048  0.1720 -0.2773
 7332TIP3    H143487   0.900   6.619   3.269 -0.5678  0.3708  0.9404
 7332TIP3    H243488   0.776   6.663   3.194 -0.0568  0.6004  0.2155
 7333TIP3   OH243489   3.755   4.024   0.501 -0.2469  0.3154  0.0475
 7333TIP3    H143490   3.849   4.026   0.482 -0.9673  0.8566 -4.5768
 7333TIP3    H243491   3.714   3.997   0.419 -4.2838  1.8469  1.2898
 7334TIP3   OH243492   4.596   5.455  16.421 -0.3534  0.0276 -0.4012
 7334TIP3    H143493   4.666   5.392  16.436 -1.4187 -1.1472 -0.2777
 7334TIP3    H243494   4.532   5.437  16.489 -1.1936  0.5057 -1.0466
 7335TIP3   OH243495   4.960   5.803  16.145  0.3534 -0.2046 -0.3820
 7335TIP3    H143496   4.985   5.885  16.187 -0.6088 -1.1882  2.2949
 7335TIP3    H243497   5.036   5.746  16.153  0.5685 -0.0354 -1.0861
 7336TIP3   OH243498   0.901   5.150  13.432  0.0796 -0.3365 -0.0005
 7336TIP3    H143499   0.966   5.208  13.392 -0.3104  0.3258  0.3000
 7336TIP3    H243500   0.951   5.073  13.460  0.1373 -1.6739 -3.2896
 7337TIP3   OH243501   2.219   3.372  13.152  0.3135  0.2878 -0.3863
 7337TIP3    H143502   2.265   3.385  13.235 -1.0038  1.0298  0.2687
 7337TIP3    H243503   2.280   3.403  13.085  0.1875  2.8719  0.5828
 7338TIP3   OH243504   5.641   3.163   5.018 -0.8380  0.5378 -0.1940
 7338TIP3    H143505   5.577   3.101   4.981 -0.1616 -0.0025 -0.4754
 7338TIP3    H243506   5.636   3.239   4.959  1.4571 -0.9729 -2.5460
 7339TIP3   OH243507   6.545   0.822  15.657 -0.3812  0.2350 -0.0847
 7339TIP3    H143508   6.493   0.773  15.721 -0.4988  0.1598 -0.2366
 7339TIP3    H243509   6.485   0.836  15.584 -0.2629  0.3681 -0.1561
 7340TIP3   OH243510   2.830   0.297  13.804  0.7429 -0.6605  0.3256
 7340TIP3    H143511   2.755   0.243  13.828 -0.3230  0.1659 -1.0000
 7340TIP3    H243512   2.805   0.386  13.828  0.1780  0.0072 -2.4401
 7341TIP3   OH243513   6.462   0.624  12.950 -0.2700  0.1255 -0.7315
 7341TIP3    H143514   6.449   0.582  12.865 -0.6729 -1.1144 -0.0877
 7341TIP3    H243515   6.396   0.585  13.007 -2.1143  3.1677 -0.5583
 7342TIP3   OH243516   6.383   1.509  14.044  0.1260  0.1589 -0.4916
 7342TIP3    H143517   6.412   1.556  13.965 -2.8346 -1.8446 -2.9853
 7342TIP3    H243518   6.418   1.420  14.033 -2.5151 -0.9025 -1.0673
 7343TIP3   OH243519   6.324   2.784   0.878  0.5209 -0.2973 -0.1744
 7343TIP3    H143520   6.243   2.793   0.928  1.9764  1.2129  2.0624
 7343TIP3    H243521   6.308   2.831   0.796 -0.5933  0.7029  0.5960
 7344TIP3   OH243522   3.388   5.763   3.826  0.1005 -0.1552 -0.0679
 7344TIP3    H143523   3.395   5.672   3.797 -0.8277 -0.2881  0.1047
 7344TIP3    H243524   3.365   5.811   3.746  1.6010  0.0989 -0.3784
 7345TIP3   OH243525   0.979   4.667   4.390  0.0686 -0.1823  0.1106
 7345TIP3    H143526   1.065   4.627   4.400  0.1258 -0.4791 -1.3654
 7345TIP3    H243527   0.922   4.617   4.449  0.4307 -1.5512 -0.6709
 7346TIP3   OH243528   0.084   3.881  11.395 -0.2541  0.1997 -0.4831
 7346TIP3    H143529   0.086   3.895  11.300 -1.9681  0.4669 -0.5085
 7346TIP3    H243530   0.020   3.945  11.427  2.7903  2.5885  1.3368
 7347TIP3   OH243531   2.839   3.603   4.184 -0.5064  0.4037  0.2002
 7347TIP3    H143532   2.864   3.552   4.107  0.8093 -0.2562  1.0151
 7347TIP3    H243533   2.829   3.538   4.253 -2.2777  0.9224  0.4793
 7348TIP3   OH243534   6.228   5.789   1.525  0.6072  0.0662  0.4063
 7348TIP3    H143535   6.147   5.836   1.547  0.8632  1.3093 -1.1306
 7348TIP3    H243536   6.279   5.790   1.606 -0.1522  0.8984  0.8980
 7349TIP3   OH243537   4.491   1.740  16.354 -0.3032  0.2753  0.3515
 7349TIP3    H143538   4.567   1.682  16.348 -1.4390 -1.1870 -0.4464
 7349TIP3    H243539   4.434   1.697  16.417 -1.1876  0.5223 -0.2748
 7350TIP3   OH243540   2.443   5.574  13.916  0.1426 -0.6354 -0.3823
 7350TIP3    H143541   2.386   5.535  13.850 -1.4294 -0.3434  0.7531
 7350TIP3    H243542   2.529   5.579  13.874 -0.4817 -1.7845 -1.8772
 7351TIP3   OH243543   5.750   2.374  15.104 -0.3230  0.0314 -0.5266
 7351TIP3    H143544   5.767   2.309  15.036  1.4007 -0.7913  0.6087
 7351TIP3    H243545   5.722   2.321  15.179 -0.2774  0.7307 -0.0140
 7352TIP3   OH243546   3.322   2.908   3.585  0.0696 -0.2210 -0.0313
 7352TIP3    H143547   3.244   2.864   3.551  0.2657 -0.4170 -0.2317
 7352TIP3    H243548   3.359   2.953   3.510 -0.4254  0.7385  0.2843
 7353TIP3   OH243549   2.931   5.480  15.743  0.7930  0.7759  0.1917
 7353TIP3    H143550   2.900   5.567  15.770 -1.8046 -0.3230  1.0349
 7353TIP3    H243551   2.944   5.488  15.649 -2.4960  1.3078 -0.3126
 7354TIP3   OH243552   2.972   5.782  15.213 -0.6884  0.1235 -0.1577
 7354TIP3    H143553   3.066   5.768  15.205 -0.8509 -1.2903  0.2189
 7354TIP3    H243554   2.963   5.847  15.283  0.0078  0.6470 -0.5389
 7355TIP3   OH243555   1.081   3.508   5.099  0.4130  0.1074  0.0857
 7355TIP3    H143556   1.070   3.464   5.183  1.4268  0.4117  0.3968
 7355TIP3    H243557   1.147   3.576   5.116  1.8872 -0.8894 -1.3121
 7356TIP3   OH243558   1.285   1.238  11.748  0.4358 -0.0284  0.2059
 7356TIP3    H143559   1.309   1.169  11.810  2.8511 -0.1332 -0.6978
 7356TIP3    H243560   1.195   1.218  11.722  0.3948 -1.6641  1.4704
 7357TIP3   OH243561   6.250   2.092   5.850 -0.3821 -0.3651  0.4171
 7357TIP3    H143562   6.280   2.147   5.922 -0.5369  0.3893 -0.0751
 7357TIP3    H243563   6.231   2.154   5.779 -0.0595 -1.1042 -0.3309
 7358TIP3   OH243564   2.505   0.105  14.637 -0.7368  0.3003 -0.6137
 7358TIP3    H143565   2.499   0.157  14.557  0.1443  0.2782 -0.7024
 7358TIP3    H243566   2.469   0.019  14.612 -0.4293  0.2785 -1.0083
 7359TIP3   OH243567   5.862   5.157   0.598  0.4650 -0.0713  0.2619
 7359TIP3    H143568   5.875   5.168   0.692  2.3826  1.1966 -0.0893
 7359TIP3    H243569   5.949   5.174   0.560  0.2071 -2.4763 -1.5987
 7360TIP3   OH243570   6.788   0.444   0.361  0.4203 -0.1961  0.3174
 7360TIP3    H143571   6.735   0.465   0.283  1.4389  3.6131  0.4518
 7360TIP3    H243572   6.724   0.426   0.429 -0.5846  0.2034 -0.4896
 7361TIP3   OH243573   1.098   4.381  15.184  0.1044  0.6629 -0.3622
 7361TIP3    H143574   1.015   4.385  15.231 -0.1918  0.3691 -0.8485
 7361TIP3    H243575   1.080   4.325  15.108  0.7248  0.6587 -0.5138
 7362TIP3   OH243576   5.290   3.791   0.063  0.3283  0.5948 -0.4956
 7362TIP3    H143577   5.304   3.881   0.034  1.3372  0.0472 -1.8110
 7362TIP3    H243578   5.258   3.746  -0.015 -0.7240 -0.0880  0.2967
 7363TIP3   OH243579   4.115   5.892   5.190 -0.7216  0.4620  0.0112
 7363TIP3    H143580   4.103   5.798   5.181  1.7911  0.0664  0.3046
 7363TIP3    H243581   4.137   5.922   5.102  1.5665  0.2062  0.4301
 7364TIP3   OH243582   5.223   1.393  12.564 -0.4582 -0.2812 -0.3781
 7364TIP3    H143583   5.245   1.370  12.654  0.2894 -0.6112 -0.6379
 7364TIP3    H243584   5.159   1.326  12.538 -0.7446 -0.1312 -0.0672
 7365TIP3   OH243585   3.840   3.111   2.690 -0.0115 -0.2251  0.5177
 7365TIP3    H143586   3.836   3.132   2.784  1.3590  1.6325  0.2272
 7365TIP3    H243587   3.893   3.031   2.687  2.3965  1.2048  1.2567
 7366TIP3   OH243588   1.350   4.753   0.191  0.2698 -0.2884 -0.9905
 7366TIP3    H143589   1.432   4.733   0.235  0.4930  2.1332 -0.1551
 7366TIP3    H243590   1.374   4.806   0.116 -0.4834  0.0102 -1.0370
 7367TIP3   OH243591   4.087   0.778  14.687  0.1552  0.1136  0.1438
 7367TIP3    H143592   4.075   0.848  14.751 -1.6651 -0.8684  0.9261
 7367TIP3    H243593   4.120   0.824  14.609 -2.1229  2.0848  0.2150
 7368TIP3   OH243594   5.230   3.648   3.656 -0.2422 -0.4379  0.2893
 7368TIP3    H143595   5.287   3.642   3.580  1.2761 -0.7074  1.4147
 7368TIP3    H243596   5.192   3.736   3.649 -0.9748 -0.8308 -1.3137
 7369TIP3   OH243597   0.950   5.229   1.880  0.2080 -0.1053 -0.3844
 7369TIP3    H143598   0.924   5.315   1.849 -0.2685 -0.4851 -1.0841
 7369TIP3    H243599   0.952   5.237   1.975  0.1610  0.6725 -0.4432
 7370TIP3   OH243600   1.633   1.892  13.655 -0.0499  0.0319 -0.4909
 7370TIP3    H143601   1.724   1.863  13.666  0.1560  0.8376 -0.0088
 7370TIP3    H243602   1.593   1.878  13.741 -0.0962  0.6604 -0.4083
 7371TIP3   OH243603   1.451   3.686  12.324  0.0615 -0.4828  0.2547
 7371TIP3    H143604   1.356   3.693  12.326 -0.0830 -0.8686 -2.2150
 7371TIP3    H243605   1.479   3.717  12.411 -2.0869  3.2521 -0.1344
 7372TIP3   OH243606   2.760   2.345   0.282 -0.0683  0.2764 -0.1173
 7372TIP3    H143607   2.707   2.391   0.347 -0.1632  0.7338 -0.5041
 7372TIP3    H243608   2.711   2.265   0.263  0.2832 -0.1692  0.8393
 7373TIP3   OH243609   4.461   2.748   4.593  0.0485  0.3412 -0.2103
 7373TIP3    H143610   4.488   2.723   4.681 -1.8939 -0.2723  0.2662
 7373TIP3    H243611   4.532   2.717   4.536 -0.4895 -3.0268  0.7375
 7374TIP3   OH243612   4.980   0.712  15.432  0.5591  0.2861  0.1394
 7374TIP3    H143613   5.022   0.773  15.371 -0.0592 -0.0321 -0.6152
 7374TIP3    H243614   4.976   0.761  15.515 -0.3780  1.4723 -0.5757
 7375TIP3   OH243615   6.323   2.663  13.631 -0.6035  0.1040  0.2176
 7375TIP3    H143616   6.370   2.739  13.597  0.0811 -0.3008  0.2522
 7375TIP3    H243617   6.241   2.662  13.581 -0.1669  0.2663 -0.5164
 7376TIP3   OH243618   0.660   2.887   1.681  0.4482 -0.0110 -0.0181
 7376TIP3    H143619   0.651   2.820   1.748  0.2383  0.9715  0.9635
 7376TIP3    H243620   0.654   2.970   1.729 -0.3915  0.7227 -1.3267
 7377TIP3   OH243621   5.633   4.959   3.006 -0.7415 -0.2341 -0.4975
 7377TIP3    H143622   5.633   4.912   2.923  0.4553 -0.0506 -0.6211
 7377TIP3    H243623   5.716   5.006   3.007 -0.5589 -0.5419  0.9779
 7378TIP3   OH243624   0.106   3.059  15.723 -0.3323 -0.3977  0.4573
 7378TIP3    H143625   0.138   3.146  15.698  1.3433 -1.4133 -1.2225
 7378TIP3    H243626   0.129   3.050  15.815  1.8913 -0.0254 -0.0099
 7379TIP3   OH243627   0.523   1.399   1.235  0.0080 -0.2599  0.0680
 7379TIP3    H143628   0.456   1.339   1.268  0.8245 -0.6012  1.1641
 7379TIP3    H243629   0.527   1.469   1.300 -0.3151  0.5513 -0.7542
 7380TIP3   OH243630   5.649   5.320   0.489  0.2663 -0.2780 -0.5869
 7380TIP3    H143631   5.565   5.319   0.535 -0.2218  1.5953 -1.3790
 7380TIP3    H243632   5.705   5.263   0.542 -0.8122  0.3244  1.2901
 7381TIP3   OH243633   1.030   4.973  13.990  0.0749 -0.2848  0.0672
 7381TIP3    H143634   1.112   4.943  14.029  1.5700  1.1617 -1.8409
 7381TIP3    H243635   1.028   5.067  14.007 -0.8031 -0.1735 -0.5953
 7382TIP3   OH243636   0.166   0.608   5.656 -0.1027  0.5195  0.3174
 7382TIP3    H143637   0.198   0.534   5.604  1.3174  0.4598  1.2193
 7382TIP3    H243638   0.138   0.672   5.591  0.5712  0.0070 -0.5100
 7383TIP3   OH243639   5.330   6.621   3.452  0.6034 -0.2710  0.4320
 7383TIP3    H143640   5.282   6.547   3.490  0.4404 -0.0204  0.7260
 7383TIP3    H243641   5.419   6.588   3.440  0.3087 -0.8101 -0.3240
 7384TIP3   OH243642   6.643   2.003   4.049 -0.2574 -0.1540  0.3848
 7384TIP3    H143643   6.649   1.985   3.955  0.9278  0.2277  0.3727
 7384TIP3    H243644   6.730   1.982   4.083 -0.7053 -0.3892  1.4233
 7385TIP3   OH243645   3.743   4.387   0.302  0.0364 -0.1565 -0.3712
 7385TIP3    H143646   3.803   4.356   0.370  0.7330 -2.7629 -2.0167
 7385TIP3    H243647   3.791   4.458   0.258  0.5089  0.0237  0.4165
 7386TIP3   OH243648   5.465   6.803   5.473  0.6945 -0.1112  0.1946
 7386TIP3    H143649   5.370   6.789   5.480  0.7552 -3.0543 -2.4647
 7386TIP3    H243650   5.475   6.866   5.402  0.7102 -0.8004 -0.4275
 7387TIP3   OH243651   1.276   2.469  16.592  0.1876  0.2174  0.0981
 7387TIP3    H143652   1.253   2.488  16.501  0.2700  0.5469  0.1445
 7387TIP3    H243653   1.372   2.463  16.591  0.5034  3.3590  0.7174
 7388TIP3   OH243654   5.241   5.610   1.988 -0.6358 -0.2051 -0.1591
 7388TIP3    H143655   5.210   5.522   1.966 -0.8080  0.0013 -0.7805
 7388TIP3    H243656   5.167   5.651   2.032  0.1067 -1.0205  1.9860
 7389TIP3   OH243657   2.978   3.022  13.885  0.2305  0.1807 -0.5053
 7389TIP3    H143658   3.039   3.015  13.959 -0.4656 -2.5502 -0.0779
 7389TIP3    H243659   3.027   2.985  13.811  0.7100  2.3603 -1.3573
 7390TIP3   OH243660   0.457   0.112   1.004  0.1142 -0.3335  0.5157
 7390TIP3    H143661   0.508   0.128   0.925  0.5684 -1.3114  0.5908
 7390TIP3    H243662   0.411   0.030   0.987  2.0020 -1.8202  2.0946
 7391TIP3   OH243663   3.354   6.503  16.484  0.3021  0.2253  0.1363
 7391TIP3    H143664   3.339   6.416  16.521  0.4270 -0.2905 -0.9845
 7391TIP3    H243665   3.279   6.518  16.427  0.1377  0.9902  0.5408
 7392TIP3   OH243666   6.475   3.941  13.005 -0.1419  0.0092 -0.3555
 7392TIP3    H143667   6.442   3.854  12.982  0.9054 -1.1435  2.1308
 7392TIP3    H243668   6.558   3.948  12.958  0.9451 -1.4233  1.1908
 7393TIP3   OH243669   3.561   1.206  14.737 -0.5971 -0.5290 -0.1828
 7393TIP3    H143670   3.525   1.148  14.670 -0.4346  0.3123 -1.0283
 7393TIP3    H243671   3.597   1.280  14.687  0.9195 -0.6157  0.7446
 7394TIP3   OH243672   1.199   3.863  14.125 -0.2861 -0.6532  0.0664
 7394TIP3    H143673   1.212   3.797  14.056  1.9040 -0.6656  0.4243
 7394TIP3    H243674   1.245   3.828  14.201 -0.5817  0.5038  0.8083
 7395TIP3   OH243675   3.908   1.376   3.373 -0.3126  0.3810  0.0368
 7395TIP3    H143676   3.878   1.464   3.398 -0.0679  0.3304  0.5156
 7395TIP3    H243677   3.906   1.326   3.454 -1.4846 -0.3666 -0.4278
 7396TIP3   OH243678   6.449   0.303  14.248  0.1234  0.1361  0.0007
 7396TIP3    H143679   6.402   0.275  14.169  0.1334  0.0798  0.0153
 7396TIP3    H243680   6.521   0.357  14.214 -0.0993  0.4291 -0.0052
 7397TIP3   OH243681   6.369   0.591  16.784  0.4879  0.3241  0.5592
 7397TIP3    H143682   6.384   0.597  16.878  0.8242 -0.7097  0.5880
 7397TIP3    H243683   6.431   0.653  16.745 -0.3677  1.5345  1.0491
 7398TIP3   OH243684   0.422   5.256  16.847  0.2594  0.3357 -0.4588
 7398TIP3    H143685   0.512   5.271  16.876  0.4071 -0.9446 -0.2158
 7398TIP3    H243686   0.411   5.316  16.773  2.0619 -1.0613 -1.9633
 7399TIP3   OH243687   3.870   3.890   3.402  0.2642 -0.2120 -0.0643
 7399TIP3    H143688   3.961   3.910   3.379  0.2938  0.4142  0.5567
 7399TIP3    H243689   3.819   3.925   3.329  0.5842 -1.6492 -1.0092
 7400TIP3   OH243690   2.837   3.993  12.597 -0.2389  0.0193  0.2131
 7400TIP3    H143691   2.888   4.021  12.674 -0.8338  2.3000 -0.1348
 7400TIP3    H243692   2.902   3.963  12.534  0.2764 -1.6976  1.4989
 7401TIP3   OH243693   4.273   1.554  12.132 -0.2604 -0.3725 -0.2405
 7401TIP3    H143694   4.248   1.544  12.224  0.9015  0.4849  0.1919
 7401TIP3    H243695   4.315   1.471  12.110  0.5582 -0.1385  0.3821
 7402TIP3   OH243696   0.700   6.400  16.433 -0.4766  0.2413  0.4812
 7402TIP3    H143697   0.745   6.471  16.478  0.1235 -0.6836  1.3787
 7402TIP3    H243698   0.677   6.437  16.347 -2.2807  2.2654  1.7392
 7403TIP3   OH243699   0.888   5.961   2.675  0.0863 -0.2790 -0.1401
 7403TIP3    H143700   0.801   5.952   2.714  0.0543 -0.2168 -0.1978
 7403TIP3    H243701   0.948   5.951   2.749  0.0366 -0.5160 -0.1315
 7404TIP3   OH243702   1.189   3.852   5.937 -0.1823 -0.0814 -0.2439
 7404TIP3    H143703   1.244   3.801   5.996 -0.8362 -0.1650  0.3040
 7404TIP3    H243704   1.140   3.910   5.994 -0.9328 -0.2656 -0.6857
 7405TIP3   OH243705   5.996   0.999  17.102 -0.4736  0.1554  0.2454
 7405TIP3    H143706   6.021   0.934  17.036  2.4028  0.6549  0.7323
 7405TIP3    H243707   6.045   0.974  17.180 -1.4137  1.3955  1.2685
 7406TIP3   OH243708   1.264   2.370   4.053 -1.0015 -0.0663 -0.3381
 7406TIP3    H143709   1.345   2.333   4.089  0.5122  3.0205 -0.2278
 7406TIP3    H243710   1.203   2.296   4.049  1.6542 -2.4314 -0.0053
 7407TIP3   OH243711   6.493   3.940   5.231 -0.3306 -0.1633 -0.1878
 7407TIP3    H143712   6.515   3.952   5.324  1.0490 -1.0752 -0.3681
 7407TIP3    H243713   6.399   3.921   5.231  0.0833 -2.6158  1.2854
 7408TIP3   OH243714   1.470   6.766  10.941 -0.1917  0.0494 -0.4536
 7408TIP3    H143715   1.492   6.822  11.016 -0.1466 -0.8024  0.1941
 7408TIP3    H243716   1.550   6.718  10.922  0.2215  1.2659 -1.9921
 7409TIP3   OH243717   0.256   4.817  11.962  0.0395 -0.3695  0.2922
 7409TIP3    H143718   0.327   4.821  11.897  0.6483 -2.7715  0.7277
 7409TIP3    H243719   0.189   4.877  11.928  0.9844 -0.3864 -1.7336
 7410TIP3   OH243720   6.829   5.354   2.815  0.2987  0.9872 -0.2690
 7410TIP3    H143721   6.871   5.412   2.752  1.3856  0.5011 -0.0101
 7410TIP3    H243722   6.878   5.368   2.896 -0.6886  1.1530  0.3171
 7411TIP3   OH243723   2.479   3.212  15.234 -0.0653  0.5742  0.1458
 7411TIP3    H143724   2.507   3.264  15.159  0.2167  1.1406  0.6330
 7411TIP3    H243725   2.515   3.258  15.310 -0.1240 -0.1317  0.6128
 7412TIP3   OH243726   5.860   1.366  16.798 -0.0796  0.1510 -0.0586
 7412TIP3    H143727   5.782   1.354  16.852 -0.0819 -1.1063 -0.3063
 7412TIP3    H243728   5.896   1.450  16.826 -0.4628 -0.1434  1.4043
 7413TIP3   OH243729   2.643   1.418  11.677  0.4866 -0.0921 -0.3127
 7413TIP3    H143730   2.590   1.475  11.732  0.6194  0.2633 -0.5546
 7413TIP3    H243731   2.732   1.452  11.684  0.7483 -0.9001  0.3695
 7414TIP3   OH243732   4.643   5.967   0.061  0.1357  0.2618  0.1743
 7414TIP3    H143733   4.571   5.965   0.124 -0.5527  3.4465 -0.3397
 7414TIP3    H243734   4.720   5.988   0.114  0.0917  0.1248  0.2949
 7415TIP3   OH243735   2.299   2.072   3.377  0.0959 -0.3201 -0.0006
 7415TIP3    H143736   2.219   2.024   3.395  0.4508 -0.4801  1.1961
 7415TIP3    H243737   2.282   2.115   3.293 -0.0698 -2.8550 -1.3834
 7416TIP3   OH243738   6.750   0.356  13.746 -0.0775  0.0721  0.2288
 7416TIP3    H143739   6.795   0.308  13.676 -0.0525  1.2390 -0.5847
 7416TIP3    H243740   6.697   0.421  13.700  0.1896  1.0901  1.3087
 7417TIP3   OH243741   3.147   4.622   1.740  0.4341 -0.1443  0.0551
 7417TIP3    H143742   3.189   4.558   1.683  1.1236 -0.7422  1.2212
 7417TIP3    H243743   3.138   4.579   1.824 -0.1773  0.8808  0.5425
 7418TIP3   OH243744   6.507   4.996  14.929 -0.0107 -0.0076  0.5760
 7418TIP3    H143745   6.530   5.049  15.005 -0.7294  0.9558  0.1422
 7418TIP3    H243746   6.543   5.044  14.854  0.2635 -0.6939  0.2595
 7419TIP3   OH243747   4.466   0.257   0.840 -0.1387  0.0399  0.1635
 7419TIP3    H143748   4.382   0.213   0.835 -1.1210  1.8615 -0.4380
 7419TIP3    H243749   4.491   0.273   0.749  0.0402  0.9487  0.3587
 7420TIP3   OH243750   2.699   4.985   2.053  0.1583  0.1846  0.2339
 7420TIP3    H143751   2.629   4.925   2.028 -0.5653  0.3470  1.7249
 7420TIP3    H243752   2.653   5.060   2.091  0.9379  2.4256 -2.8148
 7421TIP3   OH243753   3.783   4.494  11.909  0.4301  0.5675  0.2097
 7421TIP3    H143754   3.713   4.433  11.888  0.1404 -0.2702  3.1796
 7421TIP3    H243755   3.862   4.454  11.872 -0.1145 -0.4138  0.0846
 7422TIP3   OH243756   5.658   5.601  14.093 -0.4192  0.4095  0.9390
 7422TIP3    H143757   5.746   5.615  14.058  0.4987 -2.4554  1.8333
 7422TIP3    H243758   5.654   5.658  14.170  0.1314  1.5362  0.1736
 7423TIP3   OH243759   5.775   0.991  13.440  0.4758  0.6181 -0.0192
 7423TIP3    H143760   5.773   0.988  13.536 -0.9068  1.6137  0.0154
 7423TIP3    H243761   5.690   0.956  13.413  0.9649  0.0696 -0.9140
 7424TIP3   OH243762   1.577   3.488   4.340  0.6536 -0.0653 -0.0823
 7424TIP3    H143763   1.589   3.506   4.247  0.4119 -0.7557 -0.2530
 7424TIP3    H243764   1.515   3.555   4.369  0.3555 -0.1480 -0.5253
 7425TIP3   OH243765   2.019   5.682  12.472  0.0688 -0.4829 -0.3289
 7425TIP3    H143766   2.039   5.772  12.444  0.5280 -1.0690 -2.0462
 7425TIP3    H243767   1.989   5.691  12.562  2.1625  1.1802  0.3075
 7426TIP3   OH243768   5.550   5.365  14.272 -0.5437  0.0187 -0.0430
 7426TIP3    H143769   5.621   5.400  14.219 -1.1259  1.0448 -0.1640
 7426TIP3    H243770   5.589   5.349  14.358 -0.2924  1.0960  0.0472
 7427TIP3   OH243771   6.035   6.769   3.318  0.1589 -0.2931  0.0856
 7427TIP3    H143772   6.102   6.711   3.284  1.2446  2.0400 -2.1489
 7427TIP3    H243773   5.960   6.755   3.261  0.3721  0.3088 -0.3620
 7428TIP3   OH243774   5.145   4.796   3.394 -0.6012 -0.0878  0.1462
 7428TIP3    H143775   5.231   4.811   3.435 -1.2980  0.0454  1.5981
 7428TIP3    H243776   5.089   4.766   3.465 -1.6228 -0.7477 -0.9068
 7429TIP3   OH243777   5.462   5.237   1.625 -0.1011  0.1455  0.9833
 7429TIP3    H143778   5.515   5.158   1.611 -2.7621 -1.9954  2.0974
 7429TIP3    H243779   5.482   5.294   1.551  3.3725 -0.6556  1.1438
 7430TIP3   OH243780   5.660   0.248  12.509 -0.2738 -0.4289 -0.1305
 7430TIP3    H143781   5.688   0.244  12.601 -1.8012 -0.4536  0.3724
 7430TIP3    H243782   5.705   0.174  12.468  1.8698  0.6554  0.1333
 7431TIP3   OH243783   0.657   6.166   6.376  0.0198  0.0045  0.2604
 7431TIP3    H143784   0.749   6.153   6.356  0.3042 -0.7928  1.9458
 7431TIP3    H243785   0.630   6.085   6.420 -1.1258  0.7616  1.0014
 7432TIP3   OH243786   2.518   4.756   3.563 -0.3597  0.4116 -0.0117
 7432TIP3    H143787   2.425   4.756   3.586 -0.2193  0.7470  0.5745
 7432TIP3    H243788   2.540   4.848   3.553  0.1382  0.3820  0.8026
 7433TIP3   OH243789   4.422   1.082   4.926  0.3808  0.3327 -0.1333
 7433TIP3    H143790   4.413   0.992   4.896 -1.0907 -0.0635  1.3752
 7433TIP3    H243791   4.445   1.075   5.018  0.3234  1.5062 -0.0119
 7434TIP3   OH243792   5.009   3.971  15.620  0.4956  0.0836 -1.2067
 7434TIP3    H143793   5.001   3.885  15.662  0.7960  0.0044 -1.3082
 7434TIP3    H243794   5.099   3.973  15.586  0.8777  0.8889 -0.2195
 7435TIP3   OH243795   5.788   6.142   4.337  0.0775 -0.6616  0.3657
 7435TIP3    H143796   5.780   6.184   4.251  1.4753 -0.2705  0.3978
 7435TIP3    H243797   5.850   6.070   4.322 -1.0031 -1.7065  0.6895
 7436TIP3   OH243798   0.964   1.852   2.804 -0.1092 -0.0702  0.5999
 7436TIP3    H143799   0.931   1.862   2.715 -0.2509 -0.2455  0.6322
 7436TIP3    H243800   1.032   1.919   2.812  0.0212 -0.1665  0.3049
 7437TIP3   OH243801   2.012   1.952  16.209 -0.0334 -0.3781  0.2610
 7437TIP3    H143802   2.059   2.026  16.245  1.9090 -0.3437 -2.1222
 7437TIP3    H243803   1.930   1.989  16.177  0.3785  0.4905  0.1910
 7438TIP3   OH243804   5.398   5.689   4.680  0.0843 -0.4122 -0.2406
 7438TIP3    H143805   5.333   5.754   4.650 -0.5609 -0.7367  0.4220
 7438TIP3    H243806   5.346   5.619   4.718  0.7615 -1.5361 -1.3339
 7439TIP3   OH243807   0.315   5.475  14.681  0.1845 -0.0657  0.0654
 7439TIP3    H143808   0.310   5.543  14.613 -2.7409 -2.1041 -2.0226
 7439TIP3    H243809   0.270   5.513  14.756 -1.1382  0.4742 -0.9592
 7440TIP3   OH243810   4.671   2.559  13.118 -0.8733 -0.1908  0.1603
 7440TIP3    H143811   4.599   2.502  13.093 -0.1735 -0.4539 -1.3676
 7440TIP3    H243812   4.676   2.625  13.048  0.0961  0.0565  0.4400
 7441TIP3   OH243813   5.169   0.144   1.668 -0.7889 -0.1422  0.1286
 7441TIP3    H143814   5.244   0.120   1.723 -2.1029 -1.5342  1.3966
 7441TIP3    H243815   5.149   0.234   1.693  0.0619  0.0294  0.2358
 7442TIP3   OH243816   6.446   5.641   2.745  0.3825 -0.3709  0.2858
 7442TIP3    H143817   6.432   5.681   2.659 -1.6028 -2.0311 -0.2368
 7442TIP3    H243818   6.420   5.550   2.734 -0.1840 -0.5835  2.7323
 7443TIP3   OH243819   1.841   1.627   2.186  0.2658 -0.3528 -0.1383
 7443TIP3    H143820   1.888   1.588   2.260 -0.3450 -1.5604 -0.3523
 7443TIP3    H243821   1.772   1.564   2.166 -1.2695  1.1978 -0.0273
 7444TIP3   OH243822   2.752   4.322   1.511 -0.6712  0.2210  0.1538
 7444TIP3    H143823   2.777   4.405   1.471  0.5989 -0.3814 -0.3488
 7444TIP3    H243824   2.774   4.333   1.604  0.1183  0.2174 -0.0279
 7445TIP3   OH243825   2.145   1.151   4.806 -0.8083  0.0125  0.4415
 7445TIP3    H143826   2.203   1.226   4.799 -1.4048  0.8851  3.3919
 7445TIP3    H243827   2.202   1.075   4.805 -0.0340  0.5963 -0.8624
 7446TIP3   OH243828   6.568   4.028   3.271  0.3332  0.1567  0.1281
 7446TIP3    H143829   6.655   4.067   3.277 -0.2237  2.0433 -2.5307
 7446TIP3    H243830   6.513   4.083   3.327  0.7748 -1.1668  1.9881
 7447TIP3   OH243831   5.003   1.617  13.415 -0.8019  0.1760  0.9808
 7447TIP3    H143832   4.950   1.593  13.492 -2.4782  0.5591  0.0136
 7447TIP3    H243833   4.939   1.652  13.353  1.0171  3.9864  1.0012
 7448TIP3   OH243834   0.076   6.674   0.626 -0.1002  0.6869  0.4713
 7448TIP3    H143835   0.043   6.662   0.715  1.3213 -0.8440  0.8503
 7448TIP3    H243836   0.040   6.600   0.577 -1.8932  2.1832 -0.6089
 7449TIP3   OH243837   0.137   1.442  12.427 -0.2291 -0.2152 -0.1916
 7449TIP3    H143838   0.152   1.536  12.414 -0.2317 -0.0929  0.6270
 7449TIP3    H243839   0.068   1.438  12.493 -0.9883 -0.7943 -1.0037
 7450TIP3   OH243840   5.967   6.159  12.779  0.6748  0.1015 -0.2969
 7450TIP3    H143841   5.970   6.100  12.704  1.7414 -0.2357 -0.0175
 7450TIP3    H243842   5.875   6.162  12.804  0.5544 -1.2413 -0.4927
 7451TIP3   OH243843   4.613   2.592   2.545 -0.1701  0.5856  0.6036
 7451TIP3    H143844   4.611   2.678   2.504 -0.9423  0.4967  0.4477
 7451TIP3    H243845   4.697   2.554   2.517 -1.1641  0.0378 -1.9416
 7452TIP3   OH243846   2.747   6.058  14.338 -0.0805 -0.5360  0.0571
 7452TIP3    H143847   2.825   6.101  14.303  0.3175  0.3659  1.9189
 7452TIP3    H243848   2.776   6.019  14.421 -1.8688  0.9807  1.4916
 7453TIP3   OH243849   1.229   6.434  11.276  0.1434 -0.4059  0.4275
 7453TIP3    H143850   1.313   6.401  11.244  0.1533 -0.3912  0.4385
 7453TIP3    H243851   1.249   6.523  11.306 -0.2608  0.3147 -1.3095
 7454TIP3   OH243852   1.259   1.077  14.081 -0.5546  0.1583  0.0749
 7454TIP3    H143853   1.272   1.068  13.987 -1.4371 -0.4086  0.0009
 7454TIP3    H243854   1.308   1.004  14.119  0.4496  0.8370  0.1199
 7455TIP3   OH243855   5.905   0.091  10.902 -0.7730 -0.3013  0.4489
 7455TIP3    H143856   5.924   0.001  10.875 -0.2353 -0.0518 -0.0367
 7455TIP3    H243857   5.832   0.117  10.847  0.8171  0.4729 -1.4305
 7456TIP3   OH243858   4.900   1.437   5.255  0.0672 -0.5188  0.6983
 7456TIP3    H143859   4.944   1.352   5.256  0.7022 -0.3311 -2.0466
 7456TIP3    H243860   4.823   1.423   5.199  0.0630  0.6534  0.3839
 7457TIP3   OH243861   3.745   6.334   6.159  0.1019 -0.2753  0.6584
 7457TIP3    H143862   3.756   6.264   6.095 -0.5749 -0.5237  0.8059
 7457TIP3    H243863   3.740   6.288   6.243 -0.5134 -0.0624  0.7399
 7458TIP3   OH243864   6.628   4.096   4.664  0.1509 -0.1088  0.0571
 7458TIP3    H143865   6.571   4.020   4.679 -3.5132  2.1215 -1.3660
 7458TIP3    H243866   6.607   4.157   4.734  0.7866  0.8046 -0.5196
 7459TIP3   OH243867   5.944   1.961  13.375 -0.1614 -0.4352 -0.1028
 7459TIP3    H143868   5.906   1.990  13.293 -1.2153 -0.4888  0.3575
 7459TIP3    H243869   5.878   1.982  13.441  0.2554 -1.2863  0.6027
 7460TIP3   OH243870   5.831   1.346  12.508 -0.3120 -0.5925 -0.5112
 7460TIP3    H143871   5.756   1.316  12.457 -0.9336 -0.2589  0.1807
 7460TIP3    H243872   5.792   1.392  12.583  0.5749  1.2737 -1.1265
 7461TIP3   OH243873   4.302   4.877   3.327 -0.0138 -0.9870 -0.3881
 7461TIP3    H143874   4.225   4.910   3.280  1.0337  0.5808 -1.1008
 7461TIP3    H243875   4.345   4.819   3.264  0.4820 -0.2204 -0.7691
 7462TIP3   OH243876   3.384   2.915   0.534  0.8370  0.6866  0.3063
 7462TIP3    H143877   3.294   2.892   0.509  1.5413 -0.1626 -1.6377
 7462TIP3    H243878   3.419   2.960   0.457  2.7174 -0.8577  0.1766
 7463TIP3   OH243879   2.389   1.043   3.405 -0.0482  0.4663 -0.0138
 7463TIP3    H143880   2.341   1.047   3.487 -0.2696  1.2226 -0.1732
 7463TIP3    H243881   2.325   1.009   3.342  0.5628 -1.6526  0.4225
 7464TIP3   OH243882   6.117   2.306  12.608 -0.8192 -0.3540  0.4744
 7464TIP3    H143883   6.135   2.213  12.625  2.5740  0.0241 -0.3356
 7464TIP3    H243884   6.099   2.343  12.694  3.2220 -0.8541  1.7212
 7465TIP3   OH243885   1.857   2.357  15.056  0.0570  0.2324  0.3808
 7465TIP3    H143886   1.874   2.373  15.149  0.6449  1.4511  0.0900
 7465TIP3    H243887   1.765   2.329  15.053 -0.4775  1.7369  1.1988
 7466TIP3   OH243888   1.600   2.195   5.865  0.4607  0.2749  0.1610
 7466TIP3    H143889   1.634   2.245   5.791  0.2407  2.5562  1.4837
 7466TIP3    H243890   1.619   2.250   5.941 -1.2894 -0.9144  1.5445
 7467TIP3   OH243891   0.765   5.857  13.549  0.1463 -0.4418 -0.5405
 7467TIP3    H143892   0.779   5.855  13.454 -0.0607  1.5275 -0.6515
 7467TIP3    H243893   0.696   5.793  13.564 -0.1921 -0.3985 -1.7907
 7468TIP3   OH243894   2.351   3.126   4.666 -0.3272  0.2411  0.1488
 7468TIP3    H143895   2.409   3.197   4.640  0.0579 -0.0167  0.3039
 7468TIP3    H243896   2.263   3.166   4.665 -0.2632  0.4022 -0.9508
 7469TIP3   OH243897   6.704   5.067  17.094 -0.3381 -0.1635  0.2153
 7469TIP3    H143898   6.633   5.043  17.035 -1.5949 -0.8664  1.9178
 7469TIP3    H243899   6.697   5.162  17.103  0.3008  0.0518 -1.2330
 7470TIP3   OH243900   3.854   4.447   6.477  0.1276  0.4308 -0.4915
 7470TIP3    H143901   3.788   4.500   6.433 -1.3387 -1.4857 -0.7580
 7470TIP3    H243902   3.929   4.449   6.418 -0.1868  1.5030 -0.8854
 7471TIP3   OH243903   6.084   3.469   3.207 -0.4412 -0.6347  0.1516
 7471TIP3    H143904   6.050   3.488   3.119  1.1583  0.3615 -0.2837
 7471TIP3    H243905   6.104   3.376   3.205  1.7663 -0.2099 -1.3904
 7472TIP3   OH243906   1.496   1.731  12.379  0.2422  0.3415  0.7214
 7472TIP3    H143907   1.454   1.661  12.430 -1.6794  0.9129  0.0232
 7472TIP3    H243908   1.502   1.805  12.440 -0.9535  0.6450  0.4976
 7473TIP3   OH243909   5.198   0.548   0.857 -0.3344  0.1251  0.7208
 7473TIP3    H143910   5.192   0.503   0.773  0.2807 -0.5862  1.0486
 7473TIP3    H243911   5.154   0.632   0.842  0.5117  0.3731 -0.5477
 7474TIP3   OH243912   1.083   3.491   0.660 -0.2276 -0.0089  0.6993
 7474TIP3    H143913   1.040   3.420   0.611 -0.9211  1.0240 -0.2364
 7474TIP3    H243914   1.014   3.556   0.674 -0.1322 -0.3754  3.3631
 7475TIP3   OH243915   4.774   5.768  12.623 -0.6511  0.4423 -0.2721
 7475TIP3    H143916   4.756   5.751  12.716 -1.0742  0.6459 -0.3142
 7475TIP3    H243917   4.824   5.691  12.595 -0.4180  0.4328  0.1522
 7476TIP3   OH243918   1.193   2.020  14.291 -0.6962 -0.1494 -0.0278
 7476TIP3    H143919   1.161   2.110  14.301 -1.4640 -0.4316  0.1346
 7476TIP3    H243920   1.277   2.019  14.337 -0.0120  0.8338 -1.1915
 7477TIP3   OH243921   1.735   2.110   1.842  0.0304 -0.1587  0.2588
 7477TIP3    H143922   1.769   2.070   1.922  0.4006 -1.3304 -0.4588
 7477TIP3    H243923   1.676   2.045   1.806  0.6190 -0.0624 -0.9313
 7478TIP3   OH243924   2.036   1.530  11.745  0.2073  0.1565  0.1473
 7478TIP3    H143925   2.071   1.441  11.755 -0.6618 -0.1023  1.1977
 7478TIP3    H243926   2.019   1.539  11.652  0.4515 -0.7260  0.0048
 7479TIP3   OH243927   3.033   5.493  13.418 -0.3759 -0.5102  0.0713
 7479TIP3    H143928   2.998   5.530  13.337  0.9481 -1.6199 -1.0814
 7479TIP3    H243929   2.958   5.450  13.460 -1.1717  0.4563 -0.3291
 7480TIP3   OH243930   4.487   2.676   4.163  0.2874 -0.0371 -0.0141
 7480TIP3    H143931   4.469   2.582   4.154  0.7560 -0.7656  4.2679
 7480TIP3    H243932   4.581   2.684   4.147  0.0535 -0.0093 -1.5421
 7481TIP3   OH243933   3.631   4.376   3.650  0.1322  0.7284 -0.7614
 7481TIP3    H143934   3.627   4.350   3.742  2.2366  0.6479 -0.6533
 7481TIP3    H243935   3.639   4.471   3.652 -0.2359  0.7633 -0.8835
 7482TIP3   OH243936   6.735   4.148   5.688  0.0952 -0.2413 -0.5629
 7482TIP3    H143937   6.767   4.107   5.768  1.5631  2.3404  0.2866
 7482TIP3    H243938   6.640   4.156   5.701  0.1156 -1.1843  0.2394
 7483TIP3   OH243939   0.480   1.014   4.949  0.2291  0.5500 -0.0373
 7483TIP3    H143940   0.575   1.022   4.940  0.5744 -1.5316  1.1310
 7483TIP3    H243941   0.466   0.990   5.040 -1.3997  0.4531 -0.2832
 7484TIP3   OH243942   1.785   0.876   5.934 -0.8153 -0.1931 -0.0746
 7484TIP3    H143943   1.824   0.810   5.991  0.1102 -0.2234 -0.7181
 7484TIP3    H243944   1.698   0.842   5.914 -1.3745  0.0758  1.7204
 7485TIP3   OH243945   2.097   5.906  13.719 -0.2487 -0.3639  0.5468
 7485TIP3    H143946   2.091   5.950  13.634 -1.0116  0.1564  0.8597
 7485TIP3    H243947   2.104   5.977  13.782  0.5926 -0.7557  0.9123
 7486TIP3   OH243948   4.256   0.756   1.914 -0.2482 -0.4193 -0.1844
 7486TIP3    H143949   4.338   0.765   1.865  2.6423 -0.6436  4.0723
 7486TIP3    H243950   4.247   0.661   1.928  0.2452 -0.2615  1.4378
 7487TIP3   OH243951   4.488   2.217  12.552 -0.0044  0.3316  0.5074
 7487TIP3    H143952   4.505   2.177  12.467  0.6560  1.4558  0.1007
 7487TIP3    H243953   4.473   2.309  12.534  0.4991  0.6584  1.6425
 7488TIP3   OH243954   0.513   1.044  12.440 -0.1588 -0.1178  0.1063
 7488TIP3    H143955   0.463   1.124  12.454  1.0452  1.7840 -4.4486
 7488TIP3    H243956   0.602   1.066  12.468  0.1625  0.2045 -1.1057
 7489TIP3   OH243957   2.261   4.028   4.885  0.1852  0.1097  0.5185
 7489TIP3    H143958   2.187   4.056   4.939  0.4253  4.4602 -1.0067
 7489TIP3    H243959   2.335   4.026   4.946 -0.2429  1.0316  1.0965
 7490TIP3   OH243960   2.389   4.650  14.642  0.3033  0.4175  0.2594
 7490TIP3    H143961   2.361   4.601  14.564  0.7373  0.5507  0.0142
 7490TIP3    H243962   2.341   4.732  14.637  0.6708  0.6181 -0.1249
 7491TIP3   OH243963   3.256   2.559  14.536  0.1218 -0.0680  0.0797
 7491TIP3    H143964   3.181   2.545  14.479  0.5751 -0.2492 -0.4876
 7491TIP3    H243965   3.303   2.475  14.534  0.6616  0.2297 -0.0605
 7492TIP3   OH243966   3.870   3.793  17.163  0.5447  0.6029  0.6247
 7492TIP3    H143967   3.859   3.881  17.198 -0.8462  1.0236 -0.7519
 7492TIP3    H243968   3.875   3.805  17.069  3.2887 -0.5800  0.5102
 7493TIP3   OH243969   3.381   3.977   6.484 -0.4424  0.2180 -0.1130
 7493TIP3    H143970   3.347   4.012   6.566 -0.0335  0.8917 -0.2261
 7493TIP3    H243971   3.425   4.051   6.443  2.2230 -0.8838  0.5584
 7494TIP3   OH243972   1.094   5.453   4.885 -0.4237 -0.0193 -0.6259
 7494TIP3    H143973   1.071   5.363   4.905 -0.8028  0.2205  0.0789
 7494TIP3    H243974   1.185   5.449   4.856  0.0156 -0.4701  0.7330
 7495TIP3   OH243975   5.330   1.687  16.384 -0.2955 -0.7384 -0.4567
 7495TIP3    H143976   5.371   1.715  16.465  0.2690 -1.6557 -0.4224
 7495TIP3    H243977   5.358   1.752  16.319  0.8925 -1.1388 -0.3505
 7496TIP3   OH243978   4.349   1.106  17.032  0.7170  0.1036  0.2293
 7496TIP3    H143979   4.333   1.199  17.020  0.9545  0.2267  0.8368
 7496TIP3    H243980   4.269   1.064  17.002 -0.2592  0.6344  1.9539
 7497TIP3   OH243981   3.187   6.180  16.226  0.0330 -0.3215  0.0815
 7497TIP3    H143982   3.157   6.210  16.140  0.6247 -0.4475 -0.1718
 7497TIP3    H243983   3.226   6.094  16.210  1.7194  0.4001  0.1826
 7498TIP3   OH243984   0.716   1.009  13.883 -0.1330 -0.0058 -0.0756
 7498TIP3    H143985   0.791   1.047  13.930  0.7047 -0.8284 -0.7093
 7498TIP3    H243986   0.756   0.951  13.818 -1.3299 -0.3427 -0.5273
 7499TIP3   OH243987   2.643   1.914  14.182 -0.6212 -0.1129 -0.3458
 7499TIP3    H143988   2.659   2.008  14.190 -1.5173  0.1054 -0.9567
 7499TIP3    H243989   2.628   1.901  14.088  0.0081 -0.9539 -0.3346
 7500TIP3   OH243990   1.254   1.606  14.467 -0.4167 -0.4137 -0.2495
 7500TIP3    H143991   1.212   1.550  14.534  0.8755  0.6499  1.5401
 7500TIP3    H243992   1.277   1.686  14.514 -0.1281  0.7060 -2.1993
 7501TIP3   OH243993   6.573   6.511  11.681 -0.2928  0.3934  0.6628
 7501TIP3    H143994   6.614   6.535  11.763  0.1087 -1.6208  1.0952
 7501TIP3    H243995   6.620   6.562  11.614 -0.9661  2.4459  1.6601
 7502TIP3   OH243996   1.583   5.487  14.212  0.1429  0.0352 -0.0296
 7502TIP3    H143997   1.572   5.560  14.273  0.6208 -0.3626  0.5486
 7502TIP3    H243998   1.671   5.500  14.176  1.3688 -1.7111  2.1099
 7503TIP3   OH243999   5.554   1.057  14.448 -0.3588 -0.0029  0.0894
 7503TIP3    H144000   5.467   1.041  14.411 -0.2443  0.1894 -0.2641
 7503TIP3    H244001   5.542   1.131  14.507 -0.0939  1.1421 -1.2566
 7504TIP3   OH244002   2.904   4.332  10.938 -0.5098  0.0101 -0.0035
 7504TIP3    H144003   2.866   4.297  10.858 -2.4047  1.1760  0.3415
 7504TIP3    H244004   2.981   4.381  10.909 -1.4835  0.8791 -1.1941
 7505TIP3   OH244005   2.703   6.616  16.749  0.5798 -0.5425 -0.3260
 7505TIP3    H144006   2.739   6.705  16.742 -0.3660 -0.0668  0.6341
 7505TIP3    H244007   2.677   6.608  16.841 -1.7334 -0.8838 -0.9665
 7506TIP3   OH244008   4.428   4.611  13.016 -0.2116  0.6822 -0.3805
 7506TIP3    H144009   4.346   4.562  13.022  0.5527 -0.5841  0.0968
 7506TIP3    H244010   4.472   4.576  12.939  0.2266  0.8024 -0.1920
 7507TIP3   OH244011   4.894   6.455  16.137  0.1686 -0.3879  0.2528
 7507TIP3    H144012   4.906   6.361  16.131  1.8546 -0.1999  0.3315
 7507TIP3    H244013   4.958   6.492  16.076 -0.4913  0.7126  0.1896
 7508TIP3   OH244014   5.337   6.341  12.144 -0.5291 -0.4462  0.0185
 7508TIP3    H144015   5.322   6.252  12.176 -0.2530 -1.1678 -1.8064
 7508TIP3    H244016   5.390   6.331  12.065  0.0268  1.3859  0.1060
 7509TIP3   OH244017   3.844   2.691   0.211  0.6174  0.4708  0.3627
 7509TIP3    H144018   3.755   2.666   0.236 -0.3412  0.6475 -2.5391
 7509TIP3    H244019   3.872   2.751   0.280 -1.4917  0.4347  1.3383
 7510TIP3   OH244020   5.137   5.086   3.223  0.1981  0.4149 -0.0930
 7510TIP3    H144021   5.218   5.118   3.183 -0.5244  1.5840 -0.6816
 7510TIP3    H244022   5.122   5.001   3.181  1.1702  0.1260  0.1148
 7511TIP3   OH244023   6.003   0.615  14.219  0.8099 -0.2826  0.0874
 7511TIP3    H144024   5.943   0.598  14.146  0.1341  1.0503  0.3102
 7511TIP3    H244025   6.089   0.621  14.179  0.2873  1.8774 -0.8566
 7512TIP3   OH244026   5.500   4.542  14.751  0.0763 -0.4003  0.2770
 7512TIP3    H144027   5.413   4.520  14.783 -0.2431 -0.0047 -0.3240
 7512TIP3    H244028   5.559   4.494  14.810 -0.4725  0.6894  1.7680
 7513TIP3   OH244029   2.559   4.767   0.708 -0.5485  0.2603 -0.2807
 7513TIP3    H144030   2.543   4.856   0.676  0.6464  0.3716 -0.6141
 7513TIP3    H244031   2.630   4.777   0.772 -0.4701 -0.4365 -0.2555
 7514TIP3   OH244032   5.524   4.370   4.067  0.2688  0.6520 -0.1655
 7514TIP3    H144033   5.491   4.460   4.074 -1.3611  0.1826 -1.5374
 7514TIP3    H244034   5.597   4.368   4.130 -0.3341  2.6065  0.6931
 7515TIP3   OH244035   6.111   2.472  15.872  0.2129 -0.2053 -0.1942
 7515TIP3    H144036   6.161   2.465  15.953  1.7709 -0.2373 -1.1219
 7515TIP3    H244037   6.099   2.381  15.843 -0.5027 -0.2047  0.0813
 7516TIP3   OH244038   6.334   1.758  17.027 -0.4609  0.3933 -0.4339
 7516TIP3    H144039   6.315   1.722  17.114  1.9793 -1.5533 -0.5919
 7516TIP3    H244040   6.296   1.846  17.029 -1.0723  0.1707  2.3488
 7517TIP3   OH244041   3.393   4.465   3.421  0.0485  0.5790  0.2760
 7517TIP3    H144042   3.366   4.436   3.334 -0.6414  0.1671  0.6114
 7517TIP3    H244043   3.488   4.458   3.421  0.0016 -0.1200 -0.2046
 7518TIP3   OH244044   1.701   4.050   1.260 -0.6336 -0.1333 -0.7089
 7518TIP3    H144045   1.750   3.968   1.254 -0.1693  0.1309 -0.5488
 7518TIP3    H244046   1.609   4.024   1.247 -0.3238 -0.4421 -2.5194
 7519TIP3   OH244047   2.673   3.351  16.404 -0.4333 -0.5142  0.8888
 7519TIP3    H144048   2.631   3.339  16.489 -1.6733  1.6960  0.6664
 7519TIP3    H244049   2.765   3.368  16.424 -0.8591  0.7565  1.8610
 7520TIP3   OH244050   5.933   3.128  11.670  0.3018  0.2322 -0.0110
 7520TIP3    H144051   5.959   3.216  11.643 -1.9579  0.8990 -0.2416
 7520TIP3    H244052   5.987   3.109  11.746  1.5750  1.3739 -0.5903
 7521TIP3   OH244053   5.707   1.577  11.697 -0.1195 -0.5914 -0.1185
 7521TIP3    H144054   5.647   1.506  11.676 -1.2556  0.1249  0.5818
 7521TIP3    H244055   5.650   1.653  11.710  1.0923  0.6426 -1.5448
 7522TIP3   OH244056   4.663   0.869   4.274 -0.4188  0.0957  0.0985
 7522TIP3    H144057   4.754   0.882   4.300 -0.2679 -2.6274  1.2332
 7522TIP3    H244058   4.665   0.865   4.179  0.1906  2.6162 -0.0627
 7523TIP3   OH244059   2.921   2.193  16.155  0.2274  0.4756  0.3650
 7523TIP3    H144060   2.891   2.112  16.113 -1.6844  1.3380 -0.0411
 7523TIP3    H244061   2.953   2.246  16.083  0.1776  0.6089  0.4399
 7524TIP3   OH244062   5.040   5.930   1.633 -0.2721  0.1026  0.6616
 7524TIP3    H144063   5.005   5.903   1.718  0.0071 -1.6632  0.2567
 7524TIP3    H244064   5.038   5.851   1.580  0.2624  0.9945 -0.7529
 7525TIP3   OH244065   4.370   5.153   0.664  0.6985  0.0528  0.1871
 7525TIP3    H144066   4.391   5.189   0.578  0.7719  1.4193  0.7509
 7525TIP3    H244067   4.277   5.132   0.659  0.6311  0.4084 -0.1347
 7526TIP3   OH244068   3.211   5.845   4.790  0.0104  0.2482 -0.1118
 7526TIP3    H144069   3.197   5.784   4.862 -0.8793  1.9461  1.2279
 7526TIP3    H244070   3.266   5.797   4.728 -0.3826 -1.7626  1.0219
 7527TIP3   OH244071   1.401   5.477  10.452 -0.7993  0.5684  0.0781
 7527TIP3    H144072   1.369   5.560  10.418 -0.7054  0.8121  0.5695
 7527TIP3    H244073   1.340   5.412  10.418 -1.2334  0.9131  0.1885
 7528TIP3   OH244074   0.253   1.124   0.992  0.2349 -0.2600  0.3359
 7528TIP3    H144075   0.165   1.121   1.030 -0.0639 -0.8208 -0.3788
 7528TIP3    H244076   0.291   1.205   1.026 -0.8181  0.3603  0.0805
 7529TIP3   OH244077   1.261   1.266   1.220 -0.2844  0.1084  0.1742
 7529TIP3    H144078   1.295   1.199   1.161  1.5277  0.7790  0.4017
 7529TIP3    H244079   1.293   1.349   1.183 -1.3886  0.7573  0.6248
 7530TIP3   OH244080   5.389   2.843   5.280  0.3472  0.0363 -0.1325
 7530TIP3    H144081   5.448   2.917   5.267  2.7322 -1.9628 -1.6431
 7530TIP3    H244082   5.378   2.806   5.193 -2.6321 -0.1513  0.2277
 7531TIP3   OH244083   2.640   0.369   1.391 -0.1279  0.2899  1.2038
 7531TIP3    H144084   2.725   0.413   1.400  0.0478  0.0999  0.5136
 7531TIP3    H244085   2.610   0.392   1.303 -0.1902 -0.7007  0.9569
 7532TIP3   OH244086   2.287   6.683   0.115 -0.1399 -0.3248  0.0551
 7532TIP3    H144087   2.364   6.640   0.154 -0.6782 -2.4719 -1.0935
 7532TIP3    H244088   2.319   6.720   0.033  0.2713  1.4203  0.9407
 7533TIP3   OH244089   6.436   4.577   3.898 -0.6974  0.1324 -0.1265
 7533TIP3    H144090   6.382   4.532   3.833 -0.8864  0.0846  0.0633
 7533TIP3    H244091   6.414   4.535   3.981  0.1596 -0.3643 -0.1464
 7534TIP3   OH244092   2.414   3.068   3.474 -0.8227 -0.3236 -0.1989
 7534TIP3    H144093   2.370   3.075   3.558 -1.8855  0.6476 -0.8018
 7534TIP3    H244094   2.393   3.150   3.429  0.7991 -0.2522 -0.9106
 7535TIP3   OH244095   3.082   5.688  13.641  0.0976  0.0023 -0.2780
 7535TIP3    H144096   3.104   5.643  13.560 -1.6060 -1.3883 -0.0204
 7535TIP3    H244097   2.989   5.707  13.634  0.1839  0.9746  0.8441
 7536TIP3   OH244098   0.471   3.220  14.543  0.4262 -0.0553  0.1777
 7536TIP3    H144099   0.476   3.214  14.447  0.9874 -0.6126  0.2317
 7536TIP3    H244100   0.545   3.275  14.568 -1.0759  2.1025  0.1505
 7537TIP3   OH244101   3.960   1.899  12.900 -0.1700 -0.2122 -0.1156
 7537TIP3    H144102   3.929   1.986  12.874 -1.4582 -0.9798 -1.3188
 7537TIP3    H244103   4.050   1.894  12.866 -0.3532  0.3874 -0.7077
 7538TIP3   OH244104   0.937   0.027  11.331  0.4036 -0.1604  0.4617
 7538TIP3    H144105   0.882  -0.045  11.300  0.7168 -0.1637 -0.0991
 7538TIP3    H244106   0.908   0.103  11.281  2.1061 -0.5260 -1.1876
 7539TIP3   OH244107   6.401   3.860   4.652  0.1009 -0.6517 -0.2533
 7539TIP3    H144108   6.408   3.878   4.745  1.6903 -1.8230 -0.1058
 7539TIP3    H244109   6.459   3.785   4.637  0.5865  0.0648 -2.3403
 7540TIP3   OH244110   6.359   4.470  13.294 -0.2729  0.2733 -0.1628
 7540TIP3    H144111   6.413   4.402  13.334 -0.7528  0.8557  1.5288
 7540TIP3    H244112   6.393   4.552  13.330  0.9240  1.0952 -2.8731
 7541TIP3   OH244113   5.439   6.144  13.365  0.0993 -0.1003  0.4116
 7541TIP3    H144114   5.485   6.084  13.307  1.2007 -0.1212  1.2871
 7541TIP3    H244115   5.501   6.162  13.436 -0.7541  0.9113  0.9282
 7542TIP3   OH244116   4.050   4.573   4.224 -0.3856  0.3783 -0.2762
 7542TIP3    H144117   4.032   4.551   4.132  1.9537  3.4497 -1.6346
 7542TIP3    H244118   4.068   4.667   4.223 -2.2780  1.0011  3.7396
 7543TIP3   OH244119   0.485   1.510  16.080  0.2176 -0.0810  0.2824
 7543TIP3    H144120   0.571   1.549  16.096 -0.2891  1.1447  0.0979
 7543TIP3    H244121   0.425   1.584  16.076 -0.8034 -0.8962  0.0698
 7544TIP3   OH244122   5.013   4.495   4.091 -0.0721  0.0461  0.3197
 7544TIP3    H144123   5.071   4.502   4.015 -0.3229  3.5006  0.2631
 7544TIP3    H244124   4.925   4.486   4.054  0.0238 -0.9103  0.3026
 7545TIP3   OH244125   1.433   0.944  14.665 -0.3909  0.0646  0.0065
 7545TIP3    H144126   1.412   0.851  14.655  0.4827 -0.2949  1.3222
 7545TIP3    H244127   1.355   0.990  14.633 -1.0740 -1.1304 -0.0855
 7546TIP3   OH244128   2.297   4.350  11.387 -0.1798 -0.1399  0.5337
 7546TIP3    H144129   2.291   4.441  11.415 -0.6523 -0.2092  0.6629
 7546TIP3    H244130   2.263   4.300  11.461  1.4781 -0.5254  1.0787
 7547TIP3   OH244131   2.532   2.916  12.035 -0.2624 -0.0502 -0.1547
 7547TIP3    H144132   2.492   2.996  12.068  0.6398  0.1417  0.5092
 7547TIP3    H244133   2.568   2.873  12.112  2.0903  0.5238 -0.8399
 7548TIP3   OH244134   3.499   6.635  15.418  0.3166 -0.1234 -0.1987
 7548TIP3    H144135   3.487   6.714  15.366  0.8387 -0.6575 -1.1562
 7548TIP3    H244136   3.594   6.632  15.435  0.4472 -1.0713 -1.0374
 7549TIP3   OH244137   1.866   2.774   3.001 -0.7764  0.2970  0.2756
 7549TIP3    H144138   1.814   2.774   3.081 -1.0915 -0.6212  0.0849
 7549TIP3    H244139   1.907   2.860   2.999  0.2631 -0.1029  2.0862
 7550TIP3   OH244140   4.632   5.054   4.822  0.0902  0.2875  0.2802
 7550TIP3    H144141   4.587   5.055   4.906  0.6185  1.2511  0.5604
 7550TIP3    H244142   4.584   5.117   4.768  1.5926  2.0026  0.8667
 7551TIP3   OH244143   5.564   6.331   4.624  0.4196  0.0563  0.1214
 7551TIP3    H144144   5.605   6.335   4.537 -0.1699 -1.1530 -0.2281
 7551TIP3    H244145   5.638   6.315   4.684  0.6388 -0.8090 -0.3602
 7552TIP3   OH244146   0.550   6.408   4.512  0.1039 -0.1429 -0.2042
 7552TIP3    H144147   0.610   6.481   4.498  0.0783 -0.0949 -0.0658
 7552TIP3    H244148   0.586   6.362   4.588  0.9957 -1.1741 -1.2036
 7553TIP3   OH244149   6.113   5.484   3.874 -0.0301  0.2440 -0.3871
 7553TIP3    H144150   6.036   5.499   3.929  0.3281  1.2677 -0.1450
 7553TIP3    H244151   6.169   5.427   3.926 -0.8259 -0.9459 -0.7745
 7554TIP3   OH244152   4.917   3.043  12.377 -0.7014  0.3377  0.4037
 7554TIP3    H144153   4.838   3.003  12.342 -1.9002  2.3840  0.6213
 7554TIP3    H244154   4.902   3.137  12.370  1.2400  0.7977  1.5232
 7555TIP3   OH244155   0.707   0.237   5.127  0.3565 -0.1911 -0.1017
 7555TIP3    H144156   0.651   0.178   5.177  1.7486 -1.8184 -0.3693
 7555TIP3    H244157   0.758   0.284   5.193  0.8480 -0.9730  0.0975
 7556TIP3   OH244158   6.819   1.607  12.592 -0.1826  0.2213 -0.7427
 7556TIP3    H144159   6.869   1.615  12.673 -1.4348  1.5138 -0.0603
 7556TIP3    H244160   6.856   1.673  12.533 -0.0377  0.0783 -0.8119
 7557TIP3   OH244161   5.550   5.590   1.707 -1.0442  0.3326 -0.4350
 7557TIP3    H144162   5.466   5.553   1.736 -0.8832 -0.4456 -0.9375
 7557TIP3    H244163   5.613   5.520   1.723  0.0216  1.7579  2.3788
 7558TIP3   OH244164   5.792   1.749  16.043 -0.2527 -0.1017  0.2859
 7558TIP3    H144165   5.827   1.793  15.965  2.4667 -2.7839 -0.2182
 7558TIP3    H244166   5.710   1.794  16.061 -1.0614  0.6984 -4.1627
 7559TIP3   OH244167   6.076   5.813   2.319  0.3198  0.2825  0.4253
 7559TIP3    H144168   6.102   5.819   2.411  0.5863 -0.4930  0.4086
 7559TIP3    H244169   6.132   5.744   2.283 -0.9218 -0.5880  0.1025
 7560TIP3   OH244170   5.494   0.090   0.872  0.5349  0.1077  0.0732
 7560TIP3    H144171   5.516   0.166   0.926  0.8746  1.1893 -1.5435
 7560TIP3    H244172   5.401   0.101   0.853  0.8262  0.7630 -1.0846
 7561TIP3   OH244173   5.763   6.507  13.533 -0.0204  0.1233 -0.0554
 7561TIP3    H144174   5.727   6.568  13.598  1.0501 -0.8651  1.5286
 7561TIP3    H244175   5.796   6.433  13.585  1.4577 -0.4207 -1.6733
 7562TIP3   OH244176   1.890   2.469   1.175 -0.4322  0.5007 -0.4883
 7562TIP3    H144177   1.920   2.505   1.092 -1.1400  0.9746 -0.5460
 7562TIP3    H244178   1.876   2.545   1.231 -0.6428  0.2289 -0.1663
 7563TIP3   OH244179   6.089   1.541  10.742 -0.0902  0.1157  0.2887
 7563TIP3    H144180   6.075   1.487  10.664  0.2460  0.9469 -0.3804
 7563TIP3    H244181   6.101   1.630  10.706  0.6118  0.4216  1.2530
 7564TIP3   OH244182   3.457   5.411  11.991  0.2107  0.3753  0.1876
 7564TIP3    H144183   3.441   5.333  11.937  2.0032 -1.2669  1.9166
 7564TIP3    H244184   3.503   5.471  11.932 -1.2485  0.2121 -1.1932
 7565TIP3   OH244185   6.034   6.107  15.287  0.4577  0.3078 -0.0954
 7565TIP3    H144186   6.065   6.060  15.210  1.8028  2.0086 -0.6782
 7565TIP3    H244187   5.983   6.180  15.251 -1.0264 -0.2739  0.7462
 7566TIP3   OH244188   6.740   6.849   5.447 -0.0302  0.2042  0.3368
 7566TIP3    H144189   6.822   6.811   5.416 -0.6112 -0.0613 -0.9271
 7566TIP3    H244190   6.708   6.901   5.373 -0.8515  0.5670  0.9269
 7567TIP3   OH244191   5.385   2.589  14.924  0.9134 -0.1424  0.6310
 7567TIP3    H144192   5.406   2.668  14.874 -1.7131  0.5203  0.4204
 7567TIP3    H244193   5.403   2.517  14.863 -0.2855  0.5483 -0.6283
 7568TIP3   OH244194   4.386   3.208  11.564  0.0206  0.3282  0.1342
 7568TIP3    H144195   4.403   3.118  11.535  0.5157  0.2654  0.6067
 7568TIP3    H244196   4.442   3.219  11.641 -0.4735  0.8481  0.4241
 7569TIP3   OH244197   4.979   5.230   4.693  0.4499 -0.4898  0.0013
 7569TIP3    H144198   4.934   5.305   4.655 -0.4509 -1.2512 -0.4646
 7569TIP3    H244199   4.939   5.218   4.779  1.3380  0.2029  0.5351
 7570TIP3   OH244200   0.200   2.412   2.449 -1.0120  0.1256 -0.3951
 7570TIP3    H144201   0.155   2.434   2.367 -0.8657  0.3215 -0.4216
 7570TIP3    H244202   0.266   2.347   2.423 -2.9342 -2.1091  0.0259
 7571TIP3   OH244203   1.293   1.081  15.399 -0.7604  0.6228 -0.3233
 7571TIP3    H144204   1.378   1.119  15.421 -0.0686 -0.1504 -1.5117
 7571TIP3    H244205   1.229   1.140  15.437  0.3083  1.2894  0.4944
 7572TIP3   OH244206   0.477   1.824   0.128 -0.1863  0.0988 -0.1099
 7572TIP3    H144207   0.549   1.786   0.077  0.0678 -1.1022  1.0842
 7572TIP3    H244208   0.398   1.787   0.087 -0.2555  2.1838 -2.0488
 7573TIP3   OH244209   0.057   2.289   0.119  0.1436 -0.3086 -0.3735
 7573TIP3    H144210   0.128   2.341   0.082 -0.5546  0.9462 -0.0319
 7573TIP3    H244211  -0.015   2.352   0.129  0.1229 -0.6978  2.6160
 7574TIP3   OH244212   6.157   6.517   3.487 -0.2399  0.1973 -0.0913
 7574TIP3    H144213   6.211   6.534   3.410  0.7565 -1.8333  0.0883
 7574TIP3    H244214   6.085   6.579   3.480  1.5176  2.2508 -0.9233
 7575TIP3   OH244215   1.980   5.786   5.874 -0.2348  0.4936  0.3226
 7575TIP3    H144216   2.069   5.755   5.858  0.4554  2.5148 -0.0298
 7575TIP3    H244217   1.953   5.741   5.954  1.7669  1.1330  1.4184
 7576TIP3   OH244218   2.623   4.923  14.998  0.3803  0.1893 -0.9014
 7576TIP3    H144219   2.718   4.910  14.994  0.6058  0.8961  1.1103
 7576TIP3    H244220   2.589   4.872  14.925  2.2674 -0.5062 -1.3537
 7577TIP3   OH244221   5.283   6.134   4.438  0.7334  0.1334  0.3589
 7577TIP3    H144222   5.196   6.169   4.455 -0.3222 -2.0288 -0.2320
 7577TIP3    H244223   5.342   6.190   4.489 -1.1214  0.7223  1.9787
 7578TIP3   OH244224   4.400   1.902  13.058 -0.1528  0.4053  0.7474
 7578TIP3    H144225   4.469   1.941  13.004 -1.0755  2.1479  0.7320
 7578TIP3    H244226   4.327   1.888  12.998 -0.0944 -0.6915  0.9174
 7579TIP3   OH244227   3.943   5.909   2.247 -0.1142 -0.1536 -0.2526
 7579TIP3    H144228   3.888   5.985   2.230 -1.3393 -1.3029 -1.6771
 7579TIP3    H244229   3.931   5.853   2.171  1.3623 -1.4444  0.4047
 7580TIP3   OH244230   3.978   4.192  13.163 -0.0400 -0.5006  0.3256
 7580TIP3    H144231   3.978   4.097  13.175 -0.7789 -0.7676 -1.4408
 7580TIP3    H244232   3.936   4.205  13.078  0.7210  1.3728  0.1912
 7581TIP3   OH244233   6.139   3.741  15.309  0.3837  0.2143  0.0593
 7581TIP3    H144234   6.160   3.648  15.307  0.4210  0.0531  3.0633
 7581TIP3    H244235   6.185   3.774  15.386 -1.4954  2.1993  0.4263
 7582TIP3   OH244236   5.324   6.811   0.563 -0.1624 -0.0807  0.8254
 7582TIP3    H144237   5.360   6.750   0.628 -0.3118 -3.0873 -1.6879
 7582TIP3    H244238   5.373   6.793   0.483 -1.8376  1.4791 -0.6396
 7583TIP3   OH244239   4.117   0.522   2.029 -0.1395 -0.1920 -0.6619
 7583TIP3    H144240   4.142   0.436   2.063 -0.8802 -0.2609 -0.2829
 7583TIP3    H244241   4.035   0.507   1.982 -1.3562  0.6311  1.0988
 7584TIP3   OH244242   5.552   4.433   3.521 -0.4319  0.3689 -0.6653
 7584TIP3    H144243   5.506   4.353   3.499 -1.0680  0.6452 -0.3647
 7584TIP3    H244244   5.541   4.442   3.616 -0.3514  0.7992 -0.6923
 7585TIP3   OH244245   4.666   6.033  14.448  0.3065 -0.1069  0.0723
 7585TIP3    H144246   4.675   5.973  14.374 -0.1954 -1.1402  0.8291
 7585TIP3    H244247   4.690   6.119  14.412  2.6705 -0.9730 -0.6400
 7586TIP3   OH244248   4.805   1.561  16.411 -0.4515  0.4422  0.0332
 7586TIP3    H144249   4.871   1.596  16.471 -0.6917 -0.5736  0.9150
 7586TIP3    H244250   4.760   1.494  16.462 -0.9750 -0.1181 -1.1441
 7587TIP3   OH244251   2.665   2.315   3.028 -0.2838  0.0772  0.2611
 7587TIP3    H144252   2.647   2.221   3.035 -0.1211 -0.0374 -0.6505
 7587TIP3    H244253   2.740   2.329   3.085 -0.6590 -0.2377  0.8429
 7588TIP3   OH244254   5.264   3.761  13.041 -0.1587 -0.6107 -0.4900
 7588TIP3    H144255   5.291   3.692  12.982  2.5878 -0.6144  0.6358
 7588TIP3    H244256   5.177   3.734  13.072 -1.0364 -1.3070 -3.2921
 7589TIP3   OH244257   0.088   6.543   0.899  0.1043 -0.0905  0.2534
 7589TIP3    H144258   0.063   6.452   0.914 -0.4209 -0.1007 -0.6485
 7589TIP3    H244259   0.121   6.573   0.984  0.2586 -1.1085  0.5603
 7590TIP3   OH244260   2.143   0.094  12.720  0.1717 -0.6557 -0.2801
 7590TIP3    H144261   2.239   0.102  12.725  0.4474 -3.1049 -0.5919
 7590TIP3    H244262   2.112   0.135  12.801  1.4017  0.6831 -0.4326
 7591TIP3   OH244263   4.253   3.947   1.992 -0.1051 -0.2281 -0.0157
 7591TIP3    H144264   4.242   4.042   1.999  0.8932 -0.0997  0.0240
 7591TIP3    H244265   4.197   3.922   1.919 -1.1264  0.2460  0.5874
 7592TIP3   OH244266   5.857   3.831  14.684  0.5474 -0.1447  0.3018
 7592TIP3    H144267   5.814   3.837  14.769  0.6475 -0.6340  0.3929
 7592TIP3    H244268   5.829   3.909  14.637 -1.6030 -1.1095 -0.1627
 7593TIP3   OH244269   1.713   5.719   0.146 -0.4164 -0.2538 -0.4317
 7593TIP3    H144270   1.747   5.671   0.221 -0.3484 -1.7624 -1.3799
 7593TIP3    H244271   1.786   5.722   0.084 -1.1206 -1.0644 -1.3498
 7594TIP3   OH244272   3.867   3.216   5.736  0.1793  0.0721 -0.1775
 7594TIP3    H144273   3.799   3.283   5.745 -0.0682 -0.0361 -1.0796
 7594TIP3    H244274   3.819   3.139   5.705  0.3071 -0.8377  1.7516
 7595TIP3   OH244275   0.969   1.879  15.633 -0.1589  0.7838 -0.1878
 7595TIP3    H144276   1.012   1.878  15.718 -3.8400 -0.3296  1.9008
 7595TIP3    H244277   0.935   1.968  15.624 -0.9277  0.5421  0.2170
 7596TIP3   OH244278   3.223   3.782   2.142 -0.1955  0.1784  0.7675
 7596TIP3    H144279   3.318   3.776   2.148 -0.0345 -0.5024 -1.5017
 7596TIP3    H244280   3.191   3.698   2.176 -0.1343  1.0486  3.1089
 7597TIP3   OH244281   2.349   0.237   2.908  0.0130 -0.2233 -0.2936
 7597TIP3    H144282   2.259   0.207   2.895 -0.3709 -0.2931  2.0050
 7597TIP3    H244283   2.345   0.332   2.897 -0.3401 -0.2334 -0.2509
 7598TIP3   OH244284   0.151   3.160   4.217  0.2806 -0.0507  0.6548
 7598TIP3    H144285   0.221   3.225   4.209  1.5243 -1.3434  0.5025
 7598TIP3    H244286   0.141   3.124   4.129  1.1898 -1.5922  1.1411
 7599TIP3   OH244287   1.088   4.337  11.697 -0.1485  0.0066  0.1942
 7599TIP3    H144288   1.044   4.400  11.640  1.5725  0.2563 -0.9450
 7599TIP3    H244289   1.171   4.380  11.720  0.5705 -1.3801  0.3056
 7600TIP3   OH244290   3.197   0.077  17.037 -0.2104 -0.1671 -0.2753
 7600TIP3    H144291   3.220  -0.003  16.991 -3.2600 -1.1410 -0.3631
 7600TIP3    H244292   3.109   0.099  17.005 -1.8560  0.0295  3.7260
 7601TIP3   OH244293   5.145   1.363  16.712 -0.1140  0.2267  0.1019
 7601TIP3    H144294   5.060   1.347  16.754 -0.5972 -1.6706 -1.4490
 7601TIP3    H244295   5.166   1.453  16.734 -0.7887 -0.3192  3.5492
 7602TIP3   OH244296   1.718   1.100   4.238  0.3597 -0.3140 -0.1431
 7602TIP3    H144297   1.668   1.181   4.246  0.6905  0.1209 -2.0568
 7602TIP3    H244298   1.742   1.078   4.328  1.5437  2.5252  0.3471
 7603TIP3   OH244299   1.779   1.388   3.666  0.4605 -0.1212  0.0048
 7603TIP3    H144300   1.776   1.438   3.584  2.1206  3.2247  1.7750
 7603TIP3    H244301   1.863   1.343   3.663  0.6524  0.2345 -0.0255
 7604TIP3   OH244302   4.355   1.327  11.663 -0.0653  0.1292  0.0704
 7604TIP3    H144303   4.421   1.359  11.601  2.2277 -0.7436  1.9154
 7604TIP3    H244304   4.336   1.403  11.718  0.9272 -0.1132  0.7678
 7605TIP3   OH244305   2.267   2.586  12.042 -0.5228  0.1264  0.0699
 7605TIP3    H144306   2.240   2.640  12.116 -2.0771 -2.3451  1.4491
 7605TIP3    H244307   2.344   2.538  12.073 -1.1299 -0.8644  0.0849
 7606TIP3   OH244308   2.519   2.514   2.929  0.1689  0.0125 -0.1349
 7606TIP3    H144309   2.466   2.530   3.007  1.6169  0.4874  0.7851
 7606TIP3    H244310   2.578   2.443   2.953  1.4493  0.9617 -0.3489
 7607TIP3   OH244311   5.966   6.695  15.510 -0.5102 -0.2212  0.1225
 7607TIP3    H144312   6.025   6.712  15.584 -0.3108 -1.2648  0.2217
 7607TIP3    H244313   6.024   6.670  15.438 -0.7448  0.1737 -0.2062
 7608TIP3   OH244314   4.725   2.508   1.747  0.4043  0.2774  0.3036
 7608TIP3    H144315   4.687   2.461   1.672 -0.9483 -0.1288  1.2115
 7608TIP3    H244316   4.721   2.600   1.722  0.9228  0.0846 -0.5389
 7609TIP3   OH244317   3.415   2.755   4.746 -0.0807  0.3197 -0.5530
 7609TIP3    H144318   3.494   2.772   4.797 -0.7454  1.2455  0.2019
 7609TIP3    H244319   3.414   2.660   4.734 -0.8586 -0.2087  2.8177
 7610TIP3   OH244320   0.221   2.102  17.083  0.0306 -0.2459 -0.6449
 7610TIP3    H144321   0.269   2.058  17.012  0.6319  0.7055 -0.8386
 7610TIP3    H244322   0.194   2.031  17.141  1.2308 -0.8556 -0.8039
 7611TIP3   OH244323   5.094   0.738  10.820 -0.6601 -0.1566 -0.0653
 7611TIP3    H144324   5.147   0.669  10.860 -0.3443 -0.2935 -0.7088
 7611TIP3    H244325   5.115   0.733  10.727 -0.7412  0.7133 -0.1395
 7612TIP3   OH244326   0.906   1.273   3.288  0.5084  0.9233  0.1797
 7612TIP3    H144327   0.931   1.183   3.266  0.2286  1.0040 -0.5161
 7612TIP3    H244328   0.852   1.264   3.367  1.9738  0.6707  1.1905
 7613TIP3   OH244329   0.559   6.823   3.471  0.1400 -0.0401 -0.1967
 7613TIP3    H144330   0.597   6.736   3.487 -2.2274 -0.9746  0.8519
 7613TIP3    H244331   0.613   6.883   3.523 -0.1217 -1.3779  1.7006
 7614TIP3   OH244332   0.072   4.881   0.391  0.7130 -0.5751 -0.2172
 7614TIP3    H144333   0.001   4.913   0.335 -0.5781  0.4555  1.8869
 7614TIP3    H244334   0.034   4.806   0.438  1.2251 -0.4339  0.4321
 7615TIP3   OH244335   6.848   5.552   3.941 -0.5479  0.1105  0.1533
 7615TIP3    H144336   6.844   5.467   3.896 -1.1306  0.7947 -1.1548
 7615TIP3    H244337   6.847   5.530   4.034  2.4596 -1.4671 -0.0592
 7616TIP3   OH244338   4.373   4.166   1.566  0.1052  0.0111  0.1058
 7616TIP3    H144339   4.438   4.173   1.496 -1.2758 -0.8599 -1.3262
 7616TIP3    H244340   4.413   4.107   1.630  0.9641 -0.0341 -0.4498
 7617TIP3   OH244341   5.838   4.865   4.280 -0.4204 -0.3925  0.8658
 7617TIP3    H144342   5.762   4.918   4.305  0.5689  1.6228 -0.1767
 7617TIP3    H244343   5.913   4.919   4.302  0.5993 -0.4698 -2.1074
 7618TIP3   OH244344   4.714   1.390   3.806  0.2324 -0.2688  0.1180
 7618TIP3    H144345   4.776   1.329   3.766 -1.7052 -1.6620 -0.9711
 7618TIP3    H244346   4.651   1.334   3.852 -0.8491  0.9834  0.2526
 7619TIP3   OH244347   4.793   3.277  13.272  0.0620  0.1436  0.2370
 7619TIP3    H144348   4.707   3.317  13.255  0.0777  0.0952  0.0465
 7619TIP3    H244349   4.831   3.331  13.341  1.3417  2.3190 -2.0256
 7620TIP3   OH244350   3.341   2.228  16.758  0.4447  0.5973 -0.4099
 7620TIP3    H144351   3.308   2.242  16.669 -0.3863  1.3693  0.0022
 7620TIP3    H244352   3.326   2.135  16.774  0.3878  0.5005 -0.9918
 7621TIP3   OH244353   2.147   4.012   4.524  0.2512 -0.6682 -0.0646
 7621TIP3    H144354   2.202   4.087   4.547 -0.4980 -0.1379  0.0475
 7621TIP3    H244355   2.133   4.019   4.430 -1.6279  0.6365  0.2466
 7622TIP3   OH244356   2.218   2.886   0.962 -0.1031  0.3578 -0.5322
 7622TIP3    H144357   2.182   2.958   1.013  0.3314  1.4729 -1.7266
 7622TIP3    H244358   2.152   2.869   0.895 -0.3521 -0.6012 -0.0576
 7623TIP3   OH244359   6.110   0.746  13.999 -0.7523 -0.1026  0.7819
 7623TIP3    H144360   6.030   0.792  14.023  0.8137  2.0632  2.3636
 7623TIP3    H244361   6.176   0.816  13.993  1.0079 -1.7785 -0.4763
 7624TIP3   OH244362   3.020   1.184   4.972 -0.2360 -0.0700  0.4985
 7624TIP3    H144363   3.004   1.274   4.943  0.8822  0.4972  1.5402
 7624TIP3    H244364   2.978   1.130   4.906  0.2453  1.2020 -0.9114
 7625TIP3   OH244365   1.690   2.489  14.141 -0.3901 -0.5625 -0.5184
 7625TIP3    H144366   1.596   2.481  14.158 -0.3990 -1.9106 -1.0822
 7625TIP3    H244367   1.711   2.415  14.084  1.4518 -1.7850  1.5359
 7626TIP3   OH244368   4.086   5.350  15.397 -0.2765  0.4756 -0.3804
 7626TIP3    H144369   4.037   5.281  15.353 -0.5288  1.3890 -1.5753
 7626TIP3    H244370   4.041   5.363  15.480 -0.2743 -0.7269 -0.1792
 7627TIP3   OH244371   0.223   0.385  10.917 -0.2220 -0.2765 -0.0385
 7627TIP3    H144372   0.259   0.443  10.850 -1.8315 -1.3028 -1.8728
 7627TIP3    H244373   0.258   0.420  10.999  3.4232 -0.1490 -1.4743
 7628TIP3   OH244374   6.369   4.136  16.146 -0.2223 -0.6600  0.0891
 7628TIP3    H144375   6.433   4.144  16.075 -0.6732 -0.4155 -0.2970
 7628TIP3    H244376   6.354   4.042  16.154 -0.7796 -0.6512 -0.7069
 7629TIP3   OH244377   4.897   1.021  16.840 -0.3801 -0.2831  0.0051
 7629TIP3    H144378   4.810   1.032  16.878 -1.1768 -2.8223 -0.9262
 7629TIP3    H244379   4.882   1.016  16.745  0.9939  0.7237 -0.3126
 7630TIP3   OH244380   2.588   2.302   4.508 -0.7875  0.1737  0.1709
 7630TIP3    H144381   2.503   2.345   4.518 -0.6277  0.5090  0.1043
 7630TIP3    H244382   2.635   2.356   4.445 -0.7240 -0.3205 -0.2054
 7631TIP3   OH244383   6.224   6.277   2.124  0.3915 -0.5230  0.5231
 7631TIP3    H144384   6.181   6.201   2.085  0.3026  0.3703 -1.2049
 7631TIP3    H244385   6.301   6.293   2.069 -0.1712  1.2642  0.1756
 7632TIP3   OH244386   2.833   3.133   2.243  0.1104 -0.2607  0.0807
 7632TIP3    H144387   2.763   3.068   2.241  0.1035 -0.4164  2.3124
 7632TIP3    H244388   2.821   3.184   2.163 -0.8077 -2.0435 -0.9807
 7633TIP3   OH244389   6.794   1.177  11.583 -0.1600  0.3158 -0.4644
 7633TIP3    H144390   6.870   1.198  11.637  0.5788  0.1954 -1.4284
 7633TIP3    H244391   6.723   1.228  11.621  0.5951  1.0913 -0.0511
 7634TIP3   OH244392   5.847   1.587  11.967 -0.1271 -0.0302  0.8463
 7634TIP3    H144393   5.755   1.561  11.959 -0.2155  0.2907  0.8145
 7634TIP3    H244394   5.879   1.592  11.877 -0.2607  0.5005  0.8248
 7635TIP3   OH244395   3.339   2.278   2.539  0.1512  0.3500  0.5726
 7635TIP3    H144396   3.372   2.312   2.457  2.1311  0.0328  1.1913
 7635TIP3    H244397   3.312   2.355   2.588 -3.2453  0.4470 -1.1495
 7636TIP3   OH244398   1.282   4.949  15.983 -0.2968  0.1476  0.5542
 7636TIP3    H144399   1.345   4.878  15.968  1.4437  1.8058 -0.4096
 7636TIP3    H244400   1.300   4.979  16.072 -0.4140 -0.0074  0.6311
 7637TIP3   OH244401   4.963   6.350   0.437 -0.0023  0.4054  0.1306
 7637TIP3    H144402   5.030   6.390   0.492 -0.5987 -0.0637  1.2432
 7637TIP3    H244403   4.887   6.341   0.495 -0.4375 -0.7327 -0.5760
 7638TIP3   OH244404   1.537   4.888   3.335  0.0263  0.3476  0.1312
 7638TIP3    H144405   1.616   4.837   3.352  0.5746  0.3123 -2.2053
 7638TIP3    H244406   1.466   4.837   3.375  0.9878 -0.3303  1.0392
 7639TIP3   OH244407   6.498   2.096   2.828  0.1480  0.4662 -0.1113
 7639TIP3    H144408   6.527   2.099   2.919  1.6048  1.9013 -0.5704
 7639TIP3    H244409   6.468   2.184   2.809  0.4862  0.3606 -1.1990
 7640TIP3   OH244410   3.860   2.145   1.286  0.0693  0.2602 -0.0020
 7640TIP3    H144411   3.825   2.230   1.313  1.3378  0.7654  0.1037
 7640TIP3    H244412   3.925   2.166   1.219  0.7941 -0.5829  0.4200
 7641TIP3   OH244413   0.242   5.424   3.707 -0.8156 -0.0944  0.2531
 7641TIP3    H144414   0.322   5.425   3.654 -0.4071 -0.7485  0.8378
 7641TIP3    H244415   0.179   5.374   3.655 -1.9731  3.1070 -1.7309
 7642TIP3   OH244416   6.805   5.125   5.164 -0.5664 -0.0860 -0.7466
 7642TIP3    H144417   6.782   5.215   5.142  0.7132  0.7769  1.2585
 7642TIP3    H244418   6.798   5.120   5.259  1.5175 -1.4496 -0.5870
 7643TIP3   OH244419   1.526   6.208   3.156  0.4242 -0.0093 -0.3254
 7643TIP3    H144420   1.513   6.133   3.098 -0.8788  0.4597 -0.6887
 7643TIP3    H244421   1.451   6.265   3.138  0.2718  0.4063  1.4386
 7644TIP3   OH244422   3.617   4.743  11.178  0.1996 -0.7378 -0.2220
 7644TIP3    H144423   3.706   4.764  11.151  0.2050 -0.1358  0.2606
 7644TIP3    H244424   3.567   4.823  11.164  0.4937  0.1270  2.8615
 7645TIP3   OH244425   5.701   1.514  14.660 -0.2021  0.3402 -0.2683
 7645TIP3    H144426   5.735   1.443  14.714  0.8498  1.4781  0.6204
 7645TIP3    H244427   5.755   1.512  14.581 -2.1854 -1.7573 -1.6609
 7646TIP3   OH244428   2.186   5.509   0.191  0.3879  1.0037  0.0242
 7646TIP3    H144429   2.140   5.451   0.252  2.2000 -1.0064 -0.4284
 7646TIP3    H244430   2.124   5.521   0.119 -0.0352 -0.4111  0.1236
 7647TIP3   OH244431   6.291   1.796   3.971 -0.9058 -0.0700 -0.1566
 7647TIP3    H144432   6.236   1.755   4.038  0.9653  0.5347  1.8479
 7647TIP3    H244433   6.379   1.761   3.987 -0.0065  1.7013 -0.9165
 7648TIP3   OH244434   6.505   4.829   3.851  0.0708 -0.4419  0.1202
 7648TIP3    H144435   6.530   4.869   3.935  1.3448 -0.1994 -0.3549
 7648TIP3    H244436   6.509   4.735   3.867 -0.9869 -0.4001  0.6910
 7649TIP3   OH244437   1.778   5.607   1.783 -0.6378  0.3309  0.1068
 7649TIP3    H144438   1.855   5.663   1.790 -0.7004  0.2983  1.1910
 7649TIP3    H244439   1.811   5.524   1.749 -0.5545  1.0205 -1.5812
 7650TIP3   OH244440   0.609   2.883   5.551 -0.2433 -0.0637  0.0778
 7650TIP3    H144441   0.654   2.858   5.631  1.1152 -1.0025 -0.9333
 7650TIP3    H244442   0.538   2.820   5.543 -2.2876  1.7890  1.9983
 7651TIP3   OH244443   5.189   1.688  15.922 -0.0694  0.3773 -0.0228
 7651TIP3    H144444   5.280   1.715  15.915 -0.1511  0.5269 -0.5966
 7651TIP3    H244445   5.141   1.750  15.868 -0.5930  0.6600  0.7473
 7652TIP3   OH244446   0.745   4.547   5.100  0.0224  0.6099 -0.0952
 7652TIP3    H144447   0.674   4.572   5.158 -0.7773 -1.0342 -0.3127
 7652TIP3    H244448   0.791   4.477   5.146  1.4583  1.5572 -0.0168
 7653TIP3   OH244449   0.699   6.593   1.179  0.4267 -0.1093  0.6267
 7653TIP3    H144450   0.784   6.598   1.134 -0.1307 -0.2967 -0.4792
 7653TIP3    H244451   0.669   6.504   1.162 -2.1199  1.2212 -3.0616
 7654TIP3   OH244452   2.624   1.335   1.386 -0.3779 -0.7566  0.9130
 7654TIP3    H144453   2.671   1.415   1.408  0.1529 -0.6567 -0.4931
 7654TIP3    H244454   2.691   1.268   1.381 -0.7160 -1.1288  1.2844
 7655TIP3   OH244455   2.563   1.508   4.845  0.1974 -0.6183 -0.2270
 7655TIP3    H144456   2.659   1.508   4.843  0.2127 -0.9846  0.3374
 7655TIP3    H244457   2.541   1.543   4.931 -0.1718 -1.0334 -0.1523
 7656TIP3   OH244458   0.530   5.745  16.738 -0.4405 -0.2348 -0.1435
 7656TIP3    H144459   0.484   5.787  16.811 -3.5332  0.4658 -2.3085
 7656TIP3    H244460   0.576   5.817  16.694  2.0543 -0.7651  1.3445
 7657TIP3   OH244461   1.032   3.202  13.028 -0.3695 -0.3375  0.2037
 7657TIP3    H144462   0.946   3.164  13.011 -0.2347 -0.0301 -1.2228
 7657TIP3    H244463   1.075   3.139  13.085 -1.1044 -1.0580 -0.0185
 7658TIP3   OH244464   2.868   4.339   3.553 -0.4548 -0.1392 -0.2855
 7658TIP3    H144465   2.954   4.365   3.588  0.1742 -1.8055 -0.5079
 7658TIP3    H244466   2.807   4.400   3.595  0.8855  1.5923 -0.6977
 7659TIP3   OH244467   5.124   5.180  15.380  0.3924  0.2773  0.4105
 7659TIP3    H144468   5.130   5.147  15.290  1.8807  1.8152 -0.0897
 7659TIP3    H244469   5.034   5.212  15.388  0.4708  0.8294 -0.7838
 7660TIP3   OH244470   5.047   3.301   1.165  0.3869 -0.3298 -0.5630
 7660TIP3    H144471   5.056   3.347   1.081 -0.9083 -0.2506 -0.6746
 7660TIP3    H244472   4.996   3.361   1.220  0.8283 -0.5766  0.1335
 7661TIP3   OH244473   0.300   0.491  12.592 -0.1452  0.0115  0.4001
 7661TIP3    H144474   0.385   0.458  12.562 -0.1580 -0.4550  0.8565
 7661TIP3    H244475   0.320   0.539  12.672 -0.1641  0.8932 -0.1165
 7662TIP3   OH244476   4.117   6.797   3.376 -0.5639 -0.4750 -0.1196
 7662TIP3    H144477   4.196   6.834   3.336  0.4628 -0.6240  1.6467
 7662TIP3    H244478   4.103   6.714   3.331 -0.4010  0.0773 -1.2279
 7663TIP3   OH244479   5.841   2.767   5.134  0.9325  0.1580 -0.0309
 7663TIP3    H144480   5.838   2.857   5.167  0.4676 -0.0867  0.6071
 7663TIP3    H244481   5.865   2.776   5.042  2.1860  0.8601  0.3443
 7664TIP3   OH244482   6.475   4.897   2.588 -0.1529  0.0800  0.1205
 7664TIP3    H144483   6.476   4.916   2.682  1.0903 -0.8541  0.3264
 7664TIP3    H244484   6.386   4.916   2.560  0.1248  2.9947  0.9193
 7665TIP3   OH244485   4.615   0.539   0.503  0.0329  0.0361 -1.0418
 7665TIP3    H144486   4.623   0.627   0.541 -2.3846 -0.4190  0.6983
 7665TIP3    H244487   4.610   0.555   0.409  0.2525  1.7011 -0.8135
 7666TIP3   OH244488   4.024   4.396   4.742  0.0308  0.5606 -0.2163
 7666TIP3    H144489   3.934   4.384   4.713 -0.2302  0.7593  0.4809
 7666TIP3    H244490   4.075   4.337   4.687 -0.8597 -1.6903  1.2245
 7667TIP3   OH244491   5.825   5.283  15.669 -0.2193  0.5455 -0.1539
 7667TIP3    H144492   5.758   5.249  15.609  1.0204 -1.3859 -0.5202
 7667TIP3    H244493   5.907   5.274  15.621  0.4853  1.5475  0.8234
 7668TIP3   OH244494   0.795   2.551   4.080  0.2093 -0.2615 -0.1952
 7668TIP3    H144495   0.792   2.646   4.086 -0.4083 -0.3865  3.4038
 7668TIP3    H244496   0.855   2.534   4.007 -0.8700  2.8024 -1.9933
 7669TIP3   OH244497   2.284   3.390   6.119  0.2793  0.3788 -0.1929
 7669TIP3    H144498   2.342   3.376   6.194  1.5953  0.0851 -1.2303
 7669TIP3    H244499   2.332   3.354   6.044 -1.7003 -0.8403 -0.9473
 7670TIP3   OH244500   3.978   0.014  15.534  0.1724  0.0299  0.3309
 7670TIP3    H144501   3.950  -0.073  15.565 -0.7993 -0.7857 -2.4689
 7670TIP3    H244502   3.911   0.038  15.470  1.6001  1.8570 -0.5489
 7671TIP3   OH244503   0.581   4.746   4.063  0.6777 -0.5439  0.3449
 7671TIP3    H144504   0.532   4.715   3.987 -0.1040  1.9678 -0.2481
 7671TIP3    H244505   0.515   4.781   4.122  1.5367  0.3844  0.7821
 7672TIP3   OH244506   2.277   2.511   1.638  0.5044 -0.4006 -0.0948
 7672TIP3    H144507   2.195   2.462   1.653 -0.5622  1.2624 -0.2772
 7672TIP3    H244508   2.333   2.485   1.711 -0.1352 -1.6508 -0.0173
 7673TIP3   OH244509   3.326   3.215  16.717 -0.7264 -0.3073  0.2381
 7673TIP3    H144510   3.330   3.287  16.653 -1.0279 -2.2046 -2.0442
 7673TIP3    H244511   3.415   3.181  16.721 -0.9632 -0.9759 -0.1231
 7674TIP3   OH244512   1.788   0.651  16.163  0.1237  0.0672 -0.0356
 7674TIP3    H144513   1.777   0.702  16.244 -0.8472 -1.0424  0.5561
 7674TIP3    H244514   1.700   0.620  16.142  0.4920 -0.3012 -1.1029
 7675TIP3   OH244515   5.252   1.384  14.955 -0.0332  0.1782 -0.4912
 7675TIP3    H144516   5.336   1.345  14.980 -0.6756 -0.0035  1.5577
 7675TIP3    H244517   5.207   1.314  14.907  0.4886 -0.1443 -0.5205
 7676TIP3   OH244518   1.488   5.538  11.365  0.4492  0.5828 -0.9111
 7676TIP3    H144519   1.525   5.563  11.281  2.3170  1.0647  0.0048
 7676TIP3    H244520   1.413   5.596  11.377  0.8152  1.2400 -1.7478
 7677TIP3   OH244521   3.367   1.185   0.369  0.8823 -0.2927 -0.5281
 7677TIP3    H144522   3.323   1.107   0.334  0.2790 -1.0355  1.6914
 7677TIP3    H244523   3.441   1.150   0.418  1.6438  0.6790 -0.9600
 7678TIP3   OH244524   5.499   4.613  10.915 -0.0963 -0.4016  0.1886
 7678TIP3    H144525   5.455   4.697  10.905  0.8555  0.0509 -0.3730
 7678TIP3    H244526   5.440   4.561  10.969 -1.7400 -0.1595 -1.2851
 7679TIP3   OH244527   4.880   1.753  15.909 -0.2476  0.0614  0.2415
 7679TIP3    H144528   4.818   1.787  15.974 -0.6593 -0.2187  0.0026
 7679TIP3    H244529   4.891   1.661  15.934 -0.0503  0.0712  0.1883
 7680TIP3   OH244530   1.830   0.188  14.368  0.0632 -0.1033 -0.4535
 7680TIP3    H144531   1.785   0.105  14.354  0.9745 -0.5260 -0.9636
 7680TIP3    H244532   1.872   0.179  14.453  0.2459 -0.1985 -0.5546
 7681TIP3   OH244533   2.763   2.776  13.676  0.8439  0.1715 -0.1555
 7681TIP3    H144534   2.853   2.763  13.704  0.6496 -0.6475  0.1146
 7681TIP3    H244535   2.710   2.733  13.743  0.3249 -1.0129 -1.2773
 7682TIP3   OH244536   4.848   1.437   5.849 -0.0482 -0.0205  0.5817
 7682TIP3    H144537   4.894   1.422   5.766 -0.4766 -1.4789  0.5686
 7682TIP3    H244538   4.847   1.351   5.892 -0.9083  0.4369  1.5398
 7683TIP3   OH244539   4.096   3.110  14.468 -0.0082 -0.4525  0.0422
 7683TIP3    H144540   4.035   3.130  14.539  1.6938 -0.5515  1.6192
 7683TIP3    H244541   4.066   3.026  14.434 -1.3130 -0.0284  0.1136
 7684TIP3   OH244542   2.994   5.492   2.498  0.4390  0.1113 -0.1393
 7684TIP3    H144543   3.004   5.432   2.424  0.9141  0.8130 -0.6552
 7684TIP3    H244544   3.046   5.453   2.568  0.8653 -0.0070 -0.5185
 7685TIP3   OH244545   0.358   2.495  13.134  0.1662  0.2671 -0.7887
 7685TIP3    H144546   0.273   2.495  13.090 -0.5259  1.4281  0.4693
 7685TIP3    H244547   0.418   2.532  13.070 -0.5424  0.6356 -1.2528
 7686TIP3   OH244548   2.536   3.067   2.010 -0.0786  0.1072  0.7671
 7686TIP3    H144549   2.541   3.013   2.088 -2.6135 -1.2347  0.1166
 7686TIP3    H244550   2.522   3.005   1.938  0.6394  1.3998 -0.5384
 7687TIP3   OH244551   0.002   4.132  13.705  0.4194 -0.5173 -0.1283
 7687TIP3    H144552  -0.035   4.044  13.700 -0.2166 -0.2266 -0.6633
 7687TIP3    H244553   0.034   4.140  13.795  1.2710 -1.6048 -0.3091
 7688TIP3   OH244554   1.320   1.851   4.880  0.0649  0.7415 -0.0573
 7688TIP3    H144555   1.401   1.866   4.831 -0.7412 -2.5114 -2.7921
 7688TIP3    H244556   1.335   1.767   4.924 -1.4955  0.4922  0.0301
 7689TIP3   OH244557   1.154   3.732   1.704  0.0470 -0.7216 -0.3928
 7689TIP3    H144558   1.212   3.688   1.642  0.5036 -1.1185  0.3096
 7689TIP3    H244559   1.206   3.803   1.741 -0.7951  0.6899 -1.7811
 7690TIP3   OH244560   3.682   1.662   5.092  0.2080  0.1549  0.3712
 7690TIP3    H144561   3.712   1.609   5.165 -0.3421  0.4181  0.7908
 7690TIP3    H244562   3.718   1.618   5.014 -0.0424 -0.6963  0.7262
 7691TIP3   OH244563   4.892   6.657   2.134  0.6219  0.5271 -0.0987
 7691TIP3    H144564   4.937   6.702   2.062  0.2741  0.5157 -0.3264
 7691TIP3    H244565   4.800   6.680   2.122  0.4157 -0.3844 -0.3160
 7692TIP3   OH244566   3.427   5.417   3.858 -0.1893 -0.0617  0.0731
 7692TIP3    H144567   3.443   5.471   3.936 -0.3299  1.2168 -0.7541
 7692TIP3    H244568   3.395   5.333   3.893  2.6814 -0.6749  1.5458
 7693TIP3   OH244569   1.126   0.261   4.618  0.6296 -0.3161 -0.1553
 7693TIP3    H144570   1.184   0.194   4.582  1.0928 -0.1674  0.3026
 7693TIP3    H244571   1.114   0.236   4.710  0.5329  0.0459 -0.0674
 7694TIP3   OH244572   1.800   4.637   4.951 -0.2757 -0.6801  0.5020
 7694TIP3    H144573   1.831   4.615   4.864 -3.3738  0.2244 -0.9866
 7694TIP3    H244574   1.861   4.594   5.010  1.1601 -2.4828 -2.1033
 7695TIP3   OH244575   3.025   6.526  16.567  0.4777  0.0688 -0.4723
 7695TIP3    H144576   2.933   6.512  16.542 -0.7868  3.1967  1.7806
 7695TIP3    H244577   3.066   6.560  16.488 -1.0521  1.2436 -0.8082
 7696TIP3   OH244578   3.104   3.527   0.613  0.4043  0.1610  0.0153
 7696TIP3    H144579   3.157   3.606   0.617  0.0404  0.3659  1.6318
 7696TIP3    H244580   3.108   3.499   0.522  0.5319  2.0446 -0.5914
 7697TIP3   OH244581   6.562   1.681   3.897  0.1891  0.2389 -0.0018
 7697TIP3    H144582   6.658   1.682   3.893  0.2135  2.3264 -0.1678
 7697TIP3    H244583   6.535   1.740   3.826 -1.2329 -0.4731 -0.0814
 7698TIP3   OH244584   3.726   3.521   4.806  0.2427  0.5761 -0.6638
 7698TIP3    H144585   3.645   3.553   4.845 -0.6477  0.3528 -2.2313
 7698TIP3    H244586   3.791   3.588   4.826 -0.8980  1.9471 -1.4077
 7699TIP3   OH244587   4.843   6.404   5.570  0.6058  0.0202  0.7419
 7699TIP3    H144588   4.803   6.318   5.556  0.7614  0.2144 -1.1954
 7699TIP3    H244589   4.937   6.386   5.573  0.8655  0.3322 -2.4320
 7700TIP3   OH244590   4.539   4.054  11.789  0.5088 -0.3007  0.0239
 7700TIP3    H144591   4.475   4.124  11.771 -1.0054 -1.5473  0.3376
 7700TIP3    H244592   4.543   4.050  11.885  1.3351 -0.0101  0.0090
 7701TIP3   OH244593   4.471   1.385  15.126  0.3975  0.6611  0.0333
 7701TIP3    H144594   4.425   1.353  15.204  1.3200 -0.5792  0.0895
 7701TIP3    H244595   4.414   1.362  15.053 -0.5730  2.0141  0.3171
 7702TIP3   OH244596   2.206   3.079  14.511  0.0042 -0.7689  0.0737
 7702TIP3    H144597   2.203   3.174  14.525  2.3532 -0.5910 -0.2141
 7702TIP3    H244598   2.218   3.068  14.417  1.0699 -1.2800  0.2537
 7703TIP3   OH244599   2.045   3.023  14.768  0.1987 -0.0575 -0.9224
 7703TIP3    H144600   2.094   3.044  14.689  0.0817  1.5792 -0.5857
 7703TIP3    H244601   2.101   2.960  14.814  0.5786 -0.5074 -1.9656
 7704TIP3   OH244602   4.869   3.812  15.073  0.4513  0.2683  0.0906
 7704TIP3    H144603   4.838   3.722  15.066  0.1489  0.4841 -1.9760
 7704TIP3    H244604   4.895   3.822  15.164 -0.9998 -1.4200  0.7323
 7705TIP3   OH244605   4.278   3.387  15.563 -0.4055 -0.1004  0.5530
 7705TIP3    H144606   4.287   3.293  15.551  0.6761  0.1903 -1.4073
 7705TIP3    H244607   4.221   3.397  15.639 -0.2872 -2.3174  0.9827
 7706TIP3   OH244608   4.523   3.862   1.348 -0.0314 -0.2300 -0.3182
 7706TIP3    H144609   4.459   3.819   1.406 -0.5033  1.6525  0.6452
 7706TIP3    H244610   4.520   3.954   1.374  0.9396  0.4042 -2.2886
 7707TIP3   OH244611   2.591   5.196   0.332 -0.0990  0.4121 -0.1046
 7707TIP3    H144612   2.633   5.277   0.363  1.8350  0.3267 -2.2066
 7707TIP3    H244613   2.514   5.226   0.284 -0.7604  0.8026  1.1607
 7708TIP3   OH244614   0.487   3.999   3.888 -0.6589 -0.2845  0.0771
 7708TIP3    H144615   0.528   4.016   3.803 -1.3149 -1.8259 -0.5914
 7708TIP3    H244616   0.403   3.959   3.866 -0.7521 -0.8962  1.4578
 7709TIP3   OH244617   3.462   4.721  13.197 -0.5689 -0.2513  0.5627
 7709TIP3    H144618   3.475   4.646  13.255  0.0870  1.0216  2.1205
 7709TIP3    H244619   3.383   4.700  13.149 -0.9970 -1.4724  1.7351
 7710TIP3   OH244620   1.927   6.361  14.866 -0.2328 -0.3432 -0.1327
 7710TIP3    H144621   1.878   6.311  14.801  0.5882  2.8073 -3.4653
 7710TIP3    H244622   1.947   6.444  14.823  1.0906  1.7198  3.9268
 7711TIP3   OH244623   1.860   2.543  11.061  0.1145  0.3988 -0.1379
 7711TIP3    H144624   1.873   2.480  10.990  3.3072 -0.3312  0.9289
 7711TIP3    H244625   1.869   2.628  11.018  1.5521 -0.0210 -0.7141
 7712TIP3   OH244626   1.620   5.967  11.380 -0.0840  0.1221  0.3116
 7712TIP3    H144627   1.530   5.952  11.409  0.4805  0.4174  2.4579
 7712TIP3    H244628   1.655   5.880  11.366 -0.3357 -0.0643  0.7913
 7713TIP3   OH244629   2.967   4.629  12.867  0.0396 -0.1283  0.0491
 7713TIP3    H144630   3.048   4.676  12.846  0.8530 -1.4595  0.1100
 7713TIP3    H244631   2.918   4.628  12.785  0.0403  0.7536  0.0295
 7714TIP3   OH244632   2.531   3.288   4.963 -0.6031 -0.2393  0.5345
 7714TIP3    H144633   2.596   3.312   5.029 -0.1111  0.4017 -0.1653
 7714TIP3    H244634   2.501   3.200   4.989  0.0935 -0.2865  1.2012
 7715TIP3   OH244635   1.595   3.211  15.981  0.1755  0.2054 -0.3274
 7715TIP3    H144636   1.502   3.211  15.958  0.1333 -0.9550 -0.2013
 7715TIP3    H244637   1.600   3.259  16.063 -0.8891 -2.9581  1.7551
 7716TIP3   OH244638   1.958   4.905   0.159  0.3600 -0.3976 -0.2385
 7716TIP3    H144639   2.017   4.846   0.110  1.8616 -1.0168  2.1516
 7716TIP3    H244640   1.987   4.993   0.134 -1.7139 -0.4791 -3.6234
 7717TIP3   OH244641   5.748   1.646   3.315  0.3475  0.0439 -0.2963
 7717TIP3    H144642   5.721   1.673   3.227 -1.1562 -3.0189 -0.8940
 7717TIP3    H244643   5.666   1.638   3.364  1.0093 -0.1278  0.8215
 7718TIP3   OH244644   5.253   5.256   5.356  0.1032 -0.0174  1.0988
 7718TIP3    H144645   5.305   5.185   5.317  1.9199  1.0848  1.4102
 7718TIP3    H244646   5.163   5.233   5.336  0.7318 -1.6588 -0.0742
 7719TIP3   OH244647   5.744   2.965  15.200 -0.2933  0.3289 -0.0307
 7719TIP3    H144648   5.662   2.917  15.204  0.0125 -0.1683  0.4235
 7719TIP3    H244649   5.812   2.898  15.204  0.1809  0.8593  2.8233
 7720TIP3   OH244650   1.286   1.066   3.754 -0.0273 -0.4778 -0.1101
 7720TIP3    H144651   1.248   1.148   3.725 -1.0028 -1.3702 -1.4298
 7720TIP3    H244652   1.377   1.088   3.775 -0.2537  0.9040 -0.5089
 7721TIP3   OH244653   3.194   5.571  15.909  0.0208  0.9356  0.1365
 7721TIP3    H144654   3.113   5.520  15.918  0.6544 -0.0681  0.3612
 7721TIP3    H244655   3.234   5.568  15.996 -0.0730  2.0962  0.2342
 7722TIP3   OH244656   2.466   1.324  12.421 -0.3424 -0.2373  0.0581
 7722TIP3    H144657   2.453   1.385  12.494 -1.0486 -0.3641  0.0515
 7722TIP3    H244658   2.451   1.238  12.460  0.9947 -0.4531  0.1504
 7723TIP3   OH244659   4.042   3.568  16.745 -0.7512 -0.2685 -0.1460
 7723TIP3    H144660   4.090   3.640  16.785 -0.6510 -0.3725 -0.0784
 7723TIP3    H244661   4.103   3.495  16.746 -0.5597 -0.1250 -0.9850
 7724TIP3   OH244662   2.155   6.592  14.819  0.0663 -0.1325 -0.4622
 7724TIP3    H144663   2.172   6.508  14.777  0.0882 -1.1511  1.4989
 7724TIP3    H244664   2.234   6.611  14.869  0.0171  1.0214 -0.7892
 7725TIP3   OH244665   4.414   6.078  11.584  0.0004 -0.3701  0.4566
 7725TIP3    H144666   4.407   5.985  11.565  0.7654 -0.6778  1.5360
 7725TIP3    H244667   4.457   6.115  11.507  0.6417 -1.1021  0.4452
 7726TIP3   OH244668   6.415   1.356  13.541  0.2142  0.1228  0.2195
 7726TIP3    H144669   6.340   1.305  13.571 -0.0659 -0.8480 -2.0201
 7726TIP3    H244670   6.465   1.297  13.485  0.5350  1.9082 -1.4854
 7727TIP3   OH244671   3.135   1.966   1.165  0.0235 -0.0507 -0.4969
 7727TIP3    H144672   3.218   1.976   1.212  0.6095  2.4984 -1.8869
 7727TIP3    H244673   3.083   2.041   1.193 -0.5941  0.0879 -1.9640
 7728TIP3   OH244674   3.017   2.864   1.362 -0.4675 -0.1546 -0.4662
 7728TIP3    H144675   3.084   2.801   1.338 -0.4436 -0.1901 -0.3031
 7728TIP3    H244676   2.948   2.812   1.403  0.1428  0.0818  0.9060
 7729TIP3   OH244677   5.669   1.096   0.195  0.6043  0.0043 -0.0140
 7729TIP3    H144678   5.634   1.050   0.119  1.4308 -2.1766  0.8693
 7729TIP3    H244679   5.615   1.066   0.268  2.4195 -1.1844  0.8981
 7730TIP3   OH244680   4.117   0.075   5.302 -0.1253 -0.1427  0.6733
 7730TIP3    H144681   4.136   0.163   5.335 -4.1025  1.4146 -0.5511
 7730TIP3    H244682   4.185   0.058   5.237  0.1644  2.5486  0.1772
 7731TIP3   OH244683   1.465   0.405  15.597 -0.2669  0.0350  0.4461
 7731TIP3    H144684   1.379   0.444  15.605 -0.6846 -1.0699  1.5588
 7731TIP3    H244685   1.523   0.478  15.575 -1.3207  0.9414  0.6212
 7732TIP3   OH244686   4.909   4.426   1.512  0.1818 -0.7739 -0.7047
 7732TIP3    H144687   4.819   4.436   1.481  0.3865 -0.1419 -1.1143
 7732TIP3    H244688   4.925   4.505   1.564  0.6592 -0.6397 -1.0509
 7733TIP3   OH244689   4.388   0.233  11.623 -0.5754 -0.3625  0.3857
 7733TIP3    H144690   4.438   0.247  11.703  0.9176  0.7018 -0.6772
 7733TIP3    H244691   4.444   0.267  11.553 -0.9734 -2.9689 -1.3489
 7734TIP3   OH244692   3.888   1.478  14.253 -0.0819 -0.1835  0.2041
 7734TIP3    H144693   3.966   1.470  14.198 -1.5420 -2.5710 -1.7559
 7734TIP3    H244694   3.883   1.395  14.299 -2.6752 -1.1320 -1.5801
 7735TIP3   OH244695   4.584   4.633  11.744  1.1134 -0.2555 -0.1482
 7735TIP3    H144696   4.571   4.570  11.815  0.3840  0.0213 -0.0249
 7735TIP3    H244697   4.544   4.592  11.668  1.4688 -0.3435 -0.2896
 7736TIP3   OH244698   6.832   1.372  12.179  0.6092  0.1055 -0.2415
 7736TIP3    H144699   6.921   1.406  12.173  0.7100 -0.1969 -0.5103
 7736TIP3    H244700   6.843   1.277  12.180  0.3158  0.0725  0.2269
 7737TIP3   OH244701   0.619   4.861  13.795  0.3804  0.1550 -0.4560
 7737TIP3    H144702   0.583   4.796  13.734  0.9009  0.1875 -0.7997
 7737TIP3    H244703   0.570   4.941  13.776 -0.5258 -0.2169  0.2223
 7738TIP3   OH244704   5.730   2.036  13.527 -0.5945  0.4180 -0.0141
 7738TIP3    H144705   5.755   2.126  13.544  0.7893 -0.1679  1.3816
 7738TIP3    H244706   5.700   2.035  13.437  0.8169  1.9955 -0.5388
 7739TIP3   OH244707   2.859   2.155   4.338  0.2873 -0.4427  0.1388
 7739TIP3    H144708   2.896   2.070   4.362  0.4338 -0.4311 -0.0493
 7739TIP3    H244709   2.904   2.218   4.396  0.1612 -0.4939  0.2949
 7740TIP3   OH244710   3.092   1.875   5.505  0.5034  0.4713 -0.5586
 7740TIP3    H144711   3.086   1.864   5.410  0.5973 -1.1468 -0.4056
 7740TIP3    H244712   3.076   1.968   5.519  1.0026  0.8458 -2.1983
 7741TIP3   OH244713   2.460   4.883   4.404  0.1390 -0.3810 -0.0343
 7741TIP3    H144714   2.437   4.793   4.380  0.6458 -0.2861 -0.9275
 7741TIP3    H244715   2.489   4.876   4.495 -0.5752 -0.9796  0.1649
 7742TIP3   OH244716   0.432   4.510   5.613  0.3539 -0.3042 -0.2786
 7742TIP3    H144717   0.500   4.446   5.634  0.2624 -0.2483  0.2186
 7742TIP3    H244718   0.453   4.586   5.667 -0.1381 -0.3144 -0.0678
 7743TIP3   OH244719   3.530   0.724  14.254  0.7714 -0.3948  0.1981
 7743TIP3    H144720   3.476   0.779  14.197 -2.1854 -0.9347  2.2452
 7743TIP3    H244721   3.600   0.782  14.285 -0.2964  1.2258 -0.3147
 7744TIP3   OH244722   4.408   1.622   0.413 -0.5271  0.1643 -0.1943
 7744TIP3    H144723   4.451   1.653   0.493  1.2186  0.5591 -1.2264
 7744TIP3    H244724   4.468   1.647   0.342 -2.1505  0.0746 -1.6716
 7745TIP3   OH244725   5.071   1.570  11.916 -0.6524  0.3753 -0.1048
 7745TIP3    H144726   5.154   1.530  11.889 -0.5910  0.1190  0.4452
 7745TIP3    H244727   5.011   1.552  11.844 -0.2487  0.5114 -0.4801
 7746TIP3   OH244728   3.820   0.555   4.593  0.4341  0.0034  0.2583
 7746TIP3    H144729   3.846   0.604   4.514 -0.7178  0.4470  0.1399
 7746TIP3    H244730   3.800   0.623   4.657  1.1853 -0.3563  0.8900
 7747TIP3   OH244731   0.679   4.336  10.538  0.0408 -0.5503 -0.0955
 7747TIP3    H144732   0.756   4.392  10.526  0.2830 -0.9483 -0.4240
 7747TIP3    H244733   0.613   4.394  10.575  0.1198  0.0905 -0.9207
 7748TIP3   OH244734   4.632   5.493   4.453 -0.1995  0.1069 -0.1464
 7748TIP3    H144735   4.617   5.471   4.361 -1.7053 -0.4593  0.2115
 7748TIP3    H244736   4.557   5.547   4.477  0.8001  1.2906  0.4451
 7749TIP3   OH244737   6.315   6.319  14.093  0.6172 -0.4550  0.4312
 7749TIP3    H144738   6.407   6.330  14.119  0.1894 -1.3337  2.5288
 7749TIP3    H244739   6.265   6.350  14.168 -0.7544 -2.6371  0.5147
 7750TIP3   OH244740   3.663   2.781   4.077 -0.4860  0.0105  0.3482
 7750TIP3    H144741   3.748   2.737   4.073 -0.9990 -1.0635  0.9140
 7750TIP3    H244742   3.601   2.718   4.041 -0.9001  1.2740 -1.3034
 7751TIP3   OH244743   0.496   2.697  13.294 -0.3003  0.1931 -0.1493
 7751TIP3    H144744   0.518   2.696  13.200 -0.7811  0.7161 -0.2724
 7751TIP3    H244745   0.417   2.644  13.300 -0.3495  0.2790 -0.0557
 7752TIP3   OH244746   6.779   4.431   3.103 -0.3926 -0.1031  0.2979
 7752TIP3    H144747   6.789   4.371   3.029 -0.6721  0.0375  0.1442
 7752TIP3    H244748   6.773   4.518   3.062 -1.0221 -0.0711  0.4579
 7753TIP3   OH244749   2.472   2.813   3.557 -0.2049 -0.1096 -0.1908
 7753TIP3    H144750   2.473   2.901   3.520  0.9981  0.5424  1.3034
 7753TIP3    H244751   2.419   2.762   3.495  0.8670  1.1343 -2.2684
 7754TIP3   OH244752   5.594   2.555  10.626  0.0067 -0.3232 -0.3743
 7754TIP3    H144753   5.512   2.554  10.578 -0.0580 -1.8332 -0.2756
 7754TIP3    H244754   5.597   2.641  10.668 -0.1561  0.8609 -2.6678
 7755TIP3   OH244755   3.149   5.185   3.116  0.2177 -0.1568  1.0235
 7755TIP3    H144756   3.148   5.097   3.078  0.6574  0.4290 -0.3984
 7755TIP3    H244757   3.230   5.224   3.084 -0.7602  1.3413  0.2907
 7756TIP3   OH244758   1.257   0.068   1.861 -0.0501  0.0512 -0.0318
 7756TIP3    H144759   1.212   0.028   1.935  0.7951 -0.9806 -0.0428
 7756TIP3    H244760   1.263  -0.003   1.796 -1.1652  1.0530 -1.2677
 7757TIP3   OH244761   0.378   6.781   1.743  0.0703 -0.1375  0.0063
 7757TIP3    H144762   0.434   6.765   1.667 -1.2094  0.7649 -1.1809
 7757TIP3    H244763   0.355   6.874   1.736  0.5054  0.1666  1.9417
 7758TIP3   OH244764   4.355   3.471   1.152  0.0194 -0.0514 -0.0071
 7758TIP3    H144765   4.351   3.555   1.108  1.2156 -0.5845 -1.2044
 7758TIP3    H244766   4.268   3.433   1.139 -1.0592  1.6089  1.9115
 7759TIP3   OH244767   0.947   5.915  11.486 -0.4992  0.3951  0.0196
 7759TIP3    H144768   0.851   5.911  11.477 -0.6464  2.4471  0.0943
 7759TIP3    H244769   0.964   6.005  11.516  1.4252 -0.0869  0.4987
 7760TIP3   OH244770   2.543   6.798   5.400  0.0259  0.3420  0.6055
 7760TIP3    H144771   2.472   6.785   5.463  1.3536 -1.3237  1.8907
 7760TIP3    H244772   2.578   6.884   5.421  0.5901 -0.2676  2.4060
 7761TIP3   OH244773   4.376   2.788   2.377 -0.3691 -0.0636 -0.6770
 7761TIP3    H144774   4.338   2.852   2.318 -2.3534  1.4368  1.9933
 7761TIP3    H244775   4.320   2.711   2.369 -0.0554 -0.2257 -1.3887
 7762TIP3   OH244776   6.303   5.065   4.673 -0.1711 -0.0505  0.3501
 7762TIP3    H144777   6.344   5.012   4.604 -0.4571 -0.4695  0.4961
 7762TIP3    H244778   6.297   5.006   4.748 -1.8340 -0.2969  0.0708
 7763TIP3   OH244779   3.768   5.850   0.214  0.4190  0.1226 -0.1065
 7763TIP3    H144780   3.840   5.823   0.157  0.4833  0.1171 -0.0234
 7763TIP3    H244781   3.804   5.842   0.302  0.3070  0.0951 -0.0639
 7764TIP3   OH244782   1.568   6.764   0.208  0.3890  0.4255 -0.3280
 7764TIP3    H144783   1.659   6.765   0.178  0.4812  1.1275 -0.0263
 7764TIP3    H244784   1.519   6.800   0.134  0.3265 -0.1567 -0.5747
 7765TIP3   OH244785   2.530   2.421   0.654 -0.1557  0.3106  0.3283
 7765TIP3    H144786   2.549   2.511   0.627 -0.8119  1.1216  2.3391
 7765TIP3    H244787   2.443   2.402   0.618 -0.4057  0.8358  0.6437
 7766TIP3   OH244788   4.604   2.466   2.205  0.3638  0.4417  0.5741
 7766TIP3    H144789   4.618   2.436   2.295 -0.7640 -0.2071  0.5550
 7766TIP3    H244790   4.528   2.417   2.176  2.1875 -1.2918 -1.6318
 7767TIP3   OH244791   0.829   1.873  12.816  0.2545  0.2149  0.0725
 7767TIP3    H144792   0.767   1.916  12.757  0.6442 -0.2066 -0.6671
 7767TIP3    H244793   0.891   1.830  12.757 -0.0213 -1.2020  0.7903
 7768TIP3   OH244794   4.040   4.279   0.139 -0.2999 -0.2215 -0.1835
 7768TIP3    H144795   4.070   4.310   0.224  0.1934  0.5673 -0.6335
 7768TIP3    H244796   4.008   4.358   0.094 -0.4613 -0.6090 -0.7703
 7769TIP3   OH244797   2.235   3.330  16.857  0.2543 -0.5819 -0.0644
 7769TIP3    H144798   2.269   3.354  16.771 -0.6019  1.7581  0.1672
 7769TIP3    H244799   2.142   3.313  16.842  0.0836 -0.0790  0.3831
 7770TIP3   OH244800   4.449   6.277   3.759  0.0975 -0.7528 -0.3242
 7770TIP3    H144801   4.357   6.279   3.733  0.2749 -2.6454 -1.3334
 7770TIP3    H244802   4.479   6.367   3.753 -1.3611 -0.3135 -1.2618
 7771TIP3   OH244803   3.114   5.061   1.124  0.4956  0.6126 -0.2275
 7771TIP3    H144804   3.190   5.063   1.182 -0.1425 -0.2277  0.6738
 7771TIP3    H244805   3.056   5.128   1.159  0.3914  0.5655 -0.3097
 7772TIP3   OH244806   2.622   1.141  17.034  0.4535  0.2457  0.4013
 7772TIP3    H144807   2.701   1.173  17.078  0.3016 -0.3240  1.1079
 7772TIP3    H244808   2.647   1.054  17.002  0.1753  0.1484  0.4510
 7773TIP3   OH244809   5.383   2.776  16.123  0.6384 -0.3594 -0.2994
 7773TIP3    H144810   5.408   2.840  16.056 -1.9226  0.3522 -0.7135
 7773TIP3    H244811   5.464   2.753  16.167  1.6654  3.3692  0.0249
 7774TIP3   OH244812   0.146   3.161  13.291 -0.4344 -0.1519  0.2788
 7774TIP3    H144813   0.194   3.239  13.262 -0.1634 -1.1119 -2.0816
 7774TIP3    H244814   0.055   3.180  13.269 -0.4486 -0.2665  0.2389
 7775TIP3   OH244815   5.911   2.245  14.428 -0.2852  0.0185 -0.2466
 7775TIP3    H144816   5.955   2.186  14.489  0.2526  0.0993 -0.5542
 7775TIP3    H244817   5.874   2.186  14.361 -0.3741 -0.0258 -0.1583
 7776TIP3   OH244818   6.180   5.937   1.137  0.1909 -0.4714 -0.0877
 7776TIP3    H144819   6.096   5.895   1.153  0.2887 -1.1353 -1.2523
 7776TIP3    H244820   6.174   6.021   1.184 -0.6469 -1.0267  0.8328
 7777TIP3   OH244821   6.824   2.341   2.630  0.0761  0.3274  0.1818
 7777TIP3    H144822   6.891   2.383   2.577  1.2587 -0.3033  1.1252
 7777TIP3    H244823   6.829   2.248   2.606 -0.0537  0.1881  0.6870
 7778TIP3   OH244824   5.243   6.096  12.219  0.0276  0.2541 -0.1336
 7778TIP3    H144825   5.302   6.020  12.213 -0.0599  0.2335 -0.8146
 7778TIP3    H244826   5.160   6.064  12.183 -0.5970  0.1010  1.3890
 7779TIP3   OH244827   1.349   1.856   5.201  0.3274  0.0788 -0.0035
 7779TIP3    H144828   1.274   1.803   5.172  0.4119 -0.7464  1.2012
 7779TIP3    H244829   1.423   1.796   5.199  1.0363  0.9545 -1.4126
 7780TIP3   OH244830   5.286   4.564   5.769  0.1455 -0.5493 -0.1123
 7780TIP3    H144831   5.312   4.528   5.854  0.5036 -0.6674 -0.2712
 7780TIP3    H244832   5.341   4.518   5.705  1.1809  0.8228 -0.2530
 7781TIP3   OH244833   5.709   2.106   5.398  0.8042 -0.1543  0.0598
 7781TIP3    H144834   5.720   2.167   5.471 -2.1736 -1.0818  1.4361
 7781TIP3    H244835   5.638   2.048   5.425  2.0656 -2.9498 -2.0600
 7782TIP3   OH244836   2.371   6.713  16.225 -0.1947 -0.7159  0.7176
 7782TIP3    H144837   2.369   6.624  16.191  1.2557 -0.5311  0.0715
 7782TIP3    H244838   2.379   6.769  16.147 -0.7984 -0.0432  1.1270
 7783TIP3   OH244839   6.005   4.795  11.831  0.1144  0.3030  0.8058
 7783TIP3    H144840   6.023   4.714  11.877 -0.1274  0.3432  0.9708
 7783TIP3    H244841   6.057   4.790  11.751 -2.5239 -1.6070 -0.9681
 7784TIP3   OH244842   1.718   3.424   1.849 -0.1395  0.3135 -0.0975
 7784TIP3    H144843   1.652   3.397   1.785 -0.2600 -0.9129  0.5136
 7784TIP3    H244844   1.802   3.403   1.809 -0.2176 -0.5445  0.1626
 7785TIP3   OH244845   6.414   6.217   1.083 -0.4527 -0.0211 -0.1691
 7785TIP3    H144846   6.407   6.149   1.016 -1.2108 -1.0177  0.8664
 7785TIP3    H244847   6.323   6.238   1.106 -0.2113  0.7184  0.1303
 7786TIP3   OH244848   0.590   2.408  12.018  0.1542  0.0878  0.8373
 7786TIP3    H144849   0.601   2.473  11.948  2.2788 -1.4320 -0.3834
 7786TIP3    H244850   0.674   2.409  12.065 -0.3102 -0.7206  1.7264
 7787TIP3   OH244851   2.910   2.116   2.002  0.4418 -0.1431 -0.7544
 7787TIP3    H144852   2.899   2.194   1.948 -0.7792  0.8576  0.8405
 7787TIP3    H244853   3.004   2.102   2.006  0.7981  2.1795  0.1640
 7788TIP3   OH244854   2.884   2.802   0.353  0.4218 -0.0551  0.8753
 7788TIP3    H144855   2.873   2.869   0.285 -1.4745 -1.9488 -0.8124
 7788TIP3    H244856   2.845   2.841   0.431 -0.1023  1.0328  0.0930
 7789TIP3   OH244857   0.610   4.025  11.419  0.1316 -0.3193 -0.4454
 7789TIP3    H144858   0.615   3.937  11.382 -0.6036 -0.8972  0.7709
 7789TIP3    H244859   0.518   4.050  11.409  0.5532  0.8048 -1.8302
 7790TIP3   OH244860   3.160   3.384  15.403  0.4676 -0.2314  0.4478
 7790TIP3    H144861   3.221   3.423  15.341 -0.0257  1.1078  0.7631
 7790TIP3    H244862   3.215   3.349  15.473  1.0582 -2.1067 -0.8660
 7791TIP3   OH244863   1.275   5.713  17.079 -0.1720 -0.0848  0.7517
 7791TIP3    H144864   1.272   5.776  17.007 -2.2433  0.0369  0.8828
 7791TIP3    H244865   1.335   5.752  17.143  1.5975 -0.1345 -0.8019
 7792TIP3   OH244866   6.151   4.701  16.589 -0.3741  0.0279 -0.5177
 7792TIP3    H144867   6.210   4.741  16.653  1.5542 -2.1306 -0.7789
 7792TIP3    H244868   6.124   4.773  16.532  1.3823  1.2709  0.1353
 7793TIP3   OH244869   4.848   4.134  16.649 -0.0200 -0.3050  0.2231
 7793TIP3    H144870   4.859   4.181  16.732 -0.0909  0.8770 -0.4143
 7793TIP3    H244871   4.790   4.190  16.597 -0.6790 -1.4533 -0.2988
 7794TIP3   OH244872   4.228   0.763   4.379  0.2701 -0.8102  0.0684
 7794TIP3    H144873   4.151   0.786   4.431  0.7186 -3.4166  2.1144
 7794TIP3    H244874   4.300   0.811   4.420 -0.0502  0.8787 -1.2489
 7795TIP3   OH244875   6.387   1.122  10.528  0.1014  0.7280  0.1824
 7795TIP3    H144876   6.382   1.179  10.451 -1.8759 -0.5990 -0.7640
 7795TIP3    H244877   6.303   1.135  10.573  0.3234 -0.1621  0.8934
 7796TIP3   OH244878   2.764   4.787   0.427  0.1027  0.1054 -0.0253
 7796TIP3    H144879   2.712   4.837   0.490  2.1388  2.8974 -0.4107
 7796TIP3    H244880   2.811   4.722   0.481 -2.6131 -1.6124  0.4654
 7797TIP3   OH244881   4.870   2.021  11.905  0.1639 -0.2731  0.1688
 7797TIP3    H144882   4.886   1.980  11.819 -0.5565 -0.0567 -0.0754
 7797TIP3    H244883   4.958   2.037  11.940  0.5095  1.1054 -1.2341
 7798TIP3   OH244884   6.613   3.023  14.309  0.8713 -0.2788 -0.2092
 7798TIP3    H144885   6.653   3.082  14.373 -1.6551  1.4994 -0.1154
 7798TIP3    H244886   6.632   2.935  14.342  2.2060  0.5203  1.3011
 7799TIP3   OH244887   6.777   2.167  11.168  0.0599  0.1784 -0.0173
 7799TIP3    H144888   6.706   2.103  11.162  1.3017 -1.4160  1.1746
 7799TIP3    H244889   6.841   2.138  11.104  0.4707  0.4461  0.2689
 7800TIP3   OH244890   3.185   3.009   0.970  0.1406  0.4064  0.1318
 7800TIP3    H144891   3.177   3.094   0.926 -0.2117  0.4363  0.2562
 7800TIP3    H244892   3.148   2.947   0.908 -2.4962  0.7066  1.2669
 7801TIP3   OH244893   3.725   0.224  16.442 -0.8904  0.2141 -0.6417
 7801TIP3    H144894   3.719   0.320  16.446  0.5053  0.3263 -0.9557
 7801TIP3    H244895   3.653   0.194  16.498  0.6767  1.4858  2.2783
 7802TIP3   OH244896   6.800   5.628   4.719 -0.0712 -0.2869 -0.8238
 7802TIP3    H144897   6.721   5.576   4.729 -0.1293 -0.2086 -0.8797
 7802TIP3    H244898   6.774   5.703   4.667 -0.8961  1.7650  2.2754
 7803TIP3   OH244899   3.713   3.023   5.642 -0.1162 -0.2428 -0.4315
 7803TIP3    H144900   3.681   2.964   5.574 -1.1317  0.9168 -0.9913
 7803TIP3    H244901   3.666   2.996   5.721  1.2527 -1.7549 -0.0839
 7804TIP3   OH244902   1.733   3.060  15.389  0.2501 -0.0354  0.0084
 7804TIP3    H144903   1.755   3.069  15.297  2.2200 -2.3321  0.1612
 7804TIP3    H244904   1.682   2.979  15.394  1.4079 -0.7363  1.0577
 7805TIP3   OH244905   5.568   4.618   1.636 -0.1618  0.0096  0.7649
 7805TIP3    H144906   5.555   4.600   1.543  0.6436  0.6819  0.5054
 7805TIP3    H244907   5.591   4.533   1.674 -1.9045 -0.5528  0.6404
 7806TIP3   OH244908   1.871   1.042  16.740  0.2087 -0.1505 -0.0998
 7806TIP3    H144909   1.918   1.030  16.657 -1.4783 -0.9559 -0.9802
 7806TIP3    H244910   1.789   1.085  16.715 -0.4155 -0.5964  1.1336
 7807TIP3   OH244911   6.445   4.249  12.767  0.0180  0.0777 -0.3695
 7807TIP3    H144912   6.505   4.305  12.718 -0.0130  0.9588  0.5612
 7807TIP3    H244913   6.410   4.189  12.702  0.2275  0.9874 -1.3540
 7808TIP3   OH244914   4.321   3.934  11.637  0.0221  0.1998  0.1789
 7808TIP3    H144915   4.242   3.956  11.687 -0.5615  0.7680 -0.9376
 7808TIP3    H244916   4.390   3.926  11.702 -0.7389  0.7581  1.0789
 7809TIP3   OH244917   4.359   4.130  13.861  0.1302  0.0627  0.3340
 7809TIP3    H144918   4.295   4.125  13.790  0.4089  1.2289 -0.0199
 7809TIP3    H244919   4.385   4.039  13.875  1.2011 -0.1040 -2.1144
 7810TIP3   OH244920   0.815   2.480  12.539  0.2416 -0.2538  0.6281
 7810TIP3    H144921   0.759   2.546  12.498 -2.4488 -1.6735  1.7192
 7810TIP3    H244922   0.882   2.461  12.474 -1.2227  0.7493 -1.2702
 7811TIP3   OH244923   2.004   4.747  16.543  0.1806 -0.6885  0.0370
 7811TIP3    H144924   1.955   4.830  16.538 -0.3375 -0.9410  0.7182
 7811TIP3    H244925   2.036   4.744  16.633  0.7085 -0.9521 -0.1550
 7812TIP3   OH244926   2.590   3.967   4.258  0.1933  0.4230  0.1662
 7812TIP3    H144927   2.612   3.908   4.187 -0.8721 -0.0566  0.2091
 7812TIP3    H244928   2.668   3.970   4.313  0.3075 -0.8472  0.0974
 7813TIP3   OH244929   0.713   0.782  13.271  0.1136 -0.5644 -0.2851
 7813TIP3    H144930   0.662   0.705  13.296  0.1829 -0.9322 -1.2405
 7813TIP3    H244931   0.803   0.759  13.291  0.1696 -0.8590 -0.8676
 7814TIP3   OH244932   6.273   5.989   0.321  0.0994 -0.3226  0.2037
 7814TIP3    H144933   6.254   6.067   0.268  2.0420 -0.3902 -0.6710
 7814TIP3    H244934   6.322   6.023   0.396  0.9168 -0.6638 -0.1603
 7815TIP3   OH244935   6.252   4.336   0.048 -0.6764 -0.5869  0.0490
 7815TIP3    H144936   6.260   4.256  -0.004 -1.4057 -0.7374  0.1549
 7815TIP3    H244937   6.233   4.405  -0.015  0.5858 -0.3646 -0.1175
 7816TIP3   OH244938   0.630   6.701  15.575 -0.0381 -0.2318 -0.0179
 7816TIP3    H144939   0.674   6.762  15.633 -0.5245 -0.5776  0.7347
 7816TIP3    H244940   0.567   6.755  15.526  1.5586  0.3620 -1.5141
 7817TIP3   OH244941   0.720   1.265  11.839 -0.2342 -0.1777 -0.3648
 7817TIP3    H144942   0.657   1.206  11.881 -0.1283  0.8103  1.2585
 7817TIP3    H244943   0.672   1.347  11.828 -0.9618 -0.9323 -4.2180
 7818TIP3   OH244944   1.333   3.990   2.545 -0.1282 -0.0402 -0.5813
 7818TIP3    H144945   1.293   3.924   2.601 -0.9359  0.7057 -0.2470
 7818TIP3    H244946   1.426   3.988   2.568 -0.6350  1.2379  1.8966
 7819TIP3   OH244947   1.280   3.290   2.235 -0.4064 -0.2727  0.2186
 7819TIP3    H144948   1.348   3.231   2.267 -0.5790 -1.0149 -0.7532
 7819TIP3    H244949   1.208   3.233   2.210 -1.0314  0.4392  0.3518
 7820TIP3   OH244950   2.578   1.608  15.085  0.3413  0.6696 -0.2796
 7820TIP3    H144951   2.589   1.666  15.161  0.4301  0.3942 -0.0815
 7820TIP3    H244952   2.564   1.668  15.012 -2.5120  0.9460  0.3594
 7821TIP3   OH244953   6.844   6.182   6.637 -0.1541 -0.4202  0.3047
 7821TIP3    H144954   6.838   6.271   6.672  2.4043 -0.3904  0.8295
 7821TIP3    H244955   6.819   6.191   6.545  2.0414  1.2892 -0.2045
 7822TIP3   OH244956   4.321   0.525  13.216  0.0254  0.3877  0.3971
 7822TIP3    H144957   4.364   0.470  13.151  0.3244  0.2771  0.6829
 7822TIP3    H244958   4.232   0.536  13.184  0.4220  1.1145 -0.5090
 7823TIP3   OH244959   5.046   3.257  12.092  0.2702 -0.0210 -0.0129
 7823TIP3    H144960   5.117   3.295  12.145  1.0593 -0.8106 -0.4782
 7823TIP3    H244961   4.966   3.288  12.134  0.8699  2.0784 -0.3129
 7824TIP3   OH244962   6.212   4.268   5.045  0.1928  0.2175 -0.2437
 7824TIP3    H144963   6.265   4.189   5.033  0.7456  0.3847  0.9981
 7824TIP3    H244964   6.137   4.239   5.097 -0.3117  0.2457 -0.9363
 7825TIP3   OH244965   0.184   4.292   0.874  0.1914  0.2761  0.0897
 7825TIP3    H144966   0.252   4.225   0.886 -0.3679 -0.2169  0.6368
 7825TIP3    H244967   0.232   4.371   0.849  0.9374 -0.1429  0.1493
 7826TIP3   OH244968   6.837   2.682  11.799  0.4797 -0.2415 -0.3392
 7826TIP3    H144969   6.876   2.768  11.785 -0.3387 -0.0955 -1.9814
 7826TIP3    H244970   6.743   2.700  11.805  0.3207 -1.0119 -0.4976
 7827TIP3   OH244971   0.561   3.444  14.198 -0.4172 -0.0647 -0.4430
 7827TIP3    H144972   0.574   3.350  14.213 -0.2980  0.0027 -0.1000
 7827TIP3    H244973   0.580   3.484  14.283 -0.7017  0.2487 -0.5267
 7828TIP3   OH244974   6.427   1.764   3.644  0.4859 -0.1431 -0.0555
 7828TIP3    H144975   6.421   1.730   3.555 -1.2397  3.0386 -1.3174
 7828TIP3    H244976   6.342   1.744   3.684  0.3488  0.5242  0.0066
 7829TIP3   OH244977   1.079   2.979  14.505  0.3003  0.0082 -0.4288
 7829TIP3    H144978   1.107   2.922  14.576 -1.3550  0.4221  0.6090
 7829TIP3    H244979   1.017   3.040  14.545 -0.4859  0.4314 -2.1615
 7830TIP3   OH244980   4.100   3.227  11.947 -0.1518  0.0158  0.2568
 7830TIP3    H144981   4.148   3.173  12.010 -0.5504  0.1275  0.6675
 7830TIP3    H244982   4.051   3.289  12.002  0.7989  1.2305 -0.2357
 7831TIP3   OH244983   0.570   4.048   5.836 -0.1590 -0.6035 -0.7414
 7831TIP3    H144984   0.580   4.070   5.743  0.4951  2.1653 -0.1165
 7831TIP3    H244985   0.654   4.010   5.860  0.3626  0.4044 -0.9033
 7832TIP3   OH244986   3.431   5.856  14.290  0.0399 -0.1649 -0.2181
 7832TIP3    H144987   3.456   5.901  14.209 -1.1751  1.4902  0.2819
 7832TIP3    H244988   3.497   5.884  14.353  1.0854 -1.5868 -0.6227
 7833TIP3   OH244989   5.612   1.043   3.944 -0.3194 -1.1578 -0.2447
 7833TIP3    H144990   5.677   1.078   4.006  0.1712 -0.8137 -0.9472
 7833TIP3    H244991   5.664   1.008   3.872 -0.7749 -3.5127  0.4831
 7834TIP3   OH244992   2.151   0.138  14.079  0.5451  0.1084  0.2059
 7834TIP3    H144993   2.140   0.197  14.154  1.9721  1.8545 -0.8655
 7834TIP3    H244994   2.146   0.050  14.117 -0.8457  0.8960  2.0068
 7835TIP3   OH244995   3.016   0.381  10.992  0.0507 -0.1875  0.4703
 7835TIP3    H144996   3.039   0.395  10.900 -2.2929 -0.7547 -0.2547
 7835TIP3    H244997   3.073   0.309  11.020  0.3457 -0.4383 -0.7318
 7836TIP3   OH244998   2.694   4.525  15.924  0.2219 -0.1397 -0.3479
 7836TIP3    H144999   2.649   4.588  15.981 -2.1395 -0.7557 -1.4165
 7836TIP3    H245000   2.742   4.579  15.862  0.2625  0.5631  0.2823
 7837TIP3   OH245001   0.499   5.348  17.186  0.1878  0.0874 -0.0030
 7837TIP3    H145002   0.422   5.294  17.168 -0.5885  1.0961  0.1386
 7837TIP3    H245003   0.538   5.365  17.100 -2.3599  3.2434 -0.7700
 7838TIP3   OH245004   0.849   1.996   5.009  0.5310  0.0573  0.2703
 7838TIP3    H145005   0.830   2.080   5.051  2.6392  0.3596  0.7221
 7838TIP3    H245006   0.779   1.985   4.945 -1.2663  0.8688  2.0109
 7839TIP3   OH245007   6.729   0.456   4.348 -0.1902  0.2421  0.1417
 7839TIP3    H145008   6.696   0.416   4.267  0.7804  0.0565 -0.1808
 7839TIP3    H245009   6.821   0.428   4.352  0.5542  2.4507 -0.1202
 7840TIP3   OH245010   6.808   1.672   0.646 -0.1304 -0.0343  0.6411
 7840TIP3    H145011   6.877   1.609   0.624  0.6489  0.6345  1.0951
 7840TIP3    H245012   6.748   1.670   0.572 -0.6284 -1.9898  1.0439
 7841TIP3   OH245013   3.442   4.428   2.192 -0.2943  0.2875  0.4490
 7841TIP3    H145014   3.515   4.435   2.253 -0.6235  0.5203  0.8154
 7841TIP3    H245015   3.365   4.456   2.242 -0.4194  1.4511 -0.3654
 7842TIP3   OH245016   1.392   4.113  15.156  0.3197 -0.0011 -0.0165
 7842TIP3    H145017   1.473   4.128  15.205  1.3257 -1.4719 -1.1512
 7842TIP3    H245018   1.421   4.083  15.070 -1.4276  0.9149 -0.9833
 7843TIP3   OH245019   2.257   3.120  12.250 -0.3195 -0.0454  0.1524
 7843TIP3    H145020   2.307   3.148  12.173  0.3626 -1.8568 -0.0990
 7843TIP3    H245021   2.202   3.048  12.218  0.4652 -1.2795  1.4726
 7844TIP3   OH245022   2.660   0.860   6.469  0.5208  0.3436 -0.6627
 7844TIP3    H145023   2.741   0.862   6.417  0.7318  2.8632 -0.3194
 7844TIP3    H245024   2.618   0.943   6.451 -0.4337  0.4215  1.6339
 7845TIP3   OH245025   1.239   6.713   2.608  0.0702  0.4402 -0.0975
 7845TIP3    H145026   1.293   6.791   2.624  0.0748  0.3831  0.1645
 7845TIP3    H245027   1.211   6.722   2.517 -0.0042  0.7937 -0.0403
 7846TIP3   OH245028   0.785   1.629  15.411 -0.5210 -0.0311  0.5309
 7846TIP3    H145029   0.702   1.585  15.429 -0.8605  0.6252  0.5935
 7846TIP3    H245030   0.822   1.648  15.497 -1.5304  1.9498  0.5751
 7847TIP3   OH245031   6.203   5.880   5.408 -0.2384 -0.3069 -0.1634
 7847TIP3    H145032   6.139   5.864   5.339  0.1670 -1.1766 -0.3648
 7847TIP3    H245033   6.233   5.969   5.394  1.2035 -1.0571 -2.3001
 7848TIP3   OH245034   0.710   3.553   4.184  0.2142 -0.0523 -0.1599
 7848TIP3    H145035   0.670   3.640   4.192  1.0169  0.3797 -0.7888
 7848TIP3    H245036   0.653   3.506   4.124 -1.0628 -0.4842  1.3070
 7849TIP3   OH245037   4.741   1.031   5.405 -0.0912 -0.4829 -0.1136
 7849TIP3    H145038   4.735   1.056   5.497  0.6504 -2.2593  0.4716
 7849TIP3    H245039   4.834   1.034   5.385 -0.2630  0.0689 -0.8711
 7850TIP3   OH245040   1.198   0.530   1.125 -0.3878 -0.3046 -1.0739
 7850TIP3    H145041   1.285   0.552   1.157 -0.7893  1.1432 -0.9403
 7850TIP3    H245042   1.139   0.556   1.195 -0.9923 -0.6347 -1.4515
 7851TIP3   OH245043   5.671   2.079  13.917 -0.2443  0.0070  0.4973
 7851TIP3    H145044   5.594   2.063  13.861  0.1399 -3.3043  0.6946
 7851TIP3    H245045   5.664   2.171  13.942 -1.9729  0.8934 -2.6815
 7852TIP3   OH245046   1.509   5.020  11.371  0.0908  0.4072  0.1544
 7852TIP3    H145047   1.591   5.070  11.362 -0.9144  2.1135 -0.0408
 7852TIP3    H245048   1.440   5.086  11.364 -1.3927 -1.2311 -1.7814
 7853TIP3   OH245049   1.064   6.313  12.601 -0.1384  0.0688 -0.3379
 7853TIP3    H145050   1.104   6.328  12.687  0.4090  0.5177 -0.6651
 7853TIP3    H245051   0.973   6.339  12.612  0.0254  0.4994  0.0011
 7854TIP3   OH245052   1.467   5.254  13.501  0.0305 -0.5084 -0.2073
 7854TIP3    H145053   1.461   5.264  13.596 -0.9314  2.1426 -0.4607
 7854TIP3    H245054   1.394   5.196  13.478  0.2634 -1.1552  0.6655
 7855TIP3   OH245055   0.881   4.840  11.591 -0.1109 -0.2281  0.3663
 7855TIP3    H145056   0.792   4.848  11.558  0.7884  1.4781 -1.9044
 7855TIP3    H245057   0.875   4.865  11.684 -1.9231  0.2199  0.1602
 7856TIP3   OH245058   6.333   5.580  17.179  0.1010 -0.4139 -0.6499
 7856TIP3    H145059   6.427   5.596  17.173  0.2088 -0.3804  0.6828
 7856TIP3    H245060   6.326   5.488  17.205 -0.1196  0.0983  1.2725
 7857TIP3   OH245061   6.211   5.107  14.061  0.7962  0.3632 -0.5687
 7857TIP3    H145062   6.226   5.046  14.134 -1.8524  0.7203  0.3876
 7857TIP3    H245063   6.202   5.051  13.984  1.5540 -0.1886 -0.2679
 7858TIP3   OH245064   0.869   1.600   4.269 -0.4617  0.3132 -0.2065
 7858TIP3    H145065   0.861   1.593   4.174  0.1093 -2.3553 -0.1412
 7858TIP3    H245066   0.952   1.646   4.282 -0.4551  0.5426 -0.9753
 7859TIP3   OH245067   6.432   6.491  15.568  0.1940  0.3847 -0.3267
 7859TIP3    H145068   6.489   6.462  15.496 -0.8895  2.1860 -2.0134
 7859TIP3    H245069   6.490   6.540  15.626  0.6228  1.0767 -1.3227
 7860TIP3   OH245070   4.504   4.738  12.101  0.0938 -0.1224 -0.8418
 7860TIP3    H145071   4.527   4.650  12.071  0.4443  0.0635 -1.1285
 7860TIP3    H245072   4.579   4.792  12.076  0.5514 -0.0167  0.6581
 7861TIP3   OH245073   6.235   3.039  13.371  0.0010  0.1517  0.1981
 7861TIP3    H145074   6.275   3.036  13.458 -0.3707  1.1189  0.4092
 7861TIP3    H245075   6.142   3.054  13.387 -0.0989  0.1685 -0.3685
 7862TIP3   OH245076   5.833   6.343  16.780  0.7750  0.0002 -0.2940
 7862TIP3    H145077   5.810   6.310  16.867  1.2432 -0.2003 -0.2438
 7862TIP3    H245078   5.923   6.374  16.788  0.0672  2.1697 -0.0939
 7863TIP3   OH245079   4.189   1.974  16.853 -0.6285  0.3486  0.3934
 7863TIP3    H145080   4.135   1.990  16.775 -1.0496 -3.4241 -0.3107
 7863TIP3    H245081   4.268   2.026  16.839 -1.2694  0.8157 -1.8925
 7864TIP3   OH245082   0.229   2.394  16.495 -0.4092 -0.2355  0.5498
 7864TIP3    H145083   0.193   2.386  16.584 -1.9597 -1.0206 -0.1015
 7864TIP3    H245084   0.186   2.324  16.446  0.5792  0.0548 -0.7784
 7865TIP3   OH245085   4.595   4.297  13.595 -0.4807  0.2939 -0.1268
 7865TIP3    H145086   4.628   4.355  13.527 -1.4369  0.5504 -0.3926
 7865TIP3    H245087   4.617   4.341  13.678 -2.1547  1.6131 -0.3345
 7866TIP3   OH245088   2.822   6.125   5.018  0.0405  0.1664 -0.5331
 7866TIP3    H145089   2.857   6.067   5.086 -1.1918 -0.5357 -0.4807
 7866TIP3    H245090   2.869   6.207   5.030  1.7249 -0.7432 -0.4999
 7867TIP3   OH245091   1.459   0.837  13.756 -0.0509  0.5043  0.1144
 7867TIP3    H145092   1.505   0.918  13.781 -0.6064  0.7630  0.3186
 7867TIP3    H245093   1.516   0.767  13.787  0.3253  0.8162  0.1482
 7868TIP3   OH245094   6.352   4.240   6.641  0.6707 -0.0867 -0.1992
 7868TIP3    H145095   6.395   4.163   6.680  0.3419 -0.7073 -1.0262
 7868TIP3    H245096   6.416   4.273   6.578  0.0049 -0.9567 -1.3669
 7869TIP3   OH245097   6.632   1.786  16.737  0.7344  0.1792  0.0778
 7869TIP3    H145098   6.721   1.767  16.706  0.6338 -0.3914  0.1257
 7869TIP3    H245099   6.639   1.782  16.832  0.3299 -1.4478  0.0586
 7870TIP3   OH245100   2.166   1.408  13.219 -0.7296 -0.4563 -0.9402
 7870TIP3    H145101   2.070   1.411  13.214 -1.1822 -0.3262  3.5103
 7870TIP3    H245102   2.187   1.314  13.213 -1.7895 -1.0697  2.4524
 7871TIP3   OH245103   1.483   2.727  12.604 -0.2804 -0.2008 -0.1426
 7871TIP3    H145104   1.504   2.634  12.599 -0.8019 -0.3291  0.0424
 7871TIP3    H245105   1.388   2.731  12.595 -0.3722  0.2284  0.8659
 7872TIP3   OH245106   0.661   3.849  13.047  0.0979 -0.1474  0.1138
 7872TIP3    H145107   0.647   3.873  12.956  1.4685 -0.0034 -0.0796
 7872TIP3    H245108   0.616   3.916  13.097 -0.3309 -0.0079 -0.4499
 7873TIP3   OH245109   5.573   3.189  15.295  0.0723 -0.1608 -0.0451
 7873TIP3    H145110   5.641   3.134  15.256 -0.5156  0.5558 -2.2225
 7873TIP3    H245111   5.502   3.188  15.231 -0.7022  1.6124  0.7318
 7874TIP3   OH245112   0.233   4.630   4.930 -0.4472  0.0960 -0.1712
 7874TIP3    H145113   0.289   4.615   4.854 -0.8731  1.0345 -0.6945
 7874TIP3    H245114   0.245   4.553   4.985  1.0693  0.1254 -0.4407
 7875TIP3   OH245115   4.006   4.651  15.968  0.0512  0.2636  0.1455
 7875TIP3    H145116   3.945   4.704  16.018  1.4337 -0.4096  2.7141
 7875TIP3    H245117   3.971   4.651  15.879 -4.1176 -0.7274  1.5739
 7876TIP3   OH245118   1.162   4.484  10.876  0.3407  0.7358 -0.2634
 7876TIP3    H145119   1.229   4.447  10.818 -1.2784 -2.9717 -0.0929
 7876TIP3    H245120   1.198   4.473  10.964  0.3500  0.6745 -0.2746
 7877TIP3   OH245121   0.330   4.023   0.105 -0.0764 -0.7776  0.6697
 7877TIP3    H145122   0.358   3.932   0.114  0.8420 -0.4434  1.3329
 7877TIP3    H245123   0.378   4.070   0.173 -0.6169  0.1889  0.4058
 7878TIP3   OH245124   6.714   0.823   5.973  0.0308  0.1636 -0.1658
 7878TIP3    H145125   6.645   0.792   6.032 -1.4722  0.3226 -1.7447
 7878TIP3    H245126   6.783   0.855   6.031 -1.0910 -0.2874  1.4907
 7879TIP3   OH245127   2.957   6.345   5.107 -0.3064 -0.5795 -0.2610
 7879TIP3    H145128   3.009   6.424   5.120 -1.6018  0.1653  0.6654
 7879TIP3    H245129   2.949   6.307   5.195 -2.0277 -0.1775 -0.1933
 7880TIP3   OH245130   4.222   1.138  13.935  0.0286  0.0836 -0.5916
 7880TIP3    H145131   4.241   1.080  13.861 -1.4779 -0.5785 -0.5013
 7880TIP3    H245132   4.127   1.149  13.933  0.1287  1.3085  0.3335
 7881TIP3   OH245133   1.689   3.416   5.119  0.6376  0.3581 -0.1087
 7881TIP3    H145134   1.767   3.470   5.106  0.5570  1.0805  1.9870
 7881TIP3    H245135   1.722   3.326   5.121  1.0649  0.4554 -1.5145
 7882TIP3   OH245136   4.174   5.318   0.043  0.3260 -0.4561 -0.4649
 7882TIP3    H145137   4.123   5.356  -0.028 -0.3422  0.5052  0.4748
 7882TIP3    H245138   4.110   5.303   0.113  1.2211  0.2523  0.5480
 7883TIP3   OH245139   1.715   6.694  14.319 -0.3278 -0.2730  0.0066
 7883TIP3    H145140   1.800   6.665  14.286 -0.9943 -0.1705 -1.9948
 7883TIP3    H245141   1.716   6.674  14.412  2.2682  0.6813  0.2496
 7884TIP3   OH245142   1.251   3.055  14.041  0.3077  0.4946  0.2852
 7884TIP3    H145143   1.195   3.127  14.070 -0.2156  0.3447 -0.3312
 7884TIP3    H245144   1.256   2.997  14.117 -0.4760  0.4512  0.3132
 7885TIP3   OH245145   4.747   0.620  15.304 -0.1372  0.1068 -0.1050
 7885TIP3    H145146   4.822   0.660  15.349 -2.0266  1.1116  2.4703
 7885TIP3    H245147   4.757   0.526  15.319  1.0084  0.1486 -0.5237
 7886TIP3   OH245148   6.159   4.722  11.613  0.0283  0.8117 -0.1241
 7886TIP3    H145149   6.124   4.636  11.633  0.3237  0.9918  1.3337
 7886TIP3    H245150   6.214   4.709  11.536 -1.9605  0.2319 -1.5084
 7887TIP3   OH245151   4.892   3.429   0.673  0.3413 -0.3531 -0.1292
 7887TIP3    H145152   4.945   3.350   0.678  0.9304  0.0814  4.3529
 7887TIP3    H245153   4.803   3.399   0.689  0.1477 -0.3549 -1.1454
 7888TIP3   OH245154   3.749   0.538   1.743  0.9187 -0.3312  0.0002
 7888TIP3    H145155   3.832   0.585   1.755  0.0246  1.4219 -0.2766
 7888TIP3    H245156   3.725   0.554   1.652 -0.0174 -0.2699  0.2434
 7889TIP3   OH245157   3.977   1.616   3.722  0.0607 -0.6148  0.4060
 7889TIP3    H145158   3.942   1.705   3.722  1.5729  0.2637 -3.9534
 7889TIP3    H245159   4.047   1.617   3.788  0.9579  1.9534 -0.4701
 7890TIP3   OH245160   5.660   4.391   0.469  0.8842 -0.0454  0.1338
 7890TIP3    H145161   5.586   4.341   0.504  0.3794  0.2561 -0.4860
 7890TIP3    H245162   5.674   4.461   0.534  1.7915 -1.1375  1.1584
 7891TIP3   OH245163   5.303   0.827   6.722  0.4861 -0.2906 -0.3802
 7891TIP3    H145164   5.211   0.835   6.750  0.3866  2.8772 -1.2408
 7891TIP3    H245165   5.340   0.914   6.737  3.6969 -1.7130  0.8231
 7892TIP3   OH245166   1.398   1.522   3.445 -0.2165  0.9870  0.0909
 7892TIP3    H145167   1.428   1.613   3.448  0.6648  0.7253 -0.3202
 7892TIP3    H245168   1.398   1.500   3.352  0.2644  0.3507  0.2313
 7893TIP3   OH245169   0.136   3.891  13.494  0.4497  0.2819  0.2311
 7893TIP3    H145170   0.117   3.801  13.471  0.1211  0.0003  1.5609
 7893TIP3    H245171   0.148   3.890  13.589 -0.0175  1.7170  0.3257
 7894TIP3   OH245172   1.545   2.520  16.169  0.9980 -0.0135  0.7333
 7894TIP3    H145173   1.470   2.491  16.117 -0.0471  0.4955  1.8946
 7894TIP3    H245174   1.590   2.439  16.194  0.6542 -0.3516  0.2776
 7895TIP3   OH245175   2.161   2.328   2.591  0.3776  0.4211  0.8032
 7895TIP3    H145176   2.181   2.410   2.635  1.5444  0.8413 -0.4363
 7895TIP3    H245177   2.242   2.277   2.596  0.7900  0.7518 -1.3699
 7896TIP3   OH245178   4.087   0.901   0.276  0.7948 -0.1054  0.0076
 7896TIP3    H145179   4.123   0.890   0.188 -1.5566  0.1704 -1.0560
 7896TIP3    H245180   4.081   0.996   0.288  2.2103 -0.0938  1.0183
 7897TIP3   OH245181   3.395   2.827  16.044 -0.7408 -0.0724  0.0961
 7897TIP3    H145182   3.302   2.848  16.039 -1.4536 -2.2199  2.5056
 7897TIP3    H245183   3.398   2.731  16.041  1.5382 -0.0300 -1.1447
 7898TIP3   OH245184   3.821   3.109  11.272  0.0388 -0.0274 -0.0413
 7898TIP3    H145185   3.767   3.083  11.346 -0.7314 -0.3905 -0.7029
 7898TIP3    H245186   3.889   3.043  11.267 -0.3320 -0.4094 -0.0895
 7899TIP3   OH245187   1.850   1.438  14.886  0.0650 -0.3274  0.3822
 7899TIP3    H145188   1.792   1.412  14.958 -0.7575  0.8963  0.1855
 7899TIP3    H245189   1.808   1.404  14.807 -0.3515  0.4806  0.2482
 7900TIP3   OH245190   3.279   5.022  11.659  0.2651 -0.2698  0.0166
 7900TIP3    H145191   3.259   4.955  11.724 -0.3911  0.5436  0.6801
 7900TIP3    H245192   3.372   5.009  11.639  1.3926  1.3109  3.4142
 7901TIP3   OH245193   1.034   2.660   4.980 -0.1712  0.4188 -0.1080
 7901TIP3    H145194   1.022   2.593   5.047  0.5207 -0.0327 -0.4257
 7901TIP3    H245195   0.951   2.662   4.932  0.2055 -1.0393 -0.8451
 7902TIP3   OH245196   1.087   1.991   4.873 -0.0280 -0.7490 -0.1485
 7902TIP3    H145197   1.022   1.963   4.938 -0.3133 -1.3938 -0.7028
 7902TIP3    H245198   1.165   1.939   4.893 -0.4417 -1.7115 -0.9477
 7903TIP3   OH245199   1.835   6.244   4.505 -0.4539 -0.7463 -0.3449
 7903TIP3    H145200   1.755   6.223   4.457 -1.0531  1.0077 -0.1639
 7903TIP3    H245201   1.812   6.232   4.597 -0.7412  0.4045 -0.2515
 7904TIP3   OH245202   3.790   4.362   2.513 -0.0211  0.2902 -0.2979
 7904TIP3    H145203   3.714   4.307   2.493  1.4323 -1.7490 -0.5599
 7904TIP3    H245204   3.840   4.363   2.432  0.4522  1.2730 -0.0044
 7905TIP3   OH245205   3.032   6.659  12.480 -0.2255  0.1818 -0.1006
 7905TIP3    H145206   3.116   6.702  12.495 -0.1827 -0.2247  0.8678
 7905TIP3    H245207   2.979   6.725  12.434  1.0731 -0.0451 -2.0430
 7906TIP3   OH245208   1.135   2.743  13.420 -0.5663 -0.0404  0.0230
 7906TIP3    H145209   1.121   2.701  13.335 -0.2900  0.8840 -0.4872
 7906TIP3    H245210   1.060   2.802  13.430 -0.1663  0.4712  0.0333
 7907TIP3   OH245211   3.963   2.686   4.050 -0.2543 -0.2908  0.1541
 7907TIP3    H145212   3.993   2.605   4.090 -0.1307 -1.2132 -1.6900
 7907TIP3    H245213   3.947   2.663   3.959 -0.9583  1.5890 -0.2443
 7908TIP3   OH245214   4.458   5.974   1.491 -0.3318 -0.7952  0.0716
 7908TIP3    H145215   4.523   5.921   1.444 -0.2434 -0.0514 -0.6769
 7908TIP3    H245216   4.508   6.045   1.529 -0.7700  0.2090 -1.1432
 7909TIP3   OH245217   6.333   6.034  13.725 -0.0864 -0.0765 -0.0682
 7909TIP3    H145218   6.408   6.044  13.666  0.1483  2.1441  0.5331
 7909TIP3    H245219   6.372   6.031  13.812 -0.6036 -0.9532  0.1482
 7910TIP3   OH245220   5.668   0.998  11.111 -0.0995 -0.8163  0.1775
 7910TIP3    H145221   5.638   1.031  11.027 -0.6743  0.5669  0.8949
 7910TIP3    H245222   5.720   0.920  11.089  0.2275 -0.1752 -1.4855
 7911TIP3   OH245223   2.892   1.613  12.769 -0.4183 -0.3162  0.0860
 7911TIP3    H145224   2.821   1.601  12.706 -2.0169  1.9494  1.2946
 7911TIP3    H245225   2.858   1.578  12.851  0.5594 -0.7534  0.3185
 7912TIP3   OH245226   3.624   4.668  12.450  0.1134  0.6909 -0.7406
 7912TIP3    H145227   3.686   4.650  12.521 -0.6609  1.5650  0.1895
 7912TIP3    H245228   3.671   4.725  12.391  0.8652 -0.2671 -1.0957
 7913TIP3   OH245229   4.753   2.113  12.689  0.1668 -0.1604 -0.1529
 7913TIP3    H145230   4.691   2.179  12.659  1.6439  0.8779 -1.0685
 7913TIP3    H245231   4.782   2.144  12.775  1.1317  0.6299 -0.7382
 7914TIP3   OH245232   3.022   2.451   3.245  0.5762 -0.3448 -0.3633
 7914TIP3    H145233   2.961   2.377   3.243 -0.8077  0.7447 -2.1310
 7914TIP3    H245234   2.971   2.523   3.283  1.1863  0.2560 -0.6512
 7915TIP3   OH245235   4.935   2.978  13.543  0.3470 -0.6005  0.6153
 7915TIP3    H145236   4.901   2.909  13.485 -1.3043 -0.4722  1.3643
 7915TIP3    H245237   4.902   2.954  13.630  0.4645  0.6697  1.0266
 7916TIP3   OH245238   1.432   0.044  11.890  0.7095 -0.7302 -0.1784
 7916TIP3    H145239   1.512  -0.007  11.878  0.6680 -1.0552  0.8729
 7916TIP3    H245240   1.365  -0.003  11.841  1.3422  0.0952 -1.9481
 7917TIP3   OH245241   0.896   6.512   1.638 -0.3977 -0.4616 -0.2635
 7917TIP3    H145242   0.857   6.466   1.564  0.3308 -0.9602 -0.3523
 7917TIP3    H245243   0.856   6.472   1.715  0.5392 -1.5701 -0.3246
 7918TIP3   OH245244   1.663   5.556  15.568  0.1626  0.2148 -0.4283
 7918TIP3    H145245   1.631   5.467  15.583  2.1414 -0.6613 -1.1089
 7918TIP3    H245246   1.724   5.548  15.495  0.6351  2.0872 -0.2914
 7919TIP3   OH245247   0.683   5.756  17.067  0.1647 -0.1838 -0.3000
 7919TIP3    H145248   0.709   5.709  17.146  0.4223  2.0226  1.0334
 7919TIP3    H245249   0.740   5.722  16.998 -0.7334 -2.8629  0.1836
 7920TIP3   OH245250   2.933   3.239   0.124 -0.3313 -0.0960 -0.3093
 7920TIP3    H145251   2.899   3.312   0.072 -1.6362 -0.2903  0.2243
 7920TIP3    H245252   3.022   3.226   0.092 -1.1791 -0.4265 -2.7456
 7921TIP3   OH245253   1.580   6.495   1.025 -0.1101  0.0255 -0.1823
 7921TIP3    H145254   1.629   6.414   1.011  0.2567  0.2651 -0.3038
 7921TIP3    H245255   1.611   6.554   0.957 -2.4030 -0.6114 -1.8926
 7922TIP3   OH245256   6.414   3.216  16.157  0.3583  0.8810  0.2082
 7922TIP3    H145257   6.484   3.170  16.111  1.1146  1.8756  0.3318
 7922TIP3    H245258   6.334   3.171  16.130  0.9392  0.4301 -0.8148
 7923TIP3   OH245259   3.343   5.524  12.679 -0.6527  0.4787  0.6198
 7923TIP3    H145260   3.426   5.489  12.647  0.2409  1.3245  1.9257
 7923TIP3    H245261   3.327   5.602  12.626 -1.3261 -0.3831 -0.5186
 7924TIP3   OH245262   6.083   4.470   3.097 -0.7296 -0.1369  0.0266
 7924TIP3    H145263   6.017   4.472   3.166  0.7708  3.0095  1.5944
 7924TIP3    H245264   6.093   4.378   3.075 -4.6436 -0.8527  0.5761
 7925TIP3   OH245265   3.089   1.209   0.615  0.4874 -0.2737 -0.3383
 7925TIP3    H145266   3.166   1.165   0.579  1.0653  0.7317 -0.3874
 7925TIP3    H245267   3.044   1.245   0.539  0.7814  0.3977 -0.2009
 7926TIP3   OH245268   4.547   4.410   5.632 -0.3159 -0.1182 -0.2052
 7926TIP3    H145269   4.638   4.391   5.657 -1.0547 -1.7676  1.5565
 7926TIP3    H245270   4.513   4.463   5.704 -0.8634  0.1289 -0.6380
 7927TIP3   OH245271   0.852   1.900  14.893 -0.1039  0.1068 -0.6370
 7927TIP3    H145272   0.940   1.893  14.855  0.1480  0.2420 -0.0821
 7927TIP3    H245273   0.848   1.990  14.926 -0.1375 -0.1596  0.1044
 7928TIP3   OH245274   3.308   1.060   3.084 -0.0065 -0.2518 -0.2063
 7928TIP3    H145275   3.305   1.155   3.076  3.3024  0.0605  0.6286
 7928TIP3    H245276   3.233   1.038   3.140 -0.4845  1.9141  0.0822
 7929TIP3   OH245277   1.891   1.129   3.384  0.1352  0.0346  0.3980
 7929TIP3    H145278   1.926   1.216   3.365  1.0244 -0.3062  0.4051
 7929TIP3    H245279   1.895   1.122   3.479 -2.4037  0.9591  0.6637
 7930TIP3   OH245280   3.505   4.908   4.019 -0.2841  0.0145 -0.8651
 7930TIP3    H145281   3.468   4.823   3.996  0.8225 -1.4858  2.3130
 7930TIP3    H245282   3.461   4.932   4.100  0.9836  1.4019 -0.5526
 7931TIP3   OH245283   4.232   1.388   2.500 -0.4115 -0.2640 -0.3957
 7931TIP3    H145284   4.153   1.380   2.446 -0.7857 -1.6280  0.2910
 7931TIP3    H245285   4.304   1.397   2.438 -1.0414  0.3309 -1.0506
 7932TIP3   OH245286   0.049   1.756   5.081 -0.1661  0.7896  0.6055
 7932TIP3    H145287   0.100   1.734   5.159  0.4945  1.5761  0.4103
 7932TIP3    H245288   0.009   1.841   5.102 -2.1927 -0.2133  1.1243
 7933TIP3   OH245289   2.961   4.950   3.299 -0.0122 -0.1597  0.4695
 7933TIP3    H145290   3.038   5.005   3.313  0.0284  0.0709 -0.6162
 7933TIP3    H245291   2.918   4.986   3.222 -0.8200 -0.7284  0.6328
 7934TIP3   OH245292   3.737   6.418  16.691  0.6123 -0.1440  0.2254
 7934TIP3    H145293   3.785   6.443  16.612  0.8806 -1.5126 -0.0789
 7934TIP3    H245294   3.657   6.377  16.659 -1.2426  2.8127  0.7333
 7935TIP3   OH245295   3.908   1.853  15.178  0.3651 -0.3151 -0.0618
 7935TIP3    H145296   3.983   1.856  15.120  0.2579 -3.0978 -0.4605
 7935TIP3    H245297   3.945   1.842  15.265  0.4411  0.4368  0.0076
 7936TIP3   OH245298   2.397   3.078   1.535 -0.5770  0.4399 -0.2307
 7936TIP3    H145299   2.463   3.050   1.598 -1.5185  0.3966  0.7564
 7936TIP3    H245300   2.322   3.104   1.588 -1.3093  0.6352 -1.3238
 7937TIP3   OH245301   0.784   0.746  14.913 -0.0159 -0.2918  0.2453
 7937TIP3    H145302   0.701   0.775  14.874  1.1756  1.6111 -1.0548
 7937TIP3    H245303   0.805   0.665  14.868 -0.0559  0.4205 -1.0898
 7938TIP3   OH245304   2.259   0.909  11.911 -0.2086 -0.2747  0.1094
 7938TIP3    H145305   2.314   0.878  11.839 -0.5280 -0.3980 -0.0831
 7938TIP3    H245306   2.315   0.969  11.960  0.4625 -1.2316  0.5428
 7939TIP3   OH245307   4.498   6.450   5.424  0.3303 -0.6414  0.0911
 7939TIP3    H145308   4.546   6.532   5.433  0.4335 -0.9227  3.1954
 7939TIP3    H245309   4.500   6.431   5.330  0.6067  2.6825 -0.7041
 7940TIP3   OH245310   1.551   6.043  11.684 -0.8048  0.1383 -0.1494
 7940TIP3    H145311   1.578   6.056  11.775  0.0160 -2.0107 -0.0209
 7940TIP3    H245312   1.627   6.002  11.643 -2.4793 -2.5545 -0.7789
 7941TIP3   OH245313   1.611   6.636   1.526 -0.1671  0.4791 -0.4291
 7941TIP3    H145314   1.685   6.687   1.560 -0.6368  1.5587 -0.9808
 7941TIP3    H245315   1.651   6.560   1.484  0.7078  1.5313 -1.5498
 7942TIP3   OH245316   6.566   3.716   1.058 -0.1244  0.3237  0.3959
 7942TIP3    H145317   6.649   3.718   1.106 -0.1052  3.0723  0.4102
 7942TIP3    H245318   6.524   3.800   1.079 -2.2103 -0.3482 -0.8137
 7943TIP3   OH245319   2.148   6.280  12.232 -0.0945 -0.1003  0.4556
 7943TIP3    H145320   2.194   6.197  12.219  0.1998  0.1072  0.1432
 7943TIP3    H245321   2.121   6.278  12.324 -0.5497 -0.7666  0.3215
 7944TIP3   OH245322   6.600   1.961  14.017 -0.3314  0.4925 -0.1592
 7944TIP3    H145323   6.620   2.013  13.939  1.1983 -0.6194 -0.5408
 7944TIP3    H245324   6.676   1.971  14.073  0.2242 -1.6772 -0.4435
 7945TIP3   OH245325   3.643   2.015  16.847 -0.3233  0.2048  0.4623
 7945TIP3    H145326   3.686   1.931  16.828 -0.3521  0.5077 -1.0714
 7945TIP3    H245327   3.597   2.037  16.767 -0.4170  1.6435  0.8808
 7946TIP3   OH245328   3.394   4.627  10.432  0.0741 -0.0661 -0.1007
 7946TIP3    H145329   3.411   4.539  10.398 -2.1949  0.0227 -1.6908
 7946TIP3    H245330   3.395   4.684  10.354 -0.2889  1.0158  0.6560
 7947TIP3   OH245331   5.629   0.621   5.318  0.2361 -0.4449  0.3317
 7947TIP3    H145332   5.568   0.645   5.389 -0.7585 -0.5056 -0.4759
 7947TIP3    H245333   5.626   0.525   5.316 -0.6529 -0.4125 -0.5461
 7948TIP3   OH245334   4.671   5.929   4.601  0.5960  0.1233  0.0170
 7948TIP3    H145335   4.757   5.891   4.586  0.0635 -0.5677 -1.4504
 7948TIP3    H245336   4.626   5.921   4.517 -1.2116 -0.2979  0.9825
 7949TIP3   OH245337   1.045   3.981   5.757  0.9725 -0.2436 -0.3963
 7949TIP3    H145338   1.066   3.983   5.664 -2.3619 -2.2174 -1.3849
 7949TIP3    H245339   1.096   3.908   5.791 -0.3655 -1.8309 -1.5943
 7950TIP3   OH245340   5.244   6.583   6.615  0.5312 -0.0318 -0.3711
 7950TIP3    H145341   5.336   6.606   6.610  0.9439 -1.4680  0.2245
 7950TIP3    H245342   5.239   6.493   6.583 -0.5378 -0.2584  0.3545
 7951TIP3   OH245343   0.581   5.337   0.912  0.4967  0.5421  0.5904
 7951TIP3    H145344   0.621   5.386   0.840 -0.6824  0.7284  0.0390
 7951TIP3    H245345   0.653   5.287   0.950  0.7833 -1.2500 -2.0769
 7952TIP3   OH245346   0.931   4.484   3.552 -0.1891  0.3169 -0.0546
 7952TIP3    H145347   1.014   4.447   3.521  0.7914  0.8624  1.7567
 7952TIP3    H245348   0.931   4.574   3.520 -0.8233 -0.1004 -1.3087
 7953TIP3   OH245349   2.541   0.810   5.147  0.4441 -0.4071 -0.3151
 7953TIP3    H145350   2.473   0.794   5.212 -0.8885 -1.5301 -1.8753
 7953TIP3    H245351   2.606   0.864   5.191 -0.5858 -0.8113  1.7869
 7954TIP3   OH245352   2.240   0.387   6.221  0.2137  0.1014  0.1089
 7954TIP3    H145353   2.172   0.450   6.198 -0.2868 -0.6126 -0.3855
 7954TIP3    H245354   2.256   0.402   6.314 -0.0227  0.8339  0.0375
 7955TIP3   OH245355   5.303   2.301   4.651  0.5305 -0.0454  0.1016
 7955TIP3    H145356   5.280   2.250   4.729  0.4297  0.3336  0.3245
 7955TIP3    H245357   5.384   2.346   4.675  0.7988 -0.3638 -0.2140
 7956TIP3   OH245358   1.064   2.225  13.076 -0.5601 -0.3357 -0.0534
 7956TIP3    H145359   1.080   2.242  13.168 -1.2689  0.7548 -0.1154
 7956TIP3    H245360   0.993   2.162  13.074 -0.8227 -0.0467  0.1485
 7957TIP3   OH245361   0.524   4.349   1.105  0.2842  0.9421 -0.5926
 7957TIP3    H145362   0.486   4.261   1.102  2.0496  0.1002 -0.1028
 7957TIP3    H245363   0.513   4.382   1.016 -1.9064  0.9445 -0.3711
 7958TIP3   OH245364   4.111   4.862   4.043  0.6104  0.0445 -0.0374
 7958TIP3    H145365   4.120   4.954   4.068 -1.4925  1.1049 -2.6629
 7958TIP3    H245366   4.017   4.849   4.031  1.0106 -1.8253 -1.7237
 7959TIP3   OH245367   2.277   1.405   0.918 -0.6710 -0.0645  0.4483
 7959TIP3    H145368   2.204   1.362   0.873  0.0984 -1.1318  0.1848
 7959TIP3    H245369   2.329   1.444   0.849 -2.2839  2.9402  0.7624
 7960TIP3   OH245370   4.109   6.572   4.024  0.5500 -0.1611  0.0413
 7960TIP3    H145371   4.079   6.642   4.082 -1.9270 -1.1098  0.0639
 7960TIP3    H245372   4.157   6.512   4.082 -1.2012 -0.6911  1.0307
 7961TIP3   OH245373   1.734   0.779  14.411  0.4272 -0.4204  0.2516
 7961TIP3    H145374   1.805   0.835  14.442  1.2422 -1.4363  0.2351
 7961TIP3    H245375   1.721   0.715  14.480 -1.3680  0.5078  0.8476
 7962TIP3   OH245376   3.900   1.945  16.402  0.1377 -0.0028  0.3086
 7962TIP3    H145377   3.944   1.881  16.347  0.7996 -1.6608  2.5916
 7962TIP3    H245378   3.855   2.003  16.341  1.4777 -1.2055 -1.9432
 7963TIP3   OH245379   5.180   0.383  14.305  0.0796 -0.4627  0.0742
 7963TIP3    H145380   5.099   0.372  14.255 -1.9979  2.4883  2.4491
 7963TIP3    H245381   5.234   0.441  14.251  0.3127 -1.6905 -1.0888
 7964TIP3   OH245382   6.327   0.287   6.165  0.3797  0.3858 -0.4624
 7964TIP3    H145383   6.321   0.382   6.172  0.2019  0.6268 -2.9834
 7964TIP3    H245384   6.239   0.256   6.186  0.6574  0.6695  1.2473
 7965TIP3   OH245385   3.233   2.645   0.926 -0.0643  0.3476  0.3616
 7965TIP3    H145386   3.278   2.565   0.953  1.0014  1.3283  1.6613
 7965TIP3    H245387   3.299   2.693   0.876 -1.0793 -0.0782 -1.4636
 7966TIP3   OH245388   3.833   4.210   1.344 -0.7229  0.3332 -0.4172
 7966TIP3    H145389   3.854   4.297   1.309  1.0341  0.5841  1.1349
 7966TIP3    H245390   3.899   4.152   1.304 -1.0696 -0.0618 -0.4235
 7967TIP3   OH245391   4.273   4.101  16.302 -0.2163 -0.0038 -0.2780
 7967TIP3    H145392   4.258   4.195  16.291 -1.8184  0.2018  2.6410
 7967TIP3    H245393   4.345   4.096  16.365 -1.0530 -0.6378  0.6666
 7968TIP3   OH245394   6.535   4.019   5.878 -0.3629  0.2698 -0.1925
 7968TIP3    H145395   6.517   3.925   5.873 -2.8067  0.6607  0.3213
 7968TIP3    H245396   6.537   4.038   5.972  0.5990  0.6722 -0.2806
 7969TIP3   OH245397   4.465   3.047   5.150 -0.0067 -0.3257 -0.5222
 7969TIP3    H145398   4.502   3.071   5.234  0.2112  0.5350 -0.8504
 7969TIP3    H245399   4.378   3.086   5.150 -0.6052 -1.6089 -0.0994
 7970TIP3   OH245400   1.944   3.828  11.176  0.0999 -0.0103 -0.3096
 7970TIP3    H145401   1.914   3.896  11.116 -2.0545 -0.7817 -0.2027
 7970TIP3    H245402   1.980   3.876  11.251 -1.1859  1.0234 -0.3243
 7971TIP3   OH245403   4.742   2.852  15.651  0.3166 -0.2679 -0.2849
 7971TIP3    H145404   4.705   2.940  15.641 -0.1819 -0.2712  1.1691
 7971TIP3    H245405   4.739   2.814  15.563  0.3997  1.1016 -0.9075
 7972TIP3   OH245406   4.198   6.363   3.293  0.1512  0.1652  0.2253
 7972TIP3    H145407   4.146   6.392   3.368  1.3970  0.8407  0.8535
 7972TIP3    H245408   4.289   6.373   3.320  0.6389 -0.8961 -0.8883
 7973TIP3   OH245409   0.089   3.098  13.556  0.2599  0.1178 -0.0530
 7973TIP3    H145410   0.058   3.185  13.578 -1.0553  0.1292 -1.7013
 7973TIP3    H245411   0.120   3.105  13.465  2.1886 -0.6598  0.4788
 7974TIP3   OH245412   6.488   3.052  12.519 -0.1981 -0.1273 -0.5478
 7974TIP3    H145413   6.570   3.080  12.560 -0.7355  1.2559 -0.3485
 7974TIP3    H245414   6.490   2.957  12.522  1.2510 -0.1073 -0.2507
 7975TIP3   OH245415   1.202   3.628   4.277  0.1283  0.9848  0.2265
 7975TIP3    H145416   1.188   3.578   4.196  1.0040  1.3825 -0.1847
 7975TIP3    H245417   1.212   3.561   4.345  1.2889  0.5758 -0.3163
 7976TIP3   OH245418   2.908   3.291   3.737 -0.0086  0.0262  0.2195
 7976TIP3    H145419   2.847   3.224   3.767  0.8252 -1.2649 -0.8780
 7976TIP3    H245420   2.995   3.254   3.754  0.4861  1.2580  0.4929
 7977TIP3   OH245421   2.588   3.622  16.340  0.2704 -0.2268 -0.2638
 7977TIP3    H145422   2.611   3.536  16.375 -0.1722 -0.3240 -0.1980
 7977TIP3    H245423   2.659   3.644  16.280  1.4607  0.2900  1.2587
 7978TIP3   OH245424   2.021   5.947  12.324  0.2194  0.2697  0.5376
 7978TIP3    H145425   2.082   6.018  12.347  0.7243 -0.6452  2.1624
 7978TIP3    H245426   1.935   5.980  12.349  0.2371  0.8951 -0.1765
 7979TIP3   OH245427   2.145   2.341   4.073 -0.1926 -0.2226  0.1857
 7979TIP3    H145428   2.199   2.314   3.998 -0.7483 -0.0361 -0.2886
 7979TIP3    H245429   2.206   2.341   4.147 -0.0578 -2.3272  0.1368
 7980TIP3   OH245430   0.501   6.327  14.129  0.1471 -0.4535  0.1695
 7980TIP3    H145431   0.542   6.316  14.043 -0.6868 -0.2245 -0.2636
 7980TIP3    H245432   0.433   6.392  14.115 -1.1131 -1.6402  0.6287
 7981TIP3   OH245433   3.941   1.233  14.383  0.4597 -0.7178  0.0876
 7981TIP3    H145434   4.026   1.268  14.409  0.8106 -1.2376 -0.3229
 7981TIP3    H245435   3.895   1.218  14.465  0.7596 -0.4174  0.3128
 7982TIP3   OH245436   0.110   0.568   0.559 -0.9353  0.3146 -0.5329
 7982TIP3    H145437   0.066   0.500   0.507 -1.0657 -1.2358  1.4743
 7982TIP3    H245438   0.197   0.576   0.520 -0.1103 -2.6307  0.4052
 7983TIP3   OH245439   6.289   0.438  10.603  0.3532  0.0609  0.0659
 7983TIP3    H145440   6.349   0.370  10.570  1.1915  1.0540 -0.5278
 7983TIP3    H245441   6.215   0.389  10.638  1.3045 -1.2017  0.4144
 7984TIP3   OH245442   2.559   5.335  12.065  0.2164 -0.1347  0.0342
 7984TIP3    H145443   2.478   5.382  12.081 -0.9774 -0.7659 -3.2327
 7984TIP3    H245444   2.628   5.399  12.081 -1.1739  1.7465 -1.0988
 7985TIP3   OH245445   5.839   4.336  11.020 -0.0863  0.1589  0.5763
 7985TIP3    H145446   5.916   4.394  11.019  1.3369 -1.5863  1.4028
 7985TIP3    H245447   5.806   4.337  10.930  0.5775  1.3584  0.3273
 7986TIP3   OH245448   0.804   0.123  12.489 -0.9895  0.4441  0.4706
 7986TIP3    H145449   0.749   0.064  12.541 -0.4086 -0.2455  0.3312
 7986TIP3    H245450   0.747   0.155  12.419 -0.7791 -1.6993 -0.7741
 7987TIP3   OH245451   3.523   1.606   2.470 -0.5426 -0.5577  0.9296
 7987TIP3    H145452   3.535   1.520   2.509  0.2996 -0.3723  1.0842
 7987TIP3    H245453   3.611   1.643   2.463 -0.8106 -0.0351  0.1167
 7988TIP3   OH245454   4.531   2.918  15.247 -0.1964  0.9064  0.3873
 7988TIP3    H145455   4.620   2.950  15.259 -0.1133  0.3308  1.3676
 7988TIP3    H245456   4.476   2.978  15.298 -0.2447  0.6021  0.6949
 7989TIP3   OH245457   4.730   4.516   4.021  0.0068 -0.0356 -0.1447
 7989TIP3    H145458   4.672   4.550   4.089 -0.2468  2.6930 -1.5897
 7989TIP3    H245459   4.674   4.504   3.945  1.1074  1.9593 -1.3586
 7990TIP3   OH245460   2.421   2.142  13.410  0.0653  0.1430  0.2253
 7990TIP3    H145461   2.351   2.207  13.406  0.6982  0.7918 -2.0072
 7990TIP3    H245462   2.476   2.169  13.484 -1.3449  0.3088  1.2496
 7991TIP3   OH245463   4.830   5.451   5.226 -0.1070 -0.4022 -0.6461
 7991TIP3    H145464   4.917   5.469   5.262  0.3277 -1.2978 -1.2168
 7991TIP3    H245465   4.801   5.535   5.190  0.3825 -0.0207 -0.1693
 7992TIP3   OH245466   3.620   5.607   2.767  0.7537  0.2503 -0.3608
 7992TIP3    H145467   3.590   5.594   2.677 -4.4183  0.2780  1.0726
 7992TIP3    H245468   3.704   5.653   2.757  1.0357 -0.7670 -5.0864
 7993TIP3   OH245469   6.336   3.077   1.544  0.0405  0.2155 -0.1105
 7993TIP3    H145470   6.413   3.045   1.496  1.9059  3.1739  0.6497
 7993TIP3    H245471   6.310   3.003   1.599  2.4945 -0.8205 -0.2019
 7994TIP3   OH245472   4.697   0.679  13.056 -0.0600  0.0190 -0.7412
 7994TIP3    H145473   4.640   0.744  13.014 -0.5748 -0.6725 -1.1288
 7994TIP3    H245474   4.769   0.667  12.994  0.8277  1.2969 -0.0108
 7995TIP3   OH245475   3.635   1.228  12.548  0.0299 -0.4213 -0.0684
 7995TIP3    H145476   3.631   1.201  12.640  1.8270 -2.0860 -0.4144
 7995TIP3    H245477   3.671   1.316  12.550 -0.2582 -0.3181  0.8359
 7996TIP3   OH245478   5.894   4.301   1.762  0.5560 -0.3167 -0.1581
 7996TIP3    H145479   5.907   4.206   1.763  0.5724 -0.3141 -0.1336
 7996TIP3    H245480   5.926   4.330   1.847  1.0917 -0.2167 -0.3903
 7997TIP3   OH245481   5.756   3.690   2.305 -0.0518 -0.9079 -0.3958
 7997TIP3    H145482   5.677   3.720   2.350  1.6460  1.1016  1.4950
 7997TIP3    H245483   5.725   3.660   2.219 -2.8386 -0.2789  0.2868
 7998TIP3   OH245484   5.329   0.664   6.265  0.1539  0.0882 -0.2140
 7998TIP3    H145485   5.419   0.693   6.250  0.3791 -0.6393 -0.3349
 7998TIP3    H245486   5.326   0.642   6.358  0.4460 -0.9902 -0.4425
 7999TIP3   OH245487   3.794   2.705  15.397  0.1810  0.0496 -0.1233
 7999TIP3    H145488   3.836   2.621  15.379  0.3700  0.3668 -1.2313
 7999TIP3    H245489   3.700   2.687  15.388  0.1594 -0.2562  0.6179
 8000TIP3   OH245490   0.634   1.184   3.903  0.6020  0.5284 -0.1646
 8000TIP3    H145491   0.698   1.253   3.920  2.3334 -1.0563 -0.0153
 8000TIP3    H245492   0.655   1.115   3.967 -1.3214 -0.0128 -0.0463
 8001TIP3   OH245493   0.172   4.789  13.197  0.1983 -0.0122 -0.2089
 8001TIP3    H145494   0.240   4.772  13.132  0.0223  1.3753 -0.7957
 8001TIP3    H245495   0.102   4.727  13.177 -0.4083  1.2317 -2.2139
 8002TIP3   OH245496   0.605   5.255  12.788 -0.6477 -0.4883 -0.0533
 8002TIP3    H145497   0.585   5.170  12.828 -1.3665 -0.8632 -1.1774
 8002TIP3    H245498   0.520   5.298  12.778 -0.3496  0.1065 -0.0726
 8003TIP3   OH245499   0.231   1.184   3.871  0.1238 -0.3438 -0.6751
 8003TIP3    H145500   0.173   1.241   3.821  1.4830  0.2306 -1.6559
 8003TIP3    H245501   0.173   1.137   3.931 -1.6290 -1.2179 -2.9060
 8004TIP3   OH245502   2.069   1.719   3.214  0.6895  0.4198 -0.1568
 8004TIP3    H145503   2.057   1.658   3.141 -0.5904  0.1625  0.2344
 8004TIP3    H245504   2.164   1.722   3.228  0.8387 -0.7593 -0.7884
 8005TIP3   OH245505   5.216   2.014   5.334 -0.2042 -0.0982 -0.0566
 8005TIP3    H145506   5.150   1.963   5.288 -1.1624  1.0558 -0.0054
 8005TIP3    H245507   5.172   2.095   5.358  0.6410 -0.0998  1.7256
 8006TIP3   OH245508   3.461   3.834  12.059 -0.1241 -0.2155 -0.4347
 8006TIP3    H145509   3.437   3.743  12.038  0.7307 -0.2170 -1.4915
 8006TIP3    H245510   3.502   3.867  11.979  1.0944  0.5710  0.4799
 8007TIP3   OH245511   4.026   0.614   4.917 -0.3483  0.1900  0.6046
 8007TIP3    H145512   4.106   0.656   4.885  2.2220 -1.6258  3.9398
 8007TIP3    H245513   4.029   0.525   4.882 -0.1567 -0.2813  1.7730
 8008TIP3   OH245514   4.079   3.839   0.256  0.2608 -0.2515  0.5151
 8008TIP3    H145515   4.074   3.795   0.171 -0.1384 -0.6887  0.7585
 8008TIP3    H245516   4.069   3.769   0.320  0.4895  0.0842  0.9237
 8009TIP3   OH245517   1.727   1.120   6.388  0.1046  0.8176 -0.4806
 8009TIP3    H145518   1.702   1.040   6.342  1.5150  0.5354 -0.8170
 8009TIP3    H245519   1.802   1.094   6.442 -0.3465  1.5838  0.5606
 8010TIP3   OH245520   4.421   3.249   1.373  0.2437 -0.4889  0.3879
 8010TIP3    H145521   4.401   3.313   1.304  0.8792 -0.5410  0.1495
 8010TIP3    H245522   4.412   3.164   1.329 -0.4725 -0.5689  0.6713
 8011TIP3   OH245523   0.769   0.642  10.745 -1.0051 -0.1950 -0.0065
 8011TIP3    H145524   0.703   0.708  10.767 -1.8013 -1.0173  0.1220
 8011TIP3    H245525   0.745   0.611  10.658 -0.8124 -0.5212  0.0535
 8012TIP3   OH245526   2.315   2.136   5.170 -0.3875 -0.2388 -0.0079
 8012TIP3    H145527   2.262   2.201   5.124  0.7998  0.0656 -1.0001
 8012TIP3    H245528   2.257   2.101   5.237 -0.3380  3.8383  2.5486
 8013TIP3   OH245529   2.455   5.438  17.082  0.2582  0.4305 -0.0390
 8013TIP3    H145530   2.430   5.346  17.079 -0.3530  0.5409  1.0647
 8013TIP3    H245531   2.550   5.438  17.068  0.2759 -0.3833  0.0733
 8014TIP3   OH245532   0.838   1.635   2.354  0.0775  0.0247  0.3348
 8014TIP3    H145533   0.837   1.723   2.316  1.7112  0.0610  0.2827
 8014TIP3    H245534   0.888   1.645   2.435 -0.0562 -0.7914  0.5272
 8015TIP3   OH245535   1.162   6.609   3.677  0.2367 -0.1882 -0.0888
 8015TIP3    H145536   1.201   6.526   3.648 -0.5031  0.1846 -2.3284
 8015TIP3    H245537   1.152   6.598   3.771  1.0837 -2.2510 -0.1711
 8016TIP3   OH245538   2.827   2.334  16.361  0.4901 -0.1098  0.2062
 8016TIP3    H145539   2.852   2.299  16.276  0.8758  1.7278 -0.4691
 8016TIP3    H245540   2.843   2.428  16.355  0.5477  0.0722  2.3251
 8017TIP3   OH245541   3.855   2.184  15.366 -0.0612 -0.6262  0.2806
 8017TIP3    H145542   3.850   2.198  15.272 -1.4580 -1.8207  0.1300
 8017TIP3    H245543   3.948   2.176  15.385  0.2946  0.6357 -0.8188
 8018TIP3   OH245544   0.755   0.749  16.274  0.0879  0.3143 -0.0196
 8018TIP3    H145545   0.816   0.744  16.347  0.1693  1.6558  0.0375
 8018TIP3    H245546   0.668   0.750  16.314  0.1564  1.9549  0.1516
 8019TIP3   OH245547   5.516   0.905   1.461 -0.3176 -0.7539  0.4492
 8019TIP3    H145548   5.578   0.841   1.426 -0.0549 -1.2311  1.7529
 8019TIP3    H245549   5.570   0.976   1.494 -0.4337 -1.2329  1.7128
 8020TIP3   OH245550   3.335   2.977  12.655  0.0378 -0.1802 -0.3484
 8020TIP3    H145551   3.325   3.051  12.716  0.2966  0.3222 -0.9046
 8020TIP3    H245552   3.382   3.014  12.580 -0.4639 -0.7331 -0.9502
 8021TIP3   OH245553   5.906   4.338  13.917  0.2825 -0.2642 -0.2225
 8021TIP3    H145554   5.872   4.427  13.929 -2.6343 -1.2376 -0.4351
 8021TIP3    H245555   5.877   4.313  13.829  0.1491 -1.7714  0.2169
 8022TIP3   OH245556   1.057   5.877  14.652  0.1150 -0.5822  0.6540
 8022TIP3    H145557   0.991   5.906  14.590 -2.0281 -1.8929  2.1852
 8022TIP3    H245558   1.128   5.843  14.598 -1.5869 -1.5158 -1.1154
 8023TIP3   OH245559   5.951   0.540  16.457 -0.6360 -0.7823  0.9153
 8023TIP3    H145560   6.013   0.546  16.530  2.5902 -0.6189 -1.6353
 8023TIP3    H245561   5.930   0.631  16.436  0.2636 -0.7264  0.2274
 8024TIP3   OH245562   0.749   6.047  10.946 -0.3841 -0.5097 -0.2957
 8024TIP3    H145563   0.809   6.044  11.021  0.8621  0.2818 -1.2096
 8024TIP3    H245564   0.748   6.139  10.920  0.8047 -1.0455 -2.4524
 8025TIP3   OH245565   4.587   5.323   4.725 -1.0790 -0.1997 -0.4161
 8025TIP3    H145566   4.501   5.366   4.731 -0.9878 -0.0237 -0.3853
 8025TIP3    H245567   4.635   5.373   4.660 -0.0908  1.2599  1.3464
 8026TIP3   OH245568   1.517   2.751  17.034  0.0144 -0.2589 -0.1450
 8026TIP3    H145569   1.542   2.693  16.963  0.5297 -2.9684  2.0983
 8026TIP3    H245570   1.437   2.713  17.070 -0.9712  1.7861  0.0079
 8027TIP3   OH245571   2.943   3.345  16.915  0.2281 -0.6780 -0.0690
 8027TIP3    H145572   3.034   3.320  16.930  0.8442  1.2557 -0.3765
 8027TIP3    H245573   2.945   3.398  16.835 -0.8612  0.9270  0.9125
 8028TIP3   OH245574   6.501   5.281  12.903 -0.3725  0.1661 -0.4229
 8028TIP3    H145575   6.575   5.261  12.845  0.6379 -0.0287  0.8898
 8028TIP3    H245576   6.452   5.199  12.909  0.8350 -0.4970  0.8170
 8029TIP3   OH245577   6.396   4.948   2.847  0.1484  0.5929 -0.2722
 8029TIP3    H145578   6.307   4.978   2.829  0.0953  0.1477 -0.8146
 8029TIP3    H245579   6.428   5.006   2.916 -0.7407  0.4388  0.2893
 8030TIP3   OH245580   5.156   6.826  13.016 -0.3459 -0.0019  0.0158
 8030TIP3    H145581   5.177   6.915  12.989  1.5301 -0.3937  0.0729
 8030TIP3    H245582   5.061   6.827  13.029 -0.2337  2.3441  1.2763
 8031TIP3   OH245583   4.290   2.585  11.620 -0.1598  0.4524 -0.4302
 8031TIP3    H145584   4.207   2.544  11.595 -0.3662 -0.5112  1.6031
 8031TIP3    H245585   4.267   2.674  11.645 -0.7657 -0.0463  0.8849
 8032TIP3   OH245586   1.564   4.443  15.727  0.1355 -0.4048 -0.1423
 8032TIP3    H145587   1.483   4.494  15.734  0.2760 -0.2124  0.1298
 8032TIP3    H245588   1.627   4.503  15.687  0.4759 -0.1484  0.7530
 8033TIP3   OH245589   0.313   4.235   0.309 -0.8868  0.2718 -0.0754
 8033TIP3    H145590   0.242   4.266   0.252 -0.6421  2.7354  0.8481
 8033TIP3    H245591   0.391   4.279   0.275 -0.3590  0.0192  0.7861
 8034TIP3   OH245592   0.767   6.619   4.485  0.3465 -0.2073 -0.2686
 8034TIP3    H145593   0.820   6.587   4.413  0.2681 -0.3091 -0.2809
 8034TIP3    H245594   0.825   6.679   4.533 -0.0210  0.9254 -1.1854
 8035TIP3   OH245595   6.618   1.184   3.290 -0.7634 -0.1367  0.2476
 8035TIP3    H145596   6.625   1.245   3.364 -1.8657 -0.4896  0.6645
 8035TIP3    H245597   6.638   1.237   3.213 -3.0127  1.1290  0.4584
 8036TIP3   OH245598   5.045   4.694   0.537  0.5983 -0.1538  0.3775
 8036TIP3    H145599   5.003   4.643   0.467 -0.8582 -1.9689  2.4390
 8036TIP3    H245600   5.022   4.785   0.517 -0.3420 -0.6764 -1.1197
 8037TIP3   OH245601   4.448   1.374   2.306  0.2092  0.8648 -0.1652
 8037TIP3    H145602   4.458   1.286   2.271 -1.5320  0.6990 -0.3258
 8037TIP3    H245603   4.538   1.406   2.316  0.8786 -0.9783  0.0889
 8038TIP3   OH245604   2.107   4.067  12.522 -0.1254  0.2046 -1.0968
 8038TIP3    H145605   2.190   4.031  12.554 -0.2351 -0.6096 -1.7182
 8038TIP3    H245606   2.128   4.157  12.497  0.6449 -0.1055 -1.5676
 8039TIP3   OH245607   0.006   1.336  11.140  0.0718 -0.2110  0.1997
 8039TIP3    H145608  -0.004   1.248  11.102 -0.4585  1.0271 -2.7408
 8039TIP3    H245609  -0.073   1.383  11.115  1.7046  2.0401 -1.0946
 8040TIP3   OH245610   3.668   0.140   1.057 -0.3261 -0.6402  0.2561
 8040TIP3    H145611   3.760   0.133   1.084 -0.6641 -0.5353  1.5219
 8040TIP3    H245612   3.657   0.073   0.990  1.2368  0.8525 -1.6250
 8041TIP3   OH245613   3.011   0.174  11.639  0.2359 -0.3654  0.2893
 8041TIP3    H145614   3.098   0.178  11.598 -0.5812  0.5326 -1.4692
 8041TIP3    H245615   2.950   0.163  11.565 -1.1610 -1.0623  1.4852
 8042TIP3   OH245616   5.622   5.790   0.599 -0.0990  0.8328 -0.2597
 8042TIP3    H145617   5.566   5.817   0.525 -1.3355 -0.2377  0.2440
 8042TIP3    H245618   5.562   5.786   0.673  1.0558  1.5007  0.7298
 8043TIP3   OH245619   2.908   1.475  16.943  0.1768  0.2033  0.4162
 8043TIP3    H145620   2.906   1.494  17.037  2.5676  2.0766  0.1949
 8043TIP3    H245621   2.927   1.560  16.902 -1.2381 -0.4666 -1.8434
 8044TIP3   OH245622   0.291   4.942  14.832  0.4846  0.2522 -0.1278
 8044TIP3    H145623   0.213   4.996  14.818  1.9503  3.0506  1.6663
 8044TIP3    H245624   0.266   4.882  14.902 -0.7576 -0.6456 -1.2648
 8045TIP3   OH245625   4.148   1.369   1.120 -0.4538  0.1429 -0.5830
 8045TIP3    H145626   4.191   1.392   1.038 -0.1687  0.6762 -0.2857
 8045TIP3    H245627   4.134   1.452   1.165  0.7213 -0.2331  0.5575
 8046TIP3   OH245628   1.259   5.644  11.665  0.3510 -0.1624 -0.0139
 8046TIP3    H145629   1.237   5.684  11.749  0.2667 -1.0255  0.3849
 8046TIP3    H245630   1.245   5.550  11.679  2.0723 -0.5212 -0.4304
 8047TIP3   OH245631   4.931   1.039  13.913 -0.1460 -0.1440  0.9790
 8047TIP3    H145632   4.871   0.973  13.879 -0.2209  0.3247  0.1641
 8047TIP3    H245633   5.017   1.009  13.886 -0.1550 -0.0755  0.8687
 8048TIP3   OH245634   3.082   1.170  12.335 -0.2458  0.7049  0.0537
 8048TIP3    H145635   3.162   1.148  12.383 -1.1250 -0.4445  1.0384
 8048TIP3    H245636   3.112   1.189  12.246  0.8869 -2.3864 -0.3409
 8049TIP3   OH245637   4.402   5.623   0.797  0.2192 -0.4521  0.0101
 8049TIP3    H145638   4.460   5.695   0.819 -0.4157  1.4947 -3.7715
 8049TIP3    H245639   4.337   5.622   0.867  1.9919  0.5383  1.7673
 8050TIP3   OH245640   0.338   2.726   0.030  0.3243  0.5381 -0.4530
 8050TIP3    H145641   0.411   2.683   0.075 -1.0851 -0.8114  0.6479
 8050TIP3    H245642   0.320   2.804   0.083  0.6067  0.5652 -0.3961
 8051TIP3   OH245643   3.622   1.110   1.301 -0.1627  0.0319 -0.5148
 8051TIP3    H145644   3.623   1.040   1.236  1.1419 -1.4988  1.0644
 8051TIP3    H245645   3.713   1.119   1.328 -0.8107 -0.2542  1.9687
 8052TIP3   OH245646   1.859   0.370   3.283  0.7028  0.0532 -0.5098
 8052TIP3    H145647   1.789   0.432   3.265 -0.2268 -0.5732  0.7943
 8052TIP3    H245648   1.936   0.425   3.298 -0.0436  0.8923  0.3779
 8053TIP3   OH245649   5.152   0.910  12.343 -0.5134 -0.8751  0.6282
 8053TIP3    H145650   5.218   0.932  12.277 -1.4013  0.8366  0.2557
 8053TIP3    H245651   5.196   0.848  12.401  1.6770  0.7468  0.8237
 8054TIP3   OH245652   4.850   5.351   2.531 -0.1685  0.0548 -0.4687
 8054TIP3    H145653   4.792   5.425   2.547  0.7200  0.7127 -0.1899
 8054TIP3    H245654   4.816   5.310   2.452 -1.3199  0.1018 -0.0173
 8055TIP3   OH245655   6.097   1.244   4.240  0.2973  0.1813  0.1138
 8055TIP3    H145656   6.038   1.319   4.250 -0.5554 -0.5360  0.5653
 8055TIP3    H245657   6.071   1.204   4.157 -1.1074 -1.2010  1.1850
 8056TIP3   OH245658   2.624   5.816  15.811  0.0339  0.2024 -0.4750
 8056TIP3    H145659   2.557   5.876  15.780  0.5151  0.2407 -1.4749
 8056TIP3    H245660   2.591   5.729  15.787 -0.7997  0.0116  1.2279
 8057TIP3   OH245661   5.254   1.213  14.558 -0.3654  0.6907  0.0183
 8057TIP3    H145662   5.333   1.202  14.611 -1.0199  1.6623  1.2616
 8057TIP3    H245663   5.286   1.219  14.468  1.1131  2.0780  0.5809
 8058TIP3   OH245664   0.823   3.232   2.011  0.2827 -0.0756 -0.2651
 8058TIP3    H145665   0.782   3.182   1.939 -1.6224  0.5371  0.3349
 8058TIP3    H245666   0.826   3.322   1.979 -1.5792  0.4013  0.7736
 8059TIP3   OH245667   3.189   2.460  16.842  0.6229  0.2042 -0.2641
 8059TIP3    H145668   3.177   2.450  16.936 -1.9008  0.1171 -0.5294
 8059TIP3    H245669   3.245   2.387  16.817 -0.6340 -1.1925  0.8475
 8060TIP3   OH245670   5.991   4.343   6.178  0.0764  0.5756 -0.4078
 8060TIP3    H145671   5.939   4.385   6.247 -0.4507 -0.9026  0.1191
 8060TIP3    H245672   6.010   4.414   6.117 -3.2708  1.0880 -1.0756
 8061TIP3   OH245673   0.942   4.310  10.320  0.9426  0.4561  0.0217
 8061TIP3    H145674   0.938   4.399  10.287 -0.4686  0.3464 -0.1357
 8061TIP3    H245675   1.034   4.284  10.308  1.3874  1.9129  0.1844
 8062TIP3   OH245676   0.357   1.567   1.484 -0.6036 -0.3073  0.5071
 8062TIP3    H145677   0.337   1.531   1.570  0.0593  0.4125  0.9764
 8062TIP3    H245678   0.388   1.656   1.502 -0.2599 -0.2189 -0.4618
 8063TIP3   OH245679   0.194   3.823   4.154  0.0266 -0.3813  0.1529
 8063TIP3    H145680   0.243   3.811   4.072  1.2010  0.1747  0.7355
 8063TIP3    H245681   0.116   3.769   4.145  0.2676 -0.5230 -1.2279
 8064TIP3   OH245682   1.548   0.453   2.608  0.1213 -0.1127 -0.2307
 8064TIP3    H145683   1.546   0.522   2.541  0.7211 -0.4009 -0.5554
 8064TIP3    H245684   1.590   0.379   2.565 -1.5536 -1.0910 -0.2371
 8065TIP3   OH245685   3.842   4.431  16.400  0.3782  0.0607 -0.0264
 8065TIP3    H145686   3.829   4.524  16.378  0.0368  0.5914  2.1939
 8065TIP3    H245687   3.758   4.403  16.437  0.0068 -1.5885 -1.9303
 8066TIP3   OH245688   0.026   1.961  13.280 -0.1827  0.3268 -0.5540
 8066TIP3    H145689  -0.059   1.926  13.253 -0.6748  1.4591 -0.5202
 8066TIP3    H245690   0.033   1.936  13.372 -1.2129  1.5589 -0.1094
 8067TIP3   OH245691   6.151   1.479   1.606  0.4446  0.0169 -0.4365
 8067TIP3    H145692   6.080   1.480   1.542  0.6653  0.6996 -0.6838
 8067TIP3    H245693   6.126   1.545   1.670 -0.0932 -1.1169  0.5560
 8068TIP3   OH245694   4.796   2.198   5.807 -0.2672  0.1026 -0.1607
 8068TIP3    H145695   4.829   2.287   5.814  1.4324 -0.4168 -1.0749
 8068TIP3    H245696   4.715   2.198   5.859 -0.6346  2.3082 -0.6587
 8069TIP3   OH245697   0.055   4.050   5.940 -0.0997 -0.0919  0.4111
 8069TIP3    H145698  -0.009   4.030   6.009  0.2800 -0.3127  0.7068
 8069TIP3    H245699   0.117   4.110   5.982  0.5318 -0.7727  0.4920
 8070TIP3   OH245700   0.776   6.183  12.374  0.1677 -0.2633 -0.2101
 8070TIP3    H145701   0.820   6.107  12.336  0.7567  0.4951 -1.0682
 8070TIP3    H245702   0.826   6.258  12.343 -0.2741  0.4697  0.8173
 8071TIP3   OH245703   3.954   5.531  13.501 -0.4844 -0.2207 -0.5738
 8071TIP3    H145704   3.894   5.465  13.537 -2.4981  0.6335 -2.1196
 8071TIP3    H245705   3.964   5.595  13.571 -2.7551  0.4308 -0.7619
 8072TIP3   OH245706   2.864   2.016   0.376 -0.0309 -0.2083  0.2726
 8072TIP3    H145707   2.848   1.922   0.373 -0.3602 -0.1457  0.1091
 8072TIP3    H245708   2.835   2.048   0.291 -0.6186  0.1547  0.6044
 8073TIP3   OH245709   4.477   6.565  16.028  0.0995  0.0992  0.0704
 8073TIP3    H145710   4.382   6.562  16.017 -0.4986  0.5350  3.8692
 8073TIP3    H245711   4.500   6.657  16.015  0.2092 -0.1164 -1.5575
 8074TIP3   OH245712   6.344   0.042   3.615 -0.0841 -0.4200 -0.3151
 8074TIP3    H145713   6.353   0.068   3.523  2.7419  3.3040  0.7893
 8074TIP3    H245714   6.251   0.024   3.626 -0.6746 -0.0895 -3.6413
 8075TIP3   OH245715   5.552   3.820   3.870 -0.2485  0.2151  0.0956
 8075TIP3    H145716   5.565   3.734   3.831  0.4985  0.0392  0.7001
 8075TIP3    H245717   5.526   3.802   3.960  1.0319  0.6011  0.5665
 8076TIP3   OH245718   3.410   1.027   0.619 -0.3798 -0.0980  0.1060
 8076TIP3    H145719   3.448   0.973   0.549  1.4437  1.6208 -0.3332
 8076TIP3    H245720   3.397   0.966   0.692 -0.4486 -1.5471 -1.0735
 8077TIP3   OH245721   5.844   6.554  15.078  0.4897  0.0590  0.3105
 8077TIP3    H145722   5.771   6.594  15.126  0.4973  1.0230 -0.4532
 8077TIP3    H245723   5.892   6.628  15.041  0.6806 -0.6416 -0.8960
 8078TIP3   OH245724   4.245   5.028  14.135 -0.3204  0.5360 -0.5199
 8078TIP3    H145725   4.302   5.003  14.061 -0.0740 -2.0365  0.4089
 8078TIP3    H245726   4.295   5.094  14.182  2.3662 -2.0705  0.6109
 8079TIP3   OH245727   2.221   0.836   4.150  0.2507  0.4865  0.1635
 8079TIP3    H145728   2.176   0.909   4.191  0.4951  0.8927 -0.2803
 8079TIP3    H245729   2.152   0.790   4.101  0.0917  0.4027  0.4680
 8080TIP3   OH245730   0.909   6.223   0.938  0.2318 -0.5153  0.8993
 8080TIP3    H145731   0.815   6.221   0.921  0.3543 -0.0348  0.1019
 8080TIP3    H245732   0.925   6.147   0.994 -0.4246 -1.4037 -0.0861
 8081TIP3   OH245733   0.361   3.929   4.607  0.4780  0.4284 -0.0938
 8081TIP3    H145734   0.301   3.931   4.533  0.7331  2.8317 -0.3321
 8081TIP3    H245735   0.310   3.892   4.679 -0.9043  1.2734 -0.6090
 8082TIP3   OH245736   3.088   5.653  12.314  0.3188  0.4490 -0.1589
 8082TIP3    H145737   3.014   5.674  12.257  0.4042 -0.2172 -0.5196
 8082TIP3    H245738   3.144   5.597  12.261  0.8426  0.5457  0.2828
 8083TIP3   OH245739   1.821   6.330   4.963 -0.1615 -0.4402 -0.2290
 8083TIP3    H145740   1.867   6.412   4.980  1.2182 -0.8770 -1.6015
 8083TIP3    H245741   1.849   6.272   5.034  0.0062 -0.1624 -0.0681
 8084TIP3   OH245742   6.075   3.808  13.061 -0.0383  0.0293 -0.2349
 8084TIP3    H145743   6.133   3.759  13.120  1.9172  0.8843 -1.3487
 8084TIP3    H245744   6.038   3.742  13.003 -1.6504 -0.7731  1.6078
 8085TIP3   OH245745   1.535   3.413   1.114 -0.5699  0.1724 -0.1676
 8085TIP3    H145746   1.609   3.379   1.064 -1.1295  0.2396 -1.0647
 8085TIP3    H245747   1.472   3.341   1.118  0.4160 -0.6809  2.5427
 8086TIP3   OH245748   4.007   1.583   5.251  0.6580  0.3456  0.0312
 8086TIP3    H145749   3.922   1.539   5.253  0.4679  0.7244  1.7165
 8086TIP3    H245750   4.071   1.512   5.253  0.3786  0.0755 -0.4800
 8087TIP3   OH245751   0.524   0.471   3.612  0.2517 -0.8685 -0.0378
 8087TIP3    H145752   0.504   0.561   3.588  0.7985 -0.5837  0.5484
 8087TIP3    H245753   0.573   0.437   3.537  0.3806 -0.5528 -0.0988
 8088TIP3   OH245754   0.553   5.395  13.696  0.3623 -0.3947  0.2933
 8088TIP3    H145755   0.607   5.371  13.620  0.9556  0.2941  0.4882
 8088TIP3    H245756   0.616   5.404  13.768  0.0891  1.1501  0.3589
 8089TIP3   OH245757   6.300   2.086  14.153  0.3596 -0.2539  0.0999
 8089TIP3    H145758   6.384   2.124  14.128  0.8402 -1.3328  0.0747
 8089TIP3    H245759   6.245   2.162  14.174  1.3276  0.4497  0.1164
 8090TIP3   OH245760   1.834   1.486   3.409  0.1051 -0.3231  0.3542
 8090TIP3    H145761   1.769   1.448   3.348  0.5604 -1.8417  0.7654
 8090TIP3    H245762   1.832   1.579   3.390 -1.1434 -0.5166 -0.6722
 8091TIP3   OH245763   3.662   4.229  16.507 -0.6603  0.4175  0.1598
 8091TIP3    H145764   3.626   4.151  16.466 -0.8105  0.0534  0.9672
 8091TIP3    H245765   3.670   4.206  16.600  1.1109  0.6854  0.1030
 8092TIP3   OH245766   1.989   1.858  15.773 -0.3762  0.3930 -0.0458
 8092TIP3    H145767   2.013   1.825  15.686 -1.4330 -0.2213 -0.1273
 8092TIP3    H245768   1.983   1.780  15.827  2.0750  0.9105  1.0939
 8093TIP3   OH245769   5.415   3.345   0.343  0.3432  0.9666  0.0047
 8093TIP3    H145770   5.484   3.363   0.279  0.9506  1.9771  0.9227
 8093TIP3    H245771   5.371   3.429   0.354 -0.5512  0.5093  0.0130
 8094TIP3   OH245772   6.808   6.234  13.515  0.2139  0.5982 -0.1894
 8094TIP3    H145773   6.863   6.221  13.592 -0.2539  0.7601  0.1795
 8094TIP3    H245774   6.865   6.278  13.452  0.7275  0.0736 -0.1007
 8095TIP3   OH245775   3.039   1.946  12.173  0.0430  0.2622  0.0727
 8095TIP3    H145776   2.958   1.899  12.150 -1.3289  1.7247  1.6065
 8095TIP3    H245777   3.009   2.032  12.202  2.0774  0.4933  1.7255
 8096TIP3   OH245778   2.361   5.507  12.169  0.2670 -0.4128 -0.0325
 8096TIP3    H145779   2.284   5.504  12.226  0.1509 -0.5551 -0.1958
 8096TIP3    H245780   2.376   5.600  12.154  0.0306 -0.3909 -0.1305
 8097TIP3   OH245781   1.667   1.175  15.568 -0.1122 -0.4101 -0.0325
 8097TIP3    H145782   1.700   1.172  15.479  0.2541 -0.9769  0.1173
 8097TIP3    H245783   1.717   1.108  15.615 -1.4090 -1.2586  0.2141
 8098TIP3   OH245784   5.470   6.150  11.966  0.0947 -0.0146  0.0446
 8098TIP3    H145785   5.518   6.125  12.045 -1.3149 -0.3399  0.8130
 8098TIP3    H245786   5.503   6.091  11.898  2.1179  0.9852  0.0856
 8099TIP3   OH245787   6.737   3.167  12.063 -0.1533 -0.2043 -0.7413
 8099TIP3    H145788   6.659   3.221  12.050 -1.5147 -1.2446  2.1280
 8099TIP3    H245789   6.763   3.140  11.975 -2.4050  1.0275 -1.8666
 8100TIP3   OH245790   2.141   5.226   1.768 -0.4408 -0.0236  0.2340
 8100TIP3    H145791   2.217   5.238   1.825 -0.3562 -1.4286  0.4392
 8100TIP3    H245792   2.155   5.141   1.727 -1.5354  0.0455 -0.3137
 8101TIP3   OH245793   0.896   5.722  11.674 -0.5641 -0.3244 -0.2173
 8101TIP3    H145794   0.971   5.737  11.731  0.9982 -3.5028 -1.1933
 8101TIP3    H245795   0.911   5.777  11.598 -0.4960  0.8214  0.6068
 8102TIP3   OH245796   3.136   4.965  12.083 -0.1563 -0.1686 -0.1658
 8102TIP3    H145797   3.192   4.923  12.018 -1.6933 -1.6491 -0.5957
 8102TIP3    H245798   3.168   5.055  12.087  0.7028 -0.3325 -2.1299
 8103TIP3   OH245799   6.786   6.603  11.535  0.1265  0.1321  0.1911
 8103TIP3    H145800   6.815   6.692  11.555  0.9377 -0.2529  0.7876
 8103TIP3    H245801   6.855   6.567  11.479  1.2621 -1.0386  2.2125
 8104TIP3   OH245802   1.229   3.294  11.933 -0.5038 -0.4766 -0.2939
 8104TIP3    H145803   1.158   3.358  11.940  1.2864  1.4306  1.8290
 8104TIP3    H245804   1.260   3.303  11.842 -1.9996 -0.3090 -0.8128
 8105TIP3   OH245805   6.314   0.661  11.555 -0.5007 -0.0634  0.0512
 8105TIP3    H145806   6.345   0.626  11.472 -0.6507  1.3179 -0.6296
 8105TIP3    H245807   6.219   0.654  11.550 -0.4536 -1.9639  1.0568
 8106TIP3   OH245808   3.025   6.662   2.064 -0.5319 -0.0719 -0.8270
 8106TIP3    H145809   2.932   6.652   2.042 -0.9601  0.5546  0.6312
 8106TIP3    H245810   3.070   6.602   2.004 -1.8034  0.1590 -2.0578
 8107TIP3   OH245811   1.909   6.095   2.045 -0.1829  0.5315 -0.1740
 8107TIP3    H145812   1.838   6.106   2.108  1.2446  1.4300  1.3655
 8107TIP3    H245813   1.950   6.012   2.068 -0.8961 -0.1639 -1.2876
 8108TIP3   OH245814   4.643   6.253  13.230  0.0238  0.2844  0.0489
 8108TIP3    H145815   4.659   6.159  13.231 -0.3983  0.2089  1.4674
 8108TIP3    H245816   4.559   6.263  13.186  0.7481  0.1453 -1.4338
 8109TIP3   OH245817   6.748   6.522   2.554 -0.0807  0.1825 -0.9636
 8109TIP3    H145818   6.685   6.468   2.507 -1.2975  0.0138  0.7436
 8109TIP3    H245819   6.795   6.569   2.486 -0.9136 -0.9384 -2.3748
 8110TIP3   OH245820   2.925   5.545  11.086  0.2289  0.2337 -0.0451
 8110TIP3    H145821   2.858   5.531  11.020 -0.0370 -1.9578  0.6311
 8110TIP3    H245822   2.886   5.607  11.147 -1.2237 -1.0116  0.3350
 8111TIP3   OH245823   6.003   5.358  14.744 -0.2002 -1.2015 -0.0648
 8111TIP3    H145824   6.044   5.285  14.698 -0.8222 -2.5323  1.3945
 8111TIP3    H245825   6.067   5.383  14.811  0.6089  0.5780 -1.4071
 8112TIP3   OH245826   4.463   1.111   1.454 -0.3813  0.2110  0.0785
 8112TIP3    H145827   4.539   1.089   1.400 -0.3444 -0.7971  0.5227
 8112TIP3    H245828   4.397   1.142   1.392 -0.0596 -0.1513 -0.4546
 8113TIP3   OH245829   6.133   0.707  15.018 -0.1774 -0.1832 -0.4014
 8113TIP3    H145830   6.088   0.771  15.072  0.2520 -0.3245  0.1394
 8113TIP3    H245831   6.077   0.696  14.941  0.5651  2.1417 -1.3682
 8114TIP3   OH245832   6.036   0.137   0.518  0.0256  0.1413  0.0596
 8114TIP3    H145833   6.081   0.091   0.590 -2.2793 -1.7449  0.4128
 8114TIP3    H245834   6.026   0.226   0.550 -0.0797 -0.4198  1.7198
 8115TIP3   OH245835   4.804   6.195   4.100 -0.6691 -0.2255  0.0870
 8115TIP3    H145836   4.817   6.267   4.038  0.2887 -0.8607 -0.4692
 8115TIP3    H245837   4.742   6.137   4.056 -1.9932  0.5772  0.8319
 8116TIP3   OH245838   0.961   0.009  13.703  0.3015 -0.0120  0.6694
 8116TIP3    H145839   0.874   0.006  13.664  0.3053 -0.6495  0.7011
 8116TIP3    H245840   1.019   0.037  13.632  0.3879 -1.6627  0.0528
 8117TIP3   OH245841   6.467   1.002  14.725  0.2048  0.2739 -0.2203
 8117TIP3    H145842   6.406   0.944  14.770  2.0223 -0.8627  0.9154
 8117TIP3    H245843   6.468   0.970  14.635 -0.0323 -0.4284  0.0176
 8118TIP3   OH245844   5.007   4.897   2.828 -0.3641 -0.0621 -0.3169
 8118TIP3    H145845   5.024   4.880   2.921  1.5954  0.6161 -0.4945
 8118TIP3    H245846   4.959   4.980   2.827  2.7040  1.8905  0.0688
 8119TIP3   OH245847   3.132   0.547  11.184  0.0322 -0.1280 -0.0998
 8119TIP3    H145848   3.218   0.506  11.178 -0.6042 -1.7596  1.0537
 8119TIP3    H245849   3.074   0.488  11.135 -0.6795  0.1209  0.4282
 8120TIP3   OH245850   0.527   4.625   2.408 -0.1545 -0.1363  0.4144
 8120TIP3    H145851   0.500   4.541   2.371 -1.7892 -0.3067  1.8661
 8120TIP3    H245852   0.613   4.641   2.371  0.4905 -2.7628  0.5937
 8121TIP3   OH245853   6.622   6.230  17.122  0.3882 -0.6501  0.3994
 8121TIP3    H145854   6.667   6.198  17.044 -0.5269 -0.4034 -0.2440
 8121TIP3    H245855   6.584   6.151  17.162  0.1542 -0.6738  0.1323
 8122TIP3   OH245856   1.277   1.480  14.988 -0.6276  0.3617  0.4223
 8122TIP3    H145857   1.348   1.426  14.953 -1.5008 -1.1602  0.9331
 8122TIP3    H245858   1.272   1.456  15.080 -2.2304 -0.0577  0.2456
 8123TIP3   OH245859   5.713   0.186  16.677 -0.5651  0.2315  0.2783
 8123TIP3    H145860   5.680   0.108  16.722 -2.2768  0.6738 -0.1476
 8123TIP3    H245861   5.636   0.242  16.668  0.0300  0.7579 -1.9471
 8124TIP3   OH245862   4.154   1.217   3.902 -0.3662  0.2146 -0.6618
 8124TIP3    H145863   4.166   1.124   3.883 -1.0877  0.2722 -1.4623
 8124TIP3    H245864   4.217   1.262   3.845  0.7579  0.1835  0.5180
 8125TIP3   OH245865   2.055   5.047   5.512  0.0213  0.4355 -0.5913
 8125TIP3    H145866   2.012   5.014   5.592  0.0264 -0.3993 -0.9295
 8125TIP3    H245867   2.093   5.131   5.539  0.2618  0.0370  0.3643
 8126TIP3   OH245868   2.735   2.942  13.135 -0.2216 -0.2107 -0.0718
 8126TIP3    H145869   2.728   2.849  13.113  0.8999 -0.0449 -1.2419
 8126TIP3    H245870   2.795   2.978  13.069 -0.7015  1.3602  0.3043
 8127TIP3   OH245871   5.290   5.264  16.879  0.1632  0.0687  0.0092
 8127TIP3    H145872   5.296   5.346  16.927  0.3182 -0.4920  0.9659
 8127TIP3    H245873   5.357   5.271  16.811 -0.7414  1.2887 -0.8180
 8128TIP3   OH245874   4.842   3.658  13.316  0.6168  0.0904  0.0286
 8128TIP3    H145875   4.883   3.584  13.362  1.9702 -0.8622 -2.5461
 8128TIP3    H245876   4.768   3.620  13.270 -0.4564  0.9592  0.9545
 8129TIP3   OH245877   5.821   0.163  13.685 -0.7384 -0.3969  0.6708
 8129TIP3    H145878   5.799   0.152  13.592  0.2334 -0.5347  0.4437
 8129TIP3    H245879   5.912   0.192  13.684 -0.1865 -1.9693  1.6169
 8130TIP3   OH245880   1.649   6.218   2.491  0.0479  0.0733  0.3251
 8130TIP3    H145881   1.632   6.242   2.400 -0.9697  0.6246  0.6461
 8130TIP3    H245882   1.739   6.184   2.491  0.1343  0.2781 -0.8358
 8131TIP3   OH245883   0.823   2.657   6.130  0.1167  0.3589  0.1842
 8131TIP3    H145884   0.798   2.749   6.119 -1.1585 -0.0594 -0.7656
 8131TIP3    H245885   0.787   2.614   6.052 -0.0985 -1.0916  1.0541
 8132TIP3   OH245886   5.200   2.189  12.301 -0.5977 -0.3853 -0.2534
 8132TIP3    H145887   5.281   2.196  12.251 -1.1432 -0.1838 -1.1458
 8132TIP3    H245888   5.212   2.248  12.375 -0.4171  0.6483 -1.0804
 8133TIP3   OH245889   0.921   5.144  11.776  0.6916 -0.5784 -0.0841
 8133TIP3    H145890   0.954   5.234  11.784 -1.5977  0.4600 -1.4178
 8133TIP3    H245891   0.967   5.096  11.845  1.7318  1.6741  0.9089
 8134TIP3   OH245892   5.401   5.226  12.548  1.0173  0.2224 -0.0334
 8134TIP3    H145893   5.312   5.233  12.582  1.8013  1.2675  1.9721
 8134TIP3    H245894   5.390   5.229  12.453 -1.0078  1.5591  0.1587
 8135TIP3   OH245895   6.566   3.976   1.671 -0.9401  0.3008  0.5055
 8135TIP3    H145896   6.531   3.922   1.600 -1.1953  1.2825 -0.1484
 8135TIP3    H245897   6.508   3.959   1.745 -0.0413 -1.5445  0.8317
 8136TIP3   OH245898   3.003   3.518  11.081  0.2559 -0.3580  0.0067
 8136TIP3    H145899   2.914   3.503  11.112 -0.0932 -0.6752 -1.1142
 8136TIP3    H245900   3.047   3.433  11.092  0.5354 -0.1125  0.8814
 8137TIP3   OH245901   4.081   3.087  15.353 -0.3237  0.2099 -0.1249
 8137TIP3    H145902   4.037   3.041  15.282  0.4321 -0.4914 -0.1629
 8137TIP3    H245903   4.031   3.167  15.365 -0.5070  0.3023 -1.3900
 8138TIP3   OH245904   0.633   6.547   3.468 -0.4756 -0.1089 -0.5815
 8138TIP3    H145905   0.563   6.485   3.444  0.3964 -1.2763 -0.2099
 8138TIP3    H245906   0.684   6.557   3.388 -1.3372  1.1653 -1.0075
 8139TIP3   OH245907   5.855   4.806  16.345  0.1730 -0.2434  0.2623
 8139TIP3    H145908   5.922   4.845  16.402 -0.6606  1.4349  0.1364
 8139TIP3    H245909   5.897   4.728  16.308  1.1976 -0.6265  2.1084
 8140TIP3   OH245910   6.448   5.295  14.927 -0.5376  0.1754 -0.1622
 8140TIP3    H145911   6.453   5.317  15.020 -0.2236 -1.9086  0.3583
 8140TIP3    H245912   6.536   5.266  14.904 -0.5959  0.7294 -1.1571
 8141TIP3   OH245913   5.470   0.329  11.748 -0.4084 -0.4054 -0.5621
 8141TIP3    H145914   5.409   0.307  11.678  0.2800  0.7858 -1.5869
 8141TIP3    H245915   5.509   0.412  11.721 -0.6844  0.5035  1.6334
 8142TIP3   OH245916   3.293   2.869  12.034  0.4854 -0.2403 -0.1660
 8142TIP3    H145917   3.375   2.917  12.020  1.0021 -0.9964  0.2377
 8142TIP3    H245918   3.254   2.911  12.111 -0.5728  1.5109 -1.5596
 8143TIP3   OH245919   2.583   2.250  16.730  0.1795 -0.1884 -0.0065
 8143TIP3    H145920   2.610   2.205  16.651 -1.6782 -1.9385  0.2730
 8143TIP3    H245921   2.664   2.267  16.778  1.1510 -0.8888 -1.3532
 8144TIP3   OH245922   6.226   3.353   5.460 -0.4861 -0.0325 -0.0823
 8144TIP3    H145923   6.310   3.380   5.495 -0.6772  1.6199 -0.7890
 8144TIP3    H245924   6.162   3.411   5.503 -1.0681 -0.1558 -0.7555
 8145TIP3   OH245925   4.803   5.392  12.345 -0.3647  0.3878  0.5369
 8145TIP3    H145926   4.738   5.434  12.289 -0.8437 -0.0817  0.7358
 8145TIP3    H245927   4.876   5.372  12.285 -0.9763 -0.3435  0.0171
 8146TIP3   OH245928   1.221   6.673   3.992  0.4264  0.9031  0.3884
 8146TIP3    H145929   1.135   6.713   3.978  0.8347  2.0857  1.1389
 8146TIP3    H245930   1.203   6.593   4.042 -0.2563  1.0416  0.3661
 8147TIP3   OH245931   2.407   5.617  12.967  0.2290 -0.2438  0.3767
 8147TIP3    H145932   2.385   5.535  13.012  1.8449  0.4000  2.5036
 8147TIP3    H245933   2.364   5.610  12.882  0.8191 -3.5824  0.2148
 8148TIP3   OH245934   1.304   3.130  12.784  0.4710 -0.5322  0.1905
 8148TIP3    H145935   1.286   3.036  12.792  2.1957 -0.9640 -0.6438
 8148TIP3    H245936   1.222   3.172  12.811 -0.1375 -2.2453  1.2022
 8149TIP3   OH245937   1.653   4.360   0.463  0.7497  0.0068  0.3308
 8149TIP3    H145938   1.621   4.321   0.545  1.5482  0.8611  1.0749
 8149TIP3    H245939   1.575   4.395   0.421  0.4127  0.1260  1.0450
 8150TIP3   OH245940   4.472   3.423   4.319 -0.0582  0.1087  0.0463
 8150TIP3    H145941   4.421   3.379   4.388 -0.1211  0.6892  0.3735
 8150TIP3    H245942   4.408   3.478   4.274 -0.0172 -0.2720 -0.4859
 8151TIP3   OH245943   0.988   1.778   5.581 -0.1896 -0.1141  0.2852
 8151TIP3    H145944   1.025   1.757   5.667  0.4504 -0.4627 -0.0640
 8151TIP3    H245945   1.064   1.793   5.525 -0.5842 -0.4795 -0.3629
 8152TIP3   OH245946   1.979   6.329   1.901 -0.0313 -0.0286  0.1506
 8152TIP3    H145947   1.970   6.408   1.954  0.0504  0.2729 -0.2805
 8152TIP3    H245948   1.947   6.259   1.958  1.8992 -0.0264  1.3486
 8153TIP3   OH245949   0.255   2.942  13.170 -0.1196 -0.1030  0.1329
 8153TIP3    H145950   0.225   3.011  13.229  2.0168 -0.2052  1.4591
 8153TIP3    H245951   0.201   2.866  13.192 -1.2749  0.6396 -0.0744
 8154TIP3   OH245952   2.249   3.414   1.591  0.5786  0.2861 -0.5370
 8154TIP3    H145953   2.275   3.378   1.506  1.2946  1.0313 -0.6532
 8154TIP3    H245954   2.223   3.338   1.643 -0.5010 -0.1250 -1.6291
 8155TIP3   OH245955   3.861   5.675  14.813 -0.2437 -0.2855 -0.1407
 8155TIP3    H145956   3.819   5.760  14.824 -0.6432 -0.4993 -0.0083
 8155TIP3    H245957   3.807   5.629  14.749  0.7837  0.0936 -1.3225
 8156TIP3   OH245958   3.912   2.097  15.991  0.5479  0.3820  0.1642
 8156TIP3    H145959   3.992   2.142  15.964  0.7893  0.0541  0.3232
 8156TIP3    H245960   3.919   2.011  15.951 -0.8390  1.1088 -1.7663
 8157TIP3   OH245961   4.821   2.632  17.128 -0.5573 -0.6073  0.4029
 8157TIP3    H145962   4.827   2.663  17.038  1.2117 -2.1625 -0.0778
 8157TIP3    H245963   4.905   2.590  17.144 -1.5754 -2.1052  2.1165
 8158TIP3   OH245964   5.401   5.242   0.635  0.5110 -0.0669  0.1725
 8158TIP3    H145965   5.420   5.180   0.564 -0.3344  0.0016 -0.1279
 8158TIP3    H245966   5.307   5.233   0.649  0.8269 -0.8671  2.0395
 8159TIP3   OH245967   3.096   0.043   1.558 -0.2954 -0.0333  0.0930
 8159TIP3    H145968   3.055   0.123   1.589  1.5889  0.1602  2.3767
 8159TIP3    H245969   3.190   0.063   1.554  0.0890 -1.7251 -0.5646
 8160TIP3   OH245970   4.803   4.076  13.144 -0.3376 -0.3732 -0.3216
 8160TIP3    H145971   4.807   4.089  13.049 -0.8008 -0.8851 -0.4137
 8160TIP3    H245972   4.876   4.128  13.178 -2.0715  2.4652 -0.6514
 8161TIP3   OH245973   6.639   1.674   0.848 -0.2925 -0.4076  0.4339
 8161TIP3    H145974   6.611   1.582   0.848 -0.6862 -0.4961 -3.7857
 8161TIP3    H245975   6.709   1.677   0.783  1.1752  2.0007  1.9896
 8162TIP3   OH245976   0.079   5.521   3.313  0.2301  0.7034  0.1178
 8162TIP3    H145977   0.138   5.548   3.383  0.4682  0.2297  0.1097
 8162TIP3    H245978  -0.008   5.539   3.346  0.2887 -0.3551  0.9251
 8163TIP3   OH245979   2.361   1.463  14.032  0.0497  0.8250  0.2494
 8163TIP3    H145980   2.446   1.485  14.071 -0.4311  0.4643  1.5679
 8163TIP3    H245981   2.370   1.484  13.939  1.2061  1.8757  0.5781
 8164TIP3   OH245982   5.170   6.717  10.792 -0.3102  0.2614  0.3409
 8164TIP3    H145983   5.174   6.719  10.696  1.0887 -0.8217  0.3365
 8164TIP3    H245984   5.209   6.633  10.816 -1.3026  0.1891  1.8544
 8165TIP3   OH245985   2.804   3.969   4.432  0.2109  0.2047  0.0149
 8165TIP3    H145986   2.770   3.959   4.521 -0.4754 -0.0336 -0.2645
 8165TIP3    H245987   2.892   3.933   4.436 -0.3592 -1.2575  0.2468
 8166TIP3   OH245988   3.567   2.596   3.847 -0.2582 -0.2733  0.0376
 8166TIP3    H145989   3.587   2.653   3.772  0.3292  0.6804  0.8842
 8166TIP3    H245990   3.636   2.529   3.844 -0.7020 -0.7071 -0.7225
 8167TIP3   OH245991   3.082   3.439   2.961  0.0551 -0.0825 -0.6390
 8167TIP3    H145992   3.004   3.398   2.998  0.1239 -0.0030 -0.4010
 8167TIP3    H245993   3.087   3.524   3.005  0.2597 -0.0749 -0.6755
 8168TIP3   OH245994   1.346   3.229   4.336  0.9019  0.5321 -0.8052
 8168TIP3    H145995   1.353   3.222   4.241  1.5571  0.4585 -0.7565
 8168TIP3    H245996   1.304   3.148   4.364  0.5442  0.6327 -1.0476
 8169TIP3   OH245997   6.715   0.972   0.084  0.0950  0.1966  0.1619
 8169TIP3    H145998   6.717   0.991   0.178 -1.2932  1.7499 -0.0785
 8169TIP3    H245999   6.805   0.948   0.062  0.3706 -0.5766  1.9444
 8170TIP3   OH246000   1.202   1.480   5.413 -0.0209 -0.0516 -0.5202
 8170TIP3    H146001   1.148   1.407   5.443  0.2497 -0.5154 -1.1405
 8170TIP3    H246002   1.291   1.457   5.441  0.2456 -0.5265 -1.7183
 8171TIP3   OH246003   3.233   0.769  15.480 -0.0463  0.0332 -0.8415
 8171TIP3    H146004   3.309   0.800  15.530 -0.4817  0.6072 -0.5222
 8171TIP3    H246005   3.271   0.725  15.404  0.6273 -0.5576 -0.1959
 8172TIP3   OH246006   6.276   3.269   3.789  0.2931 -0.4340 -0.0498
 8172TIP3    H146007   6.198   3.308   3.751 -0.2261  0.2015  1.5804
 8172TIP3    H246008   6.281   3.182   3.749 -2.3033 -1.2087  1.1186
 8173TIP3   OH246009   1.685   5.661  13.732 -0.4629  0.4501  0.3633
 8173TIP3    H146010   1.595   5.651  13.762 -0.3795  1.3390  0.9651
 8173TIP3    H246011   1.735   5.600  13.786 -0.7191 -0.2295 -0.1424
 8174TIP3   OH246012   2.569   4.913   2.491 -0.6933 -0.3245  0.0679
 8174TIP3    H146013   2.577   4.874   2.404  0.6328  0.2939 -0.1080
 8174TIP3    H246014   2.510   4.853   2.538 -4.1887  1.0359 -2.1695
 8175TIP3   OH246015   6.291   1.251  14.166  0.3418 -0.1612 -0.0360
 8175TIP3    H146016   6.230   1.321  14.144 -0.1246 -0.3983  0.4977
 8175TIP3    H246017   6.306   1.205  14.083  1.5105  1.2246 -0.6435
 8176TIP3   OH246018   6.692   3.597   1.877 -0.3236 -0.2427  0.6275
 8176TIP3    H146019   6.781   3.595   1.844  0.1600  0.0319  1.8561
 8176TIP3    H246020   6.640   3.555   1.809  0.0765  3.1272 -1.9989
 8177TIP3   OH246021   0.115   5.171  13.591 -0.0322  0.4783 -0.3967
 8177TIP3    H146022   0.190   5.219  13.625  0.9670  0.5126 -2.5066
 8177TIP3    H246023   0.154   5.104  13.534 -1.6041  0.3714 -1.3814
 8178TIP3   OH246024   6.623   4.509   5.167  0.1305  0.1408 -0.5981
 8178TIP3    H146025   6.533   4.507   5.134 -0.0695 -0.1338 -0.0543
 8178TIP3    H246026   6.652   4.418   5.163  0.3985  0.2329 -0.7977
 8179TIP3   OH246027   1.749   1.049   1.209 -0.1993 -0.5470  0.5739
 8179TIP3    H146028   1.662   1.060   1.169  0.5900 -0.4056 -1.1684
 8179TIP3    H246029   1.794   1.131   1.192  0.6748 -1.0441  0.4700
 8180TIP3   OH246030   3.135   3.800  11.823  0.1372 -0.2605 -0.3493
 8180TIP3    H146031   3.193   3.836  11.889 -0.3368  0.3964 -0.2787
 8180TIP3    H246032   3.047   3.810  11.860  0.0292 -2.1956  0.0038
 8181TIP3   OH246033   0.614   6.393   0.122  0.0210  0.7765 -0.2413
 8181TIP3    H146034   0.555   6.320   0.103 -0.9150  0.9727  1.6629
 8181TIP3    H246035   0.702   6.354   0.123 -0.5954 -0.7269  2.3287
 8182TIP3   OH246036   0.897   4.066   1.844 -0.6192 -0.3461  0.2015
 8182TIP3    H146037   0.922   4.089   1.933 -0.1408  1.6213 -0.3995
 8182TIP3    H246038   0.811   4.105   1.832  0.0056  0.8122 -0.6919
 8183TIP3   OH246039   4.228   0.231  10.689  0.1398  0.5033  0.1389
 8183TIP3    H146040   4.181   0.216  10.771 -1.9317 -1.6825 -1.2835
 8183TIP3    H246041   4.286   0.155  10.680 -0.4762  0.1221 -0.8694
 8184TIP3   OH246042   1.240   5.348   0.991  0.2165  0.0544  0.0180
 8184TIP3    H146043   1.235   5.396   1.073  2.1050 -0.3459  0.4150
 8184TIP3    H246044   1.149   5.331   0.967 -0.3926  1.0727  1.4784
 8185TIP3   OH246045   2.110   2.675   3.192  0.2822  0.3805  0.2557
 8185TIP3    H146046   2.125   2.609   3.124 -0.6406 -1.2129  1.5135
 8185TIP3    H246047   2.090   2.755   3.143 -1.7107 -1.0036 -1.4314
 8186TIP3   OH246048   5.009   3.319   3.036 -0.5670  0.1965  0.1023
 8186TIP3    H146049   5.016   3.376   2.960 -2.4775 -0.7092 -0.8402
 8186TIP3    H246050   4.980   3.235   3.000  2.2608 -1.4846  1.4040
 8187TIP3   OH246051   3.440   2.676   0.317 -0.2799 -0.5438  0.1523
 8187TIP3    H146052   3.445   2.727   0.236  0.9118 -0.8207  0.0313
 8187TIP3    H246053   3.513   2.707   0.370 -0.6765 -0.8035  0.8707
 8188TIP3   OH246054   1.515   6.434   4.777  0.0253  0.1806 -0.0710
 8188TIP3    H146055   1.584   6.500   4.783 -1.1721  1.3247  2.3127
 8188TIP3    H246056   1.453   6.471   4.714 -1.0487  1.8632  1.8502
 8189TIP3   OH246057   5.388   3.102   3.940  0.0169  0.3476 -0.1891
 8189TIP3    H146058   5.322   3.161   3.976 -0.5993  0.0145 -0.7490
 8189TIP3    H246059   5.338   3.042   3.884  0.4174 -1.5673  1.3864
 8190TIP3   OH246060   2.220   4.916   3.046  0.5057 -0.4817  0.4786
 8190TIP3    H146061   2.206   4.963   2.964 -1.1850  0.9762  1.5297
 8190TIP3    H246062   2.304   4.949   3.078  0.2398  0.4251  0.2700
 8191TIP3   OH246063   4.384   5.061   5.000  0.1355  0.3626  0.3784
 8191TIP3    H146064   4.297   5.072   5.037 -0.9911 -0.5249 -1.8473
 8191TIP3    H246065   4.439   5.037   5.075 -1.9646 -1.2212  1.5178
 8192TIP3   OH246066   4.344   2.520  13.108  0.1594 -0.0784  0.1132
 8192TIP3    H146067   4.267   2.473  13.076  0.5889  0.2178 -1.4103
 8192TIP3    H246068   4.415   2.456  13.103  0.4788  0.3300 -0.7215
 8193TIP3   OH246069   4.863   3.696   6.643  0.1563 -0.0808 -0.1954
 8193TIP3    H146070   4.901   3.616   6.679  2.9022  1.2786  0.2385
 8193TIP3    H246071   4.842   3.749   6.719  0.9317  0.6614 -0.4825
 8194TIP3   OH246072   1.613   2.836  14.743  0.1070  0.1604  0.2564
 8194TIP3    H146073   1.533   2.870  14.784  0.3622  1.1423 -0.0175
 8194TIP3    H246074   1.594   2.837  14.649  0.4061  0.3172  0.1967
 8195TIP3   OH246075   4.768   0.274   3.207  0.3547 -0.6648  0.5569
 8195TIP3    H146076   4.828   0.256   3.135  0.2587 -2.1704  0.8014
 8195TIP3    H246077   4.682   0.282   3.165  0.3063 -1.4812  0.4762
 8196TIP3   OH246078   0.507   4.125  16.184 -0.3674 -0.1495  1.2896
 8196TIP3    H146079   0.476   4.058  16.122  0.3585 -0.9388  1.7611
 8196TIP3    H246080   0.490   4.208  16.140 -0.2555 -0.6819  0.2072
 8197TIP3   OH246081   0.725   6.808   0.839 -0.1192  0.1104 -0.5033
 8197TIP3    H146082   0.792   6.834   0.775  1.3329 -1.7894  0.1691
 8197TIP3    H246083   0.750   6.854   0.919  0.4290 -0.6315 -0.2409
 8198TIP3   OH246084   1.182   6.729   5.441 -0.7108 -0.2348 -0.6269
 8198TIP3    H146085   1.203   6.809   5.490  0.9051 -0.1358 -1.4371
 8198TIP3    H246086   1.091   6.742   5.413 -0.3502  1.5417 -1.1279
 8199TIP3   OH246087   2.643   0.527  10.686 -0.5703 -0.5175  0.4236
 8199TIP3    H146088   2.668   0.478  10.764 -0.2759 -0.4822  0.3517
 8199TIP3    H246089   2.576   0.473  10.643  0.0859 -1.0763  0.0990
 8200TIP3   OH246090   3.173   6.176   5.089  0.7045 -0.3269  0.1391
 8200TIP3    H146091   3.238   6.132   5.035  1.3256 -1.1365  1.4713
 8200TIP3    H246092   3.113   6.106   5.115  0.7595 -0.0934  0.9409
 8201TIP3   OH246093   5.659   3.609   5.933 -0.0617  0.1260  0.3996
 8201TIP3    H146094   5.718   3.684   5.937 -0.6683  0.5592  1.9000
 8201TIP3    H246095   5.650   3.581   6.024 -2.5023  0.3646  0.2932
 8202TIP3   OH246096   2.414   5.956  15.727  0.0769  0.3389  0.1057
 8202TIP3    H146097   2.437   6.032  15.673  0.1654 -0.5018 -1.0723
 8202TIP3    H246098   2.378   5.893  15.665 -0.4522 -0.4012  1.1483
 8203TIP3   OH246099   1.908   5.912   4.071 -0.2021  0.2391  0.3907
 8203TIP3    H146100   1.950   5.967   4.138  4.6385 -1.4085 -0.8985
 8203TIP3    H246101   1.928   5.956   3.988 -1.9008 -0.2452 -0.3095
 8204TIP3   OH246102   1.719   0.984  13.790  0.1210  0.1491 -0.3452
 8204TIP3    H146103   1.777   0.919  13.830 -0.3959 -0.5943 -0.7849
 8204TIP3    H246104   1.712   1.053  13.856  2.3217  0.7712 -0.6892
 8205TIP3   OH246105   1.261   1.382   2.953  0.0564  0.2311  0.2440
 8205TIP3    H146106   1.255   1.371   2.858 -1.6931  0.5841  0.2762
 8205TIP3    H246107   1.212   1.462   2.971  1.3861  0.8476  1.3432
 8206TIP3   OH246108   0.137   0.041   3.999  0.0460 -0.2145  0.1161
 8206TIP3    H146109   0.087   0.008   3.924  1.2895 -1.0351 -0.3905
 8206TIP3    H246110   0.153   0.133   3.979  2.4935 -0.9470 -1.9503
 8207TIP3   OH246111   5.523   4.422   1.233 -0.3712  0.3369  0.1210
 8207TIP3    H146112   5.449   4.437   1.174  0.2366 -0.0024 -0.7569
 8207TIP3    H246113   5.517   4.491   1.298 -1.3952  0.3800 -0.0116
 8208TIP3   OH246114   0.666   4.322  14.772  0.0524  0.5600 -0.0588
 8208TIP3    H146115   0.716   4.323  14.854 -0.9399  0.5421  0.5529
 8208TIP3    H246116   0.704   4.392  14.720 -0.9333  2.2529  1.4048
 8209TIP3   OH246117   0.292   4.510  15.495  0.2997 -0.4045 -0.2071
 8209TIP3    H146118   0.346   4.543  15.566 -1.4428  1.1010  0.5018
 8209TIP3    H246119   0.228   4.453  15.538  0.2754 -0.8298 -0.7955
 8210TIP3   OH246120   4.794   1.860   3.783 -0.8850  0.3121  0.1402
 8210TIP3    H146121   4.821   1.815   3.703  0.2687 -0.8250  1.1184
 8210TIP3    H246122   4.746   1.793   3.832 -0.1974  0.5038  1.0890
 8211TIP3   OH246123   0.557   4.654   3.376  0.0280 -1.2277 -0.0688
 8211TIP3    H146124   0.462   4.665   3.370 -0.0594 -0.8585  1.5411
 8211TIP3    H246125   0.579   4.592   3.306 -1.5903 -2.3617  0.3708
 8212TIP3   OH246126   1.562   5.086  14.252  0.0759  0.3132  0.0627
 8212TIP3    H146127   1.610   5.004  14.267  1.4290  1.1926  0.7598
 8212TIP3    H246128   1.478   5.072  14.295 -0.0089 -0.9858 -0.4806
 8213TIP3   OH246129   6.613   0.761   1.469  0.3119  0.0444 -0.9453
 8213TIP3    H146130   6.672   0.818   1.420 -0.2697  1.6839  0.1876
 8213TIP3    H246131   6.659   0.744   1.552 -1.2731  2.5007  0.5593
 8214TIP3   OH246132   0.670   4.565  15.901  0.7235  0.1283 -0.1024
 8214TIP3    H146133   0.693   4.657  15.918 -1.8104  0.6407  1.0858
 8214TIP3    H246134   0.605   4.544  15.969 -1.4312 -1.4001 -2.4543
 8215TIP3   OH246135   3.698   2.191  15.786  0.0778 -0.5065 -0.1971
 8215TIP3    H146136   3.741   2.226  15.708  2.1456 -1.4057  0.4944
 8215TIP3    H246137   3.701   2.263  15.849 -0.6749 -0.1236 -0.5830
 8216TIP3   OH246138   4.310   1.374  13.639 -0.7574 -0.1033 -0.1543
 8216TIP3    H146139   4.336   1.289  13.605 -1.6579 -0.8086  0.8401
 8216TIP3    H246140   4.231   1.397  13.590 -0.3310  0.3142 -0.6476
 8217TIP3   OH246141   0.769   0.267   1.135  0.0255  0.4613  0.6271
 8217TIP3    H146142   0.802   0.355   1.153  1.3638 -0.2441  1.8130
 8217TIP3    H246143   0.791   0.252   1.043 -2.1070  2.0997 -0.2562
 8218TIP3   OH246144   5.121   0.815   0.924 -0.2182 -0.2029  0.0348
 8218TIP3    H146145   5.088   0.863   0.848 -1.6080 -1.6320 -0.3275
 8218TIP3    H246146   5.045   0.807   0.982  0.8061  0.8383  1.6004
 8219TIP3   OH246147   3.145   5.520   3.631  0.1259 -0.1838  0.0262
 8219TIP3    H146148   3.079   5.569   3.680 -0.2057 -0.0219 -0.5771
 8219TIP3    H246149   3.185   5.462   3.696 -0.0572  0.2882  0.5643
 8220TIP3   OH246150   1.040   1.260  12.499 -0.7553 -0.2221 -0.0585
 8220TIP3    H146151   0.970   1.242  12.437 -2.3565  0.4029  1.4724
 8220TIP3    H246152   1.044   1.356  12.504 -1.2149 -0.2535  1.3590
 8221TIP3   OH246153   0.132   3.410  16.456 -0.6742 -0.1421  0.1080
 8221TIP3    H146154   0.063   3.349  16.480 -0.1972 -0.2083  1.3936
 8221TIP3    H246155   0.119   3.485  16.513  0.3056 -0.1605  0.3733
 8222TIP3   OH246156   3.573   2.589  15.850 -0.1077  0.0306 -0.4901
 8222TIP3    H146157   3.611   2.653  15.910 -2.2264  0.9305 -0.0304
 8222TIP3    H246158   3.601   2.505  15.884 -1.0177  0.5261  1.6564
 8223TIP3   OH246159   6.137   0.905   0.109 -0.0740  0.6565 -0.1720
 8223TIP3    H146160   6.230   0.884   0.105 -0.5860 -1.6653 -1.8580
 8223TIP3    H246161   6.100   0.840   0.169 -0.7609  0.8406 -0.3862
 8224TIP3   OH246162   3.677   4.789  13.031 -0.0982  0.1658 -0.2932
 8224TIP3    H146163   3.670   4.701  12.995 -1.1462 -0.1246  0.5958
 8224TIP3    H246164   3.649   4.781  13.122  0.9326  1.2020  0.1431
 8225TIP3   OH246165   2.380   1.993  16.825 -0.2894 -0.3248 -0.0184
 8225TIP3    H146166   2.455   2.014  16.770  0.4113 -1.1826  0.5917
 8225TIP3    H246167   2.345   2.078  16.852  1.3385  0.0904  0.8746
 8226TIP3   OH246168   3.939   3.750   2.935  0.7088 -0.1375 -0.0290
 8226TIP3    H146169   3.846   3.752   2.913  0.7362  0.6665 -0.1060
 8226TIP3    H246170   3.942   3.709   3.021  0.3508 -0.7939 -0.3240
 8227TIP3   OH246171   2.250   1.215   4.358 -0.3304 -0.3268 -0.3405
 8227TIP3    H146172   2.236   1.294   4.411  0.3981 -1.0211  0.9426
 8227TIP3    H246173   2.164   1.174   4.352 -0.3951 -0.3335  0.5023
 8228TIP3   OH246174   0.844   1.117   5.746  0.2411 -0.7405  0.2211
 8228TIP3    H146175   0.807   1.158   5.668  3.3882 -1.1893 -1.6909
 8228TIP3    H246176   0.911   1.178   5.776 -0.0193 -1.1896  1.8036
 8229TIP3   OH246177   6.653   0.517  16.700  0.1567  0.6726 -0.3696
 8229TIP3    H146178   6.684   0.531  16.789  1.4077 -1.5256 -0.3851
 8229TIP3    H246179   6.604   0.434  16.705 -0.4109  0.9122 -1.5872
 8230TIP3   OH246180   2.820   0.675  13.434 -0.4758 -0.3137  0.2986
 8230TIP3    H146181   2.789   0.658  13.345 -0.2018  0.4392  0.0559
 8230TIP3    H246182   2.832   0.588  13.472 -0.2659 -0.6467 -0.5140
 8231TIP3   OH246183   0.665   2.656  13.724 -0.2654 -0.1469 -0.1521
 8231TIP3    H146184   0.691   2.592  13.790 -0.1600  1.0082  0.9798
 8231TIP3    H246185   0.689   2.741  13.763 -2.2644  0.7189 -0.7068
 8232TIP3   OH246186   1.040   5.438  15.157 -0.4012  0.2413  0.0358
 8232TIP3    H146187   0.991   5.518  15.177  0.0885  0.2568  1.2353
 8232TIP3    H246188   1.059   5.399  15.242 -1.9041 -1.9512 -0.5599
 8233TIP3   OH246189   3.191   5.747  12.553  0.0924 -0.4611  0.3010
 8233TIP3    H146190   3.134   5.735  12.629 -0.8474 -1.2182 -0.4953
 8233TIP3    H246191   3.151   5.692  12.485  1.5038 -0.6231 -0.4241
 8234TIP3   OH246192   0.891   0.405   2.335 -0.2326  0.1308 -0.5006
 8234TIP3    H146193   0.971   0.458   2.328 -0.8467  1.2113  0.3051
 8234TIP3    H246194   0.905   0.333   2.274  1.2591  0.4222 -0.5447
 8235TIP3   OH246195   5.067   6.059  16.607 -0.2464 -0.1393  0.0417
 8235TIP3    H146196   4.971   6.048  16.610 -0.7084  1.8042 -3.2246
 8235TIP3    H246197   5.086   6.078  16.516  3.0532  1.5078  0.9305
 8236TIP3   OH246198   0.532   2.329  15.806 -0.2817  0.4209 -0.3308
 8236TIP3    H146199   0.450   2.362  15.767 -1.3268 -1.5539  0.0475
 8236TIP3    H246200   0.556   2.394  15.871 -0.9105  1.6115 -1.2506
 8237TIP3   OH246201   5.778   2.974  10.326  0.7696 -0.1668  0.0065
 8237TIP3    H146202   5.827   3.053  10.305  1.0834 -0.2317  0.4594
 8237TIP3    H246203   5.693   3.006  10.357  0.7593 -0.0237 -0.1696
 8238TIP3   OH246204   3.914   4.658   0.809 -0.8973  0.3422  0.3492
 8238TIP3    H146205   3.935   4.628   0.720  0.7770  1.0290  0.4626
 8238TIP3    H246206   3.917   4.753   0.803 -1.7931  0.4159  0.9324
 8239TIP3   OH246207   4.116   4.919  16.676 -0.3941 -0.7500 -0.0876
 8239TIP3    H146208   4.073   4.839  16.705 -1.1673  0.1260  1.3153
 8239TIP3    H246209   4.194   4.889  16.631 -0.9390 -2.3042 -0.0741
 8240TIP3   OH246210   6.113   4.586   1.802  0.0814 -0.6991 -0.3978
 8240TIP3    H146211   6.019   4.603   1.809  0.0905 -0.9644  0.4606
 8240TIP3    H246212   6.145   4.592   1.892  0.6455 -1.9726 -0.4909
 8241TIP3   OH246213   3.966   3.641   1.004  0.1331 -0.1241 -0.0514
 8241TIP3    H146214   3.978   3.680   1.090  2.2368  1.3649 -0.9208
 8241TIP3    H246215   3.873   3.651   0.985  0.1372  2.2231  0.8527
 8242TIP3   OH246216   5.595   6.564  12.152 -0.3701 -0.3435  0.2131
 8242TIP3    H146217   5.647   6.621  12.208  0.0892  0.1139 -0.6661
 8242TIP3    H246218   5.511   6.609  12.142 -0.9684 -1.0964  1.6568
 8243TIP3   OH246219   3.156   2.134  14.154 -0.9676 -0.4073  0.1615
 8243TIP3    H146220   3.078   2.114  14.103 -0.2532 -0.6160 -0.8710
 8243TIP3    H246221   3.196   2.209  14.109 -1.5946  0.9840  1.8110
 8244TIP3   OH246222   1.336   3.330  16.148 -0.0605  0.3236 -0.7593
 8244TIP3    H146223   1.259   3.372  16.186  0.3207  0.3167  0.0487
 8244TIP3    H246224   1.392   3.402  16.120 -0.0099  0.3410 -0.6148
 8245TIP3   OH246225   3.196   2.440  11.590 -0.1692  0.2547  0.2488
 8245TIP3    H146226   3.124   2.502  11.594  0.2622  0.7170  1.2733
 8245TIP3    H246227   3.270   2.487  11.628  0.2192 -0.7922  0.8275
 8246TIP3   OH246228   6.659   1.340  14.293  0.2798  0.1161 -0.0812
 8246TIP3    H146229   6.731   1.280  14.272  0.9614 -0.1649  2.7684
 8246TIP3    H246230   6.702   1.421  14.318 -0.4343  0.2589  0.6985
 8247TIP3   OH246231   0.891   0.112   2.268  0.0051  0.3705  0.5097
 8247TIP3    H146232   0.862   0.055   2.339 -0.5363  0.0194  0.0246
 8247TIP3    H246233   0.833   0.090   2.195  2.8112 -1.9583 -1.2316
 8248TIP3   OH246234   1.487   6.096  13.441 -0.0860 -0.7424 -0.4234
 8248TIP3    H146235   1.425   6.028  13.467 -0.5121 -0.4886 -0.7646
 8248TIP3    H246236   1.532   6.060  13.364 -0.6578 -0.4420 -0.9015
 8249TIP3   OH246237   1.124   1.921   0.091  0.6689 -0.0505 -0.0748
 8249TIP3    H146238   1.219   1.919   0.091  0.6771 -0.0480 -0.7585
 8249TIP3    H246239   1.098   1.829   0.102  0.7615 -0.1498 -0.6450
 8250TIP3   OH246240   3.404   2.760   0.766 -0.2237 -0.4559 -0.4757
 8250TIP3    H146241   3.415   2.830   0.701  1.6900 -1.5899 -1.4432
 8250TIP3    H246242   3.489   2.716   0.770 -0.7962 -1.5184  1.5601
 8251TIP3   OH246243   6.173   4.664  10.791  0.1167 -0.1277 -0.0017
 8251TIP3    H146244   6.185   4.747  10.838  0.7202 -1.0507  1.5470
 8251TIP3    H246245   6.237   4.668  10.720 -1.0272  1.4324 -1.0088
 8252TIP3   OH246246   1.654   4.478   5.562  0.6061 -0.4051  0.7045
 8252TIP3    H146247   1.716   4.551   5.571  0.6572 -0.3431 -0.0327
 8252TIP3    H246248   1.652   4.461   5.468  0.7801 -1.5243  0.8950
 8253TIP3   OH246249   3.814   5.925   1.167  0.0693  0.1202  0.1188
 8253TIP3    H146250   3.829   5.850   1.110 -0.1804  0.7106 -0.7518
 8253TIP3    H246251   3.868   5.908   1.244  1.2559 -0.2018 -0.7503
 8254TIP3   OH246252   3.429   1.703  13.643 -0.2649 -0.0017  0.4017
 8254TIP3    H146253   3.483   1.686  13.721 -1.5773  0.4678  1.4565
 8254TIP3    H246254   3.490   1.694  13.570  1.4399  1.3549  1.5665
 8255TIP3   OH246255   3.113   5.996   5.399 -0.4329  0.2887 -0.2602
 8255TIP3    H146256   3.188   6.025   5.451  0.1009 -0.1357 -0.7628
 8255TIP3    H246257   3.153   5.964   5.318 -1.1491 -0.1264 -0.4526
 8256TIP3   OH246258   3.559   2.619   3.192 -0.2718 -0.5092  0.0194
 8256TIP3    H146259   3.586   2.550   3.253  2.0408  0.7745  0.5806
 8256TIP3    H246260   3.481   2.657   3.231  0.8957 -0.0260  2.0339
 8257TIP3   OH246261   0.603   5.472   0.211 -0.6583 -1.0256 -0.2031
 8257TIP3    H146262   0.547   5.467   0.288 -2.9632 -1.3324 -1.8020
 8257TIP3    H246263   0.554   5.425   0.143  1.1487 -0.5157 -1.9372
 8258TIP3   OH246264   4.025   1.323  11.778 -0.0225  0.2705 -0.5161
 8258TIP3    H146265   4.069   1.400  11.814  0.7405  0.0524 -0.9371
 8258TIP3    H246266   4.027   1.337  11.683 -0.5585  0.0868 -0.5575
 8259TIP3   OH246267   6.034   1.368  16.516 -0.2736  0.0227 -0.2008
 8259TIP3    H146268   6.070   1.456  16.523 -0.5856  0.1177  0.2284
 8259TIP3    H246269   6.067   1.335  16.432  1.4889 -0.2033  0.5379
 8260TIP3   OH246270   1.674   0.476   0.445 -0.1612 -0.6113 -0.1428
 8260TIP3    H146271   1.634   0.419   0.380 -0.3913  0.0078 -0.5455
 8260TIP3    H246272   1.677   0.562   0.404  1.7617 -0.6646 -0.2015
 8261TIP3   OH246273   3.058   0.036  16.815  0.2681  0.3381  0.1348
 8261TIP3    H146274   3.012  -0.046  16.837 -0.2872  0.0515 -1.8446
 8261TIP3    H246275   3.101   0.017  16.732  2.7832  1.1107  1.1757
 8262TIP3   OH246276   1.635   3.021  17.079 -0.5257 -0.2339 -0.3877
 8262TIP3    H146277   1.663   3.010  16.988  0.0003  1.4907 -0.4750
 8262TIP3    H246278   1.570   2.952  17.093  1.1961 -2.1479 -1.2712
 8263TIP3   OH246279   5.518   4.285  10.921  0.8509 -0.1130 -0.1551
 8263TIP3    H146280   5.612   4.273  10.906  0.7579  0.2558 -1.0793
 8263TIP3    H246281   5.477   4.218  10.866  0.5318  0.6279 -0.8257
 8264TIP3   OH246282   4.085   0.184   2.654  0.1536  0.4137  0.8846
 8264TIP3    H146283   4.131   0.168   2.572 -1.2731  0.9477 -0.0627
 8264TIP3    H246284   4.024   0.110   2.663 -0.2528  0.7587  1.0346
 8265TIP3   OH246285   2.398   5.695  13.554 -0.0015  0.3904 -0.0879
 8265TIP3    H146286   2.465   5.740  13.606 -0.0696  0.7606 -0.3223
 8265TIP3    H246287   2.316   5.736  13.580 -0.0184  0.6969 -0.6098
 8266TIP3   OH246288   5.907   2.438  12.111 -0.4113  0.0453  0.2008
 8266TIP3    H146289   5.815   2.443  12.136  0.0865  1.5588  1.9900
 8266TIP3    H246290   5.920   2.511  12.051 -0.4731 -0.5139 -0.5122
 8267TIP3   OH246291   0.014   4.553   3.574 -0.3524  0.1538  0.7435
 8267TIP3    H146292  -0.043   4.613   3.622 -0.2403  0.5195  0.4275
 8267TIP3    H246293  -0.042   4.480   3.549 -0.6916  0.5219  0.4152
 8268TIP3   OH246294   1.982   3.610  15.809  0.7332 -0.1182 -0.0041
 8268TIP3    H146295   2.010   3.576  15.894 -1.7609 -0.0197  0.9405
 8268TIP3    H246296   1.946   3.535  15.763  1.4874 -0.0448 -0.7351
 8269TIP3   OH246297   1.521   3.855   5.722  0.3248 -0.8200 -0.2692
 8269TIP3    H146298   1.578   3.894   5.789  0.1098 -0.8921 -0.0423
 8269TIP3    H246299   1.482   3.930   5.677  0.0308 -0.7694  0.0646
 8270TIP3   OH246300   0.315   3.184   1.420 -0.1650 -0.4492  0.2683
 8270TIP3    H146301   0.246   3.176   1.355  0.2350 -2.6173  0.0242
 8270TIP3    H246302   0.277   3.146   1.500  0.4533 -0.8780  0.3659
 8271TIP3   OH246303   2.994   0.071   2.903  0.0648 -0.5184  0.3038
 8271TIP3    H146304   2.965   0.117   2.982 -0.2446 -0.9658  0.4553
 8271TIP3    H246305   3.078   0.112   2.881 -0.5961  0.7196 -0.0643
 8272TIP3   OH246306   5.498   3.908   3.166  0.6406 -0.6985  0.9184
 8272TIP3    H146307   5.414   3.862   3.162  1.0177 -1.9469  4.2485
 8272TIP3    H246308   5.560   3.850   3.122 -0.2376  0.7508 -2.6370
 8273TIP3   OH246309   3.997   1.628   6.020 -0.3282 -0.2478 -0.3457
 8273TIP3    H146310   3.976   1.720   6.033  1.3259  0.2559 -0.9786
 8273TIP3    H246311   4.015   1.594   6.108 -1.4174 -0.1129 -0.0584
 8274TIP3   OH246312   0.500   4.985  13.368  1.3995 -0.0989  0.1648
 8274TIP3    H146313   0.576   4.978  13.425  0.2774 -2.8095  1.4764
 8274TIP3    H246314   0.529   4.950  13.284  2.2146  1.1039 -0.0780
 8275TIP3   OH246315   3.829   0.092   4.463  0.0003 -0.0292 -0.4488
 8275TIP3    H146316   3.784   0.113   4.381 -0.9346  0.8338  0.2722
 8275TIP3    H246317   3.899   0.157   4.469 -1.9029  2.0180  0.9830
 8276TIP3   OH246318   5.131   2.894  12.970  0.7997 -0.0761  0.5288
 8276TIP3    H146319   5.126   2.988  12.954  0.8620  0.0820  1.3849
 8276TIP3    H246320   5.105   2.883  13.062  1.2717 -0.8366  0.5882
 8277TIP3   OH246321   1.207   4.075   4.248 -0.3835 -0.1719  0.3700
 8277TIP3    H146322   1.138   4.067   4.182  2.1693 -1.1639 -2.3826
 8277TIP3    H246323   1.260   3.996   4.238  1.3201  0.6529  2.1877
 8278TIP3   OH246324   1.211   5.048   0.001 -0.7627 -0.4190 -0.9930
 8278TIP3    H146325   1.177   5.043  -0.088 -1.3947  1.7989 -0.9385
 8278TIP3    H246326   1.146   5.100   0.049  0.9792  0.9562 -0.0007
 8279TIP3   OH246327   5.355   0.085   0.203  0.1376 -0.1069  0.7476
 8279TIP3    H146328   5.357  -0.008   0.227 -1.5897  0.3914  3.1864
 8279TIP3    H246329   5.387   0.131   0.281  1.0132  1.3968 -0.4276
 8280TIP3   OH246330   0.710   2.810   4.540  0.4430  0.6543  0.8989
 8280TIP3    H146331   0.765   2.733   4.554 -0.7370 -0.3969  0.0372
 8280TIP3    H246332   0.763   2.867   4.485  0.6060 -0.4812 -0.1932
 8281TIP3   OH246333   5.251   3.734  14.159  0.1374  0.2710  0.4217
 8281TIP3    H146334   5.214   3.809  14.113  1.2641  1.0883  0.7999
 8281TIP3    H246335   5.221   3.745  14.250  1.0623  0.8108  0.6801
 8282TIP3   OH246336   2.586   5.792  13.754 -0.1464  0.5754  0.0542
 8282TIP3    H146337   2.522   5.842  13.804  0.0056  1.3829 -0.5445
 8282TIP3    H246338   2.671   5.818  13.790 -0.1436 -1.5019  1.7833
 8283TIP3   OH246339   3.338   5.691   5.308  0.5835 -0.2943 -0.0266
 8283TIP3    H146340   3.276   5.623   5.334  1.1658 -0.6482  0.4723
 8283TIP3    H246341   3.396   5.648   5.246  0.0385  0.1736 -0.8845
 8284TIP3   OH246342   3.497   3.504   2.295 -0.4235 -0.3259 -0.0963
 8284TIP3    H146343   3.475   3.577   2.353 -1.5444 -1.5031  1.0152
 8284TIP3    H246344   3.414   3.476   2.257 -0.9147 -3.8600  2.9968
 8285TIP3   OH246345   2.210   2.441  13.383  0.6864 -0.6979 -0.3878
 8285TIP3    H146346   2.170   2.354  13.389 -0.9716 -0.0269 -1.2020
 8285TIP3    H246347   2.156   2.488  13.320  2.4500  0.4667 -1.1036
 8286TIP3   OH246348   1.141   4.241   5.780 -0.4304  0.9250  0.3920
 8286TIP3    H146349   1.172   4.284   5.860 -1.4634 -0.0869  1.3647
 8286TIP3    H246350   1.147   4.147   5.799  1.0068  0.5887 -1.3937
 8287TIP3   OH246351   6.097   3.201  12.412 -0.1692  0.2995 -0.1796
 8287TIP3    H146352   6.087   3.202  12.317  0.4419 -1.6670 -0.3078
 8287TIP3    H246353   6.064   3.115  12.438  2.2158 -0.3153  1.0621
 8288TIP3   OH246354   4.974   4.973  12.199 -0.5036  0.3228  0.1947
 8288TIP3    H146355   5.042   5.003  12.259 -2.9584  2.5337  2.0539
 8288TIP3    H246356   5.014   4.983  12.112  2.3397 -0.8285  1.2416
 8289TIP3   OH246357   1.386   2.568  14.725 -0.1910 -0.1768  0.4152
 8289TIP3    H146358   1.423   2.501  14.667 -0.6814  0.3615 -0.5370
 8289TIP3    H246359   1.425   2.550  14.811 -0.4146 -1.7659  0.2152
 8290TIP3   OH246360   4.821   5.857   3.912 -0.4926 -0.1153 -1.0556
 8290TIP3    H146361   4.823   5.875   4.006  1.5283 -0.6295 -0.9569
 8290TIP3    H246362   4.749   5.796   3.901 -0.6594 -0.1725  0.1886
 8291TIP3   OH246363   6.744   5.915  13.831  0.9186  0.6083 -0.6718
 8291TIP3    H146364   6.680   5.844  13.831  0.4677  0.9251  1.7394
 8291TIP3    H246365   6.827   5.872  13.849  0.3708  0.7336  2.9065
 8292TIP3   OH246366   6.212   4.918  16.761  0.2167 -0.2511  0.1044
 8292TIP3    H146367   6.152   4.906  16.834  0.2442  1.2552  0.3899
 8292TIP3    H246368   6.290   4.957  16.800  0.2648  0.4881 -0.7106
 8293TIP3   OH246369   4.566   5.829   2.288 -0.1113 -0.3243 -0.2149
 8293TIP3    H146370   4.586   5.788   2.203 -2.3368  1.3597 -1.6675
 8293TIP3    H246371   4.518   5.762   2.336  1.4862 -1.4286 -0.0757
 8294TIP3   OH246372   0.696   4.563  12.906 -0.7476  0.4037 -0.2763
 8294TIP3    H146373   0.631   4.494  12.909 -0.7798  0.4620  0.3277
 8294TIP3    H246374   0.755   4.545  12.979  0.5031 -0.2180 -1.3678
 8295TIP3   OH246375   4.893   1.501   4.591  0.1235 -0.1808  0.1517
 8295TIP3    H146376   4.912   1.474   4.501  1.0225 -0.2047  0.3431
 8295TIP3    H246377   4.873   1.594   4.584  0.3937 -0.1376 -0.0421
 8296TIP3   OH246378   4.076   6.240  11.076 -0.1962 -0.0774  0.1897
 8296TIP3    H146379   4.076   6.241  10.980 -0.3635  1.0629  0.1893
 8296TIP3    H246380   4.001   6.187  11.100 -0.8499  0.6004 -0.3210
 8297TIP3   OH246381   1.699   5.369   5.580  0.0380 -0.0649 -0.0266
 8297TIP3    H146382   1.640   5.335   5.513 -0.1139  0.5467 -0.2098
 8297TIP3    H246383   1.646   5.430   5.631 -0.2600 -1.6474  1.6192
 8298TIP3   OH246384   6.393   1.636  15.187 -0.4877 -0.2508  0.2781
 8298TIP3    H146385   6.303   1.661  15.208 -0.3069 -1.3984  2.8085
 8298TIP3    H246386   6.384   1.570  15.119 -1.7318 -1.4671  1.5380
 8299TIP3   OH246387   0.536   1.554   0.288 -0.0702  0.3131 -0.5467
 8299TIP3    H146388   0.600   1.625   0.290 -1.0110  1.1955 -0.9815
 8299TIP3    H246389   0.504   1.552   0.197 -0.3648 -0.3876 -0.4384
 8300TIP3   OH246390   2.249   5.245  15.627  0.1234 -0.2640 -0.6122
 8300TIP3    H146391   2.167   5.221  15.584 -0.6709  0.1569  0.5966
 8300TIP3    H246392   2.231   5.234  15.721  1.2534  0.4079 -0.2968
 8301TIP3   OH246393   2.771   0.450   1.077 -0.6196  0.1645  0.1419
 8301TIP3    H146394   2.854   0.422   1.116 -0.0716 -0.9352 -1.6625
 8301TIP3    H246395   2.759   0.540   1.107  1.7193  0.6745 -0.2400
 8302TIP3   OH246396   6.515   3.298   1.929 -0.3689  0.4173 -0.2695
 8302TIP3    H146397   6.492   3.211   1.964 -2.1919  0.2929 -1.5902
 8302TIP3    H246398   6.451   3.357   1.968 -0.6471  0.7398 -1.1728
 8303TIP3   OH246399   0.640   3.974   2.708 -0.6383  0.6523 -0.1050
 8303TIP3    H146400   0.707   4.031   2.746  1.4923 -2.4793  1.2615
 8303TIP3    H246401   0.609   3.921   2.781 -0.6907 -1.5907 -1.6437
 8304TIP3   OH246402   3.921   3.651  15.499  0.0428 -0.1087  0.1405
 8304TIP3    H146403   3.969   3.580  15.457 -0.6413 -1.3550  1.3883
 8304TIP3    H246404   3.861   3.683  15.431  0.0268 -1.0342 -0.2940
 8305TIP3   OH246405   3.885   0.843  15.112  0.0136  0.0724  0.1920
 8305TIP3    H146406   3.916   0.800  15.032 -1.9320 -0.0597 -0.5673
 8305TIP3    H246407   3.895   0.936  15.094  0.7621  0.0167  0.3120
 8306TIP3   OH246408   5.689   6.187   2.406 -0.5929  0.2740 -0.4039
 8306TIP3    H146409   5.715   6.237   2.483 -1.5651  0.7573 -0.3773
 8306TIP3    H246410   5.722   6.239   2.332 -1.7880  1.0933 -0.3839
 8307TIP3   OH246411   2.531   1.445   5.113 -0.1596 -0.6676 -0.1794
 8307TIP3    H146412   2.513   1.352   5.128 -0.0444 -0.3725  1.9768
 8307TIP3    H246413   2.466   1.491   5.166 -0.1419  0.5112 -1.1420
 8308TIP3   OH246414   5.726   6.593  17.018  0.1869  0.4886 -0.4998
 8308TIP3    H146415   5.631   6.579  17.023  0.3409 -0.3844  0.1894
 8308TIP3    H246416   5.761   6.509  16.988  0.7720  0.7311 -0.5095
 8309TIP3   OH246417   2.634   1.584  12.934 -0.6314  0.7278 -0.1889
 8309TIP3    H146418   2.697   1.656  12.939 -0.0491  0.1669  1.5772
 8309TIP3    H246419   2.561   1.613  12.989 -0.2534 -0.1121  0.8011
 8310TIP3   OH246420   6.714   2.332  11.891 -0.1085  0.1100 -0.1477
 8310TIP3    H146421   6.771   2.383  11.949 -1.7936  1.2418  0.5851
 8310TIP3    H246422   6.674   2.397  11.833 -1.0993 -0.5679 -0.2470
 8311TIP3   OH246423   2.324   5.193  12.206  0.0231 -0.1412 -0.2540
 8311TIP3    H146424   2.244   5.175  12.156 -1.5464  2.1083  1.2436
 8311TIP3    H246425   2.350   5.281  12.179 -0.4064  0.8192  2.1451
 8312TIP3   OH246426   0.557   5.517  14.576  0.4678 -0.3380  0.4389
 8312TIP3    H146427   0.488   5.504  14.641 -1.4652 -0.9927 -1.6152
 8312TIP3    H246428   0.564   5.612  14.566  0.2797 -0.2567  1.0890
 8313TIP3   OH246429   0.847   2.888  13.726  0.7658 -0.4529  0.6054
 8313TIP3    H146430   0.914   2.929  13.780 -0.5777  0.6289  1.5404
 8313TIP3    H246431   0.787   2.960  13.704  0.7531 -1.0496 -1.5728
 8314TIP3   OH246432   5.385   5.369   5.027 -0.3274  0.2775 -0.0234
 8314TIP3    H146433   5.347   5.442   4.976 -0.6590 -0.7377 -1.2807
 8314TIP3    H246434   5.319   5.349   5.093 -0.2760  1.0425  0.2734
 8315TIP3   OH246435   0.448   1.442   4.468  0.6275  0.1937 -0.0165
 8315TIP3    H146436   0.357   1.452   4.440  1.4825  0.1103 -3.1950
 8315TIP3    H246437   0.464   1.348   4.465  1.2009  0.3112 -0.9140
 8316TIP3   OH246438   4.050   0.878  15.334 -0.0456 -0.3348 -0.3283
 8316TIP3    H146439   4.012   0.852  15.250  0.0216 -1.4022 -0.0484
 8316TIP3    H246440   3.982   0.932  15.375 -0.4484 -0.5639 -0.6848
 8317TIP3   OH246441   1.854   2.072  11.115  0.5447 -0.3235  0.0049
 8317TIP3    H146442   1.901   2.099  11.036 -0.9129  1.7310 -0.2281
 8317TIP3    H246443   1.826   1.982  11.096  1.7218 -0.4916 -1.0685
 8318TIP3   OH246444   6.623   1.658  17.135  0.1520  0.0328  0.2225
 8318TIP3    H146445   6.586   1.728  17.081 -0.0889 -1.0894 -1.1319
 8318TIP3    H246446   6.718   1.667  17.125  0.0933 -1.1184 -1.7190
 8319TIP3   OH246447   4.635   3.829   5.553  0.1272  0.0317  0.2353
 8319TIP3    H146448   4.661   3.742   5.523  0.5087 -0.3694  1.6431
 8319TIP3    H246449   4.679   3.839   5.637 -0.6165  1.2460  0.5019
 8320TIP3   OH246450   6.115   6.030   2.052  0.0760 -0.6699 -0.0960
 8320TIP3    H146451   6.072   6.024   1.966  0.7486 -0.8651 -0.4269
 8320TIP3    H246452   6.152   5.943   2.066  1.3977 -0.1659 -0.3783
 8321TIP3   OH246453   0.153   3.666   0.343 -0.5383 -0.1149  0.1673
 8321TIP3    H146454   0.217   3.732   0.317 -1.3516  0.3378 -0.7420
 8321TIP3    H246455   0.170   3.651   0.436  0.9772 -0.1260 -0.0866
 8322TIP3   OH246456   0.300   3.691  14.338 -0.6450 -0.2114 -0.0686
 8322TIP3    H146457   0.206   3.682  14.353 -0.4792  1.2186  2.2037
 8322TIP3    H246458   0.327   3.766  14.391  1.6673 -0.0661 -1.2722
 8323TIP3   OH246459   2.917   4.391  13.665 -0.6577 -0.0682 -0.7236
 8323TIP3    H146460   2.944   4.379  13.756 -0.6985  0.4064 -0.6438
 8323TIP3    H246461   2.822   4.378  13.666 -0.7026  0.2455 -0.6368
 8324TIP3   OH246462   3.736   6.264   4.196  0.1080 -0.2042 -0.1966
 8324TIP3    H146463   3.808   6.277   4.257 -0.0906 -2.5183  0.6138
 8324TIP3    H246464   3.772   6.209   4.126 -0.5393 -0.3630 -0.4168
 8325TIP3   OH246465   6.182   1.692  14.383  0.2562 -0.3125  0.2547
 8325TIP3    H146466   6.247   1.762  14.381  0.1326 -0.1740  1.0318
 8325TIP3    H246467   6.098   1.737  14.394 -0.1569 -0.3853 -1.9866
 8326TIP3   OH246468   3.285   6.360   0.861 -0.3163 -0.0525 -0.2532
 8326TIP3    H146469   3.224   6.317   0.921 -2.2148  0.7174 -1.5387
 8326TIP3    H246470   3.340   6.288   0.829 -0.5980 -0.7947  0.8530
 8327TIP3   OH246471   1.987   5.016  13.518 -0.0201  0.2600 -0.4030
 8327TIP3    H146472   2.062   5.027  13.460 -1.5536  1.1837 -2.3441
 8327TIP3    H246473   1.999   5.082  13.586  0.5703  0.9174 -1.1253
 8328TIP3   OH246474   5.487   1.534   5.322 -0.2319 -0.1449  0.6121
 8328TIP3    H146475   5.508   1.627   5.314 -0.7697 -0.1574 -1.6044
 8328TIP3    H246476   5.403   1.532   5.368 -0.2347  0.4542  0.6407
 8329TIP3   OH246477   3.565   6.056  15.671  0.0719 -0.4948 -0.2047
 8329TIP3    H146478   3.602   6.000  15.739 -0.1042  0.6911  0.9073
 8329TIP3    H246479   3.617   6.137  15.675  0.0802 -0.4119 -1.5119
 8330TIP3   OH246480   5.793   4.658   6.073 -0.3318 -0.1937  0.1753
 8330TIP3    H146481   5.747   4.714   6.135  1.6944  2.4817 -0.5367
 8330TIP3    H246482   5.734   4.652   5.998 -0.8305  0.5826  0.4955
 8331TIP3   OH246483   0.272   3.822   5.605 -0.3767 -0.5234 -0.0508
 8331TIP3    H146484   0.309   3.776   5.680  0.6192 -0.6031 -0.5728
 8331TIP3    H246485   0.231   3.752   5.552 -0.0057 -0.6331 -0.1938
 8332TIP3   OH246486   1.576   5.799  17.029  0.2807  0.4142 -0.3978
 8332TIP3    H146487   1.608   5.889  17.037 -0.5786  0.6508  0.7851
 8332TIP3    H246488   1.533   5.795  16.944  0.6844  1.0099 -0.6307
 8333TIP3   OH246489   3.348   1.727  10.656 -0.0695  0.3559 -0.0916
 8333TIP3    H146490   3.406   1.799  10.681 -1.7911  1.8892 -0.3238
 8333TIP3    H246491   3.337   1.737  10.561  0.3698 -0.7865 -0.2837
 8334TIP3   OH246492   0.796   5.835   0.933  0.2519  0.4623  0.1043
 8334TIP3    H146493   0.722   5.775   0.935 -0.8401  1.7800  1.1976
 8334TIP3    H246494   0.773   5.900   0.867  0.2075  1.1258  0.7559
 8335TIP3   OH246495   5.593   2.675  16.259 -0.3129  0.4617 -0.2861
 8335TIP3    H146496   5.689   2.683  16.256 -0.3141  0.6025  0.0335
 8335TIP3    H246497   5.577   2.603  16.319 -0.4429  1.4293  0.8886
 8336TIP3   OH246498   0.357   2.704  15.555 -0.2647 -0.2689 -0.0676
 8336TIP3    H146499   0.347   2.610  15.566 -0.9364 -0.1965  0.0306
 8336TIP3    H246500   0.358   2.718  15.460  0.4874 -0.4291 -0.0887
 8337TIP3   OH246501   3.596   0.296  15.239 -0.1387 -0.2938 -0.3060
 8337TIP3    H146502   3.560   0.286  15.151 -1.8692 -0.1942  0.3487
 8337TIP3    H246503   3.577   0.213  15.283 -1.2265  0.4033  0.6049
 8338TIP3   OH246504   5.879   5.169  13.029 -0.1937 -0.0412  0.0128
 8338TIP3    H146505   5.846   5.259  13.029  0.3420  0.2286  2.0737
 8338TIP3    H246506   5.801   5.114  13.036 -0.6033  0.1625 -2.3840
 8339TIP3   OH246507   2.016   1.456   0.134  0.3917  0.0659  0.1722
 8339TIP3    H146508   2.088   1.519   0.137  0.6141 -0.1574 -0.3319
 8339TIP3    H246509   1.958   1.481   0.206  0.6085  0.6879  0.1288
 8340TIP3   OH246510   0.702   0.058  13.482  0.1237 -0.3051  0.2717
 8340TIP3    H146511   0.780   0.057  13.427  0.8232  0.1634  1.2276
 8340TIP3    H246512   0.685  -0.034  13.503  0.9413 -0.3555  0.7557
 8341TIP3   OH246513   2.652   2.476   3.612  0.6847  0.2339 -0.0421
 8341TIP3    H146514   2.641   2.385   3.639  1.0502  0.0058 -0.6341
 8341TIP3    H246515   2.598   2.526   3.673 -2.2955 -0.6317 -1.7398
 8342TIP3   OH246516   1.855   3.575  16.571 -0.4172 -0.0981 -0.5426
 8342TIP3    H146517   1.836   3.511  16.503 -1.9640  0.6665 -0.8683
 8342TIP3    H246518   1.771   3.619  16.587  0.3231  0.9781  0.5628
 8343TIP3   OH246519   0.078   1.777  12.152 -0.4800 -0.2318  0.2711
 8343TIP3    H146520   0.010   1.735  12.099 -1.4237  1.6829 -0.1179
 8343TIP3    H246521   0.148   1.797  12.089 -0.0722 -1.0569  0.4393
 8344TIP3   OH246522   3.950   3.717   5.576  0.0768  0.0112  0.6379
 8344TIP3    H146523   3.938   3.690   5.485 -1.1288  2.4151 -0.0005
 8344TIP3    H246524   3.955   3.635   5.625  0.7023 -1.3554 -1.5519
 8345TIP3   OH246525   6.751   6.336   6.345 -0.5746 -0.1517  0.2926
 8345TIP3    H146526   6.675   6.386   6.374 -0.2697 -0.2278  1.2665
 8345TIP3    H246527   6.826   6.392   6.365 -0.3060 -0.5216  0.3369
 8346TIP3   OH246528   2.562   0.496   6.350  0.3927 -0.5643  0.0932
 8346TIP3    H146529   2.621   0.492   6.275  0.5000 -2.1800  0.2354
 8346TIP3    H246530   2.618   0.480   6.426  0.5140  2.2577  0.7225
 8347TIP3   OH246531   1.791   3.023  14.874 -0.0629 -0.4274 -0.1173
 8347TIP3    H146532   1.751   2.956  14.819  0.6836 -0.1021 -1.0877
 8347TIP3    H246533   1.867   3.052  14.825  1.6312 -1.3018  1.8349
 8348TIP3   OH246534   4.645   0.066  14.321 -0.1678 -0.1376  0.1042
 8348TIP3    H146535   4.561   0.043  14.362  0.0588  1.4726  1.5709
 8348TIP3    H246536   4.625   0.143  14.268  0.3008  0.0561  0.2068
 8349TIP3   OH246537   2.180   6.047  11.721 -0.2840  0.2721  0.1378
 8349TIP3    H146538   2.092   6.084  11.725 -0.4611 -0.2431  1.7479
 8349TIP3    H246539   2.234   6.115  11.680 -1.3944  0.6342 -0.7596
 8350TIP3   OH246540   0.295   4.595   0.289  0.7180 -0.0412 -0.5711
 8350TIP3    H146541   0.208   4.587   0.328  0.5433 -1.1592 -1.1551
 8350TIP3    H246542   0.353   4.611   0.363  0.0354  0.6348 -0.1621
 8351TIP3   OH246543   6.482   5.932  11.072 -0.3822  0.1529 -0.1332
 8351TIP3    H146544   6.476   5.849  11.023 -0.4399  1.1707 -1.9382
 8351TIP3    H246545   6.394   5.944  11.107 -0.6063 -0.1393 -0.5742
 8352TIP3   OH246546   1.118   4.148   1.652  0.5267  0.0205 -0.1321
 8352TIP3    H146547   1.060   4.092   1.701  1.4180 -0.6061  0.2335
 8352TIP3    H246548   1.107   4.235   1.691 -0.1911 -0.0811 -0.1061
 8353TIP3   OH246549   1.109   3.647   2.959  0.3860 -0.7248  0.5613
 8353TIP3    H146550   1.137   3.673   3.046 -1.7608 -0.9131  1.3817
 8353TIP3    H246551   1.023   3.606   2.973  0.0552 -0.8957 -1.6128
 8354TIP3   OH246552   6.206   3.367  14.437  0.0794 -0.0021  0.3946
 8354TIP3    H146553   6.281   3.344  14.382  0.4276  0.6072  0.6014
 8354TIP3    H246554   6.168   3.283  14.463 -0.0109 -0.2948 -0.6636
 8355TIP3   OH246555   6.667   6.754  15.812 -0.3966 -0.3199  0.4172
 8355TIP3    H146556   6.744   6.701  15.792 -0.0797  0.6643 -1.1798
 8355TIP3    H246557   6.701   6.828  15.862 -0.2483  0.2204 -0.4628
 8356TIP3   OH246558   2.525   5.813  12.527  0.1406  0.2855 -0.0469
 8356TIP3    H146559   2.567   5.749  12.469  0.7496  0.6631 -0.0222
 8356TIP3    H246560   2.551   5.898  12.492 -0.6967  0.5329 -0.1013
 8357TIP3   OH246561   1.873   4.909  13.811  0.6014 -0.4240 -0.1549
 8357TIP3    H146562   1.885   5.001  13.792  1.1145 -0.5328 -0.3542
 8357TIP3    H246563   1.786   4.888  13.776  0.7452 -0.1718 -0.6567
 8358TIP3   OH246564   3.652   5.594   0.804  0.4605  0.3072 -0.0263
 8358TIP3    H146565   3.725   5.542   0.838 -0.6044  0.3551  2.5487
 8358TIP3    H246566   3.644   5.667   0.865 -1.6846  0.3263 -0.2530
 8359TIP3   OH246567   1.108   1.586   3.847  0.2264 -0.0485 -0.1818
 8359TIP3    H146568   1.017   1.597   3.874 -0.3271  0.5895 -2.1576
 8359TIP3    H246569   1.106   1.518   3.780  1.3316 -0.5840  0.3017
 8360TIP3   OH246570   2.434   1.240   5.273  0.4839  0.0892  0.3834
 8360TIP3    H146571   2.351   1.224   5.228 -0.3106  1.1274  1.4089
 8360TIP3    H246572   2.451   1.159   5.322 -0.1298  0.0024  0.4597
 8361TIP3   OH246573   4.325   0.662   4.160  0.2037  0.6877  0.3496
 8361TIP3    H146574   4.358   0.717   4.088 -0.2696  1.1060  0.4486
 8361TIP3    H246575   4.288   0.725   4.223 -0.4223  0.2487  0.4233
 8362TIP3   OH246576   5.875   4.964  15.667  0.2047  0.2834 -0.3824
 8362TIP3    H146577   5.851   4.900  15.734 -0.3718 -0.2297 -1.0694
 8362TIP3    H246578   5.841   5.047  15.700  1.0140  0.2686  0.5455
 8363TIP3   OH246579   1.717   5.439   6.146  0.2938 -0.2657  0.4734
 8363TIP3    H146580   1.722   5.411   6.237 -0.2424 -0.0335  0.5723
 8363TIP3    H246581   1.698   5.532   6.150 -1.8598 -0.6427  0.1241
 8364TIP3   OH246582   1.871   4.392  14.719 -0.3783  0.9853 -0.0336
 8364TIP3    H146583   1.890   4.472  14.768  0.4759  1.5036 -1.1680
 8364TIP3    H246584   1.803   4.417  14.657  0.4448  1.0606 -0.9266
 8365TIP3   OH246585   1.924   3.806   4.931 -0.1492 -0.1148  0.2326
 8365TIP3    H146586   1.967   3.838   5.010 -0.3383  0.2221  0.2015
 8365TIP3    H246587   1.831   3.803   4.954 -0.3875  1.3411 -0.4078
 8366TIP3   OH246588   1.595   2.656   4.765  0.2482 -0.3581 -0.2012
 8366TIP3    H146589   1.601   2.613   4.850  1.0301 -0.8922 -0.5170
 8366TIP3    H246590   1.537   2.599   4.714  0.2357 -0.3413 -0.2058
 8367TIP3   OH246591   0.639   4.617   1.829 -0.0037 -0.2215 -0.6177
 8367TIP3    H146592   0.725   4.658   1.831 -0.2922  0.4073 -0.8533
 8367TIP3    H246593   0.657   4.524   1.843  0.8000 -0.2254 -1.5574
 8368TIP3   OH246594   6.643   6.788  12.329 -0.5535  0.0484  0.5171
 8368TIP3    H146595   6.690   6.735  12.393  0.8943  1.2611  0.5087
 8368TIP3    H246596   6.605   6.860  12.381 -1.9584 -0.6011  0.4369
 8369TIP3   OH246597   5.530   4.709  16.128  0.4823  0.1743 -0.3001
 8369TIP3    H146598   5.449   4.669  16.160 -0.1361 -0.2380 -2.2286
 8369TIP3    H246599   5.543   4.786  16.183 -1.1269  0.1423  0.1612
 8370TIP3   OH246600   0.817   4.642   3.998  0.0065  0.2431  0.0531
 8370TIP3    H146601   0.885   4.698   4.035 -0.4500  1.8927 -1.4792
 8370TIP3    H246602   0.736   4.690   4.014 -0.5194 -0.4752 -0.4133
 8371TIP3   OH246603   5.434   5.170   3.680  0.4401  0.3598  0.0702
 8371TIP3    H146604   5.449   5.109   3.608  0.9622 -2.2596  2.2359
 8371TIP3    H246605   5.360   5.131   3.728  0.4927  1.6896  1.2774
 8372TIP3   OH246606   1.114   3.348   4.746 -0.2281  0.6454  0.3988
 8372TIP3    H146607   1.150   3.304   4.824 -0.6234  0.9877  0.7757
 8372TIP3    H246608   1.103   3.439   4.773 -2.8866  0.2643  0.8458
 8373TIP3   OH246609   0.147   4.896   5.161  0.0329 -0.1735  0.2632
 8373TIP3    H146610   0.166   4.850   5.079 -2.3790 -0.4234 -0.2169
 8373TIP3    H246611   0.072   4.951   5.141  1.1328  1.9189  1.5983
 8374TIP3   OH246612   5.455   0.849   3.140  0.1831  0.1332  0.1056
 8374TIP3    H146613   5.372   0.805   3.124  0.0185 -1.9998  5.0114
 8374TIP3    H246614   5.516   0.810   3.076 -1.6093 -1.6619 -0.6088
 8375TIP3   OH246615   2.408   2.769  13.161  0.4633  0.0089  0.4067
 8375TIP3    H146616   2.337   2.832  13.176  1.3024  0.5590  2.3495
 8375TIP3    H246617   2.422   2.728  13.247  3.5002  1.0191  0.5100
 8376TIP3   OH246618   4.455   5.240   1.582 -0.1938 -0.3616 -0.1509
 8376TIP3    H146619   4.508   5.163   1.563  0.2273  0.2605 -1.6615
 8376TIP3    H246620   4.495   5.310   1.531 -2.0790  0.2707 -0.8639
 8377TIP3   OH246621   3.930   4.166  16.348 -0.0444 -0.5702  0.1244
 8377TIP3    H146622   3.855   4.146  16.292 -0.5940  0.4233  0.4925
 8377TIP3    H246623   3.910   4.252  16.385  0.5116 -1.0251  1.5222
 8378TIP3   OH246624   5.594   1.729  16.577 -0.6461 -0.5530 -0.1687
 8378TIP3    H146625   5.622   1.740  16.486 -1.1177 -0.7085 -0.3323
 8378TIP3    H246626   5.558   1.814  16.602  0.5614 -0.1444  0.2533
 8379TIP3   OH246627   6.403   3.230  15.562  0.1730 -0.1252 -0.4025
 8379TIP3    H146628   6.386   3.228  15.656 -1.2548  0.5829 -0.6081
 8379TIP3    H246629   6.377   3.143  15.531  3.0590 -1.3058  0.1571
 8380TIP3   OH246630   2.638   6.312  14.120 -0.4184 -0.6329 -0.3188
 8380TIP3    H146631   2.658   6.272  14.204 -0.9907 -0.8386 -0.2725
 8380TIP3    H246632   2.657   6.244  14.055  0.3545 -0.3590 -0.3915
 8381TIP3   OH246633   2.208   5.521  15.659  0.0411 -0.1303  0.4259
 8381TIP3    H146634   2.209   5.550  15.568  1.6676  0.4745  0.6042
 8381TIP3    H246635   2.133   5.462  15.665 -0.0712 -0.2029 -1.3096
 8382TIP3   OH246636   0.394   4.680  15.313 -0.7380  0.7609 -0.1928
 8382TIP3    H146637   0.411   4.733  15.391  2.5248 -1.2656  0.6537
 8382TIP3    H246638   0.378   4.592  15.347 -1.6670  0.2975 -1.7337
 8383TIP3   OH246639   5.550   1.314   2.226 -0.1122 -0.3427  0.3132
 8383TIP3    H146640   5.637   1.275   2.210 -0.7332 -1.6164 -0.0926
 8383TIP3    H246641   5.495   1.240   2.250 -1.5862  0.0995 -1.4458
 8384TIP3   OH246642   1.027   0.555   3.372 -0.4070  0.0660 -0.4477
 8384TIP3    H146643   0.993   0.484   3.318  0.5243 -0.4055 -0.4394
 8384TIP3    H246644   1.014   0.526   3.462  0.2175 -0.2371 -0.4441
 8385TIP3   OH246645   3.962   6.104  12.759  0.0693 -0.3225  0.5398
 8385TIP3    H146646   3.935   6.067  12.675 -0.1091 -2.1198  1.3459
 8385TIP3    H246647   3.894   6.076  12.821  0.6587  0.2109  1.4628
 8386TIP3   OH246648   3.411   3.923   5.547 -0.0130  0.2226 -0.4197
 8386TIP3    H146649   3.379   3.939   5.458  0.5487  0.1734 -0.6307
 8386TIP3    H246650   3.340   3.873   5.589  0.0184 -0.3758 -1.0595
 8387TIP3   OH246651   4.442   0.082  14.612  0.3952 -0.5156 -0.2759
 8387TIP3    H146652   4.446  -0.014  14.608 -0.1251 -0.5484 -0.1066
 8387TIP3    H246653   4.350   0.101  14.629  0.6433 -0.0105  0.5431
 8388TIP3   OH246654   2.337   2.500  14.961 -0.0349  1.0528  0.0607
 8388TIP3    H146655   2.346   2.553  14.882 -1.1080 -0.3468 -1.0519
 8388TIP3    H246656   2.293   2.420  14.932  1.4941 -0.4742  1.6522
 8389TIP3   OH246657   1.484   4.022   3.884  0.4098 -0.1827  0.4079
 8389TIP3    H146658   1.465   4.085   3.953 -0.2778  2.6584 -2.1785
 8389TIP3    H246659   1.397   3.998   3.849  0.7716  0.9524 -1.4545
 8390TIP3   OH246660   5.847   1.932   6.167 -0.2960  0.2194  0.3274
 8390TIP3    H146661   5.914   1.924   6.099 -0.2027 -0.4020  0.4819
 8390TIP3    H246662   5.896   1.935   6.249 -0.4587 -0.9045  0.4908
 8391TIP3   OH246663   0.135   2.621   5.555 -0.0754 -0.0478 -0.0180
 8391TIP3    H146664   0.042   2.642   5.551 -0.3726 -1.0791  0.9045
 8391TIP3    H246665   0.148   2.556   5.486 -0.5778 -1.6845  1.3670
 8392TIP3   OH246666   6.282   6.600   4.103  0.1251 -0.5523 -0.0583
 8392TIP3    H146667   6.365   6.582   4.059  1.4429 -0.1487  2.1420
 8392TIP3    H246668   6.271   6.527   4.164  0.1595  0.6520  1.4417
 8393TIP3   OH246669   6.506   1.360  10.992  0.2743 -0.3787  0.1496
 8393TIP3    H146670   6.502   1.266  10.975 -0.0916 -0.1082 -1.3817
 8393TIP3    H246671   6.542   1.398  10.911  0.5791  0.7848  0.8042
 8394TIP3   OH246672   1.110   1.712   5.084  0.2921 -0.3772 -0.1901
 8394TIP3    H146673   1.080   1.740   4.998 -0.1896  0.1000  0.1279
 8394TIP3    H246674   1.029   1.699   5.135  0.3782 -3.4056 -0.6172
 8395TIP3   OH246675   3.522   3.901  11.402 -0.3755 -0.3132  0.2145
 8395TIP3    H146676   3.528   3.813  11.438  3.1367  0.1264  1.0677
 8395TIP3    H246677   3.545   3.892  11.310 -0.1697 -0.2942  0.2650
 8396TIP3   OH246678   5.416   3.489  16.080 -0.1217  0.3103 -0.4023
 8396TIP3    H146679   5.445   3.520  16.166  2.0407  0.3730 -1.1079
 8396TIP3    H246680   5.444   3.397  16.077 -1.0823  0.0131 -0.6725
 8397TIP3   OH246681   0.048   3.475   0.073 -0.0555  0.4934 -0.2810
 8397TIP3    H146682  -0.006   3.475  -0.006  0.0378 -1.4129 -0.3935
 8397TIP3    H246683   0.118   3.413   0.054 -0.0751 -0.0482  1.3255
 8398TIP3   OH246684   1.933   0.342  10.303 -0.2439  0.0443  0.2981
 8398TIP3    H146685   1.930   0.423  10.253 -2.3380 -0.7217 -0.9436
 8398TIP3    H246686   1.964   0.368  10.389 -0.7173  2.1373 -0.1057
 8399TIP3   OH246687   6.067   4.886   3.589  0.0737  0.3650 -0.0589
 8399TIP3    H146688   6.038   4.974   3.615 -0.3092  0.4903 -0.8782
 8399TIP3    H246689   6.151   4.875   3.633  0.2737  1.2719 -0.1862
 8400TIP3   OH246690   6.386   4.133  12.506 -0.1716  0.1064 -0.0006
 8400TIP3    H146691   6.305   4.105  12.463 -1.6972  0.0893  2.6433
 8400TIP3    H246692   6.413   4.211  12.459 -2.5213  0.8942 -0.1701
 8401TIP3   OH246693   6.050   6.707  13.582 -0.2803  0.3178  0.6201
 8401TIP3    H146694   6.037   6.801  13.594 -0.6261  0.1809  1.3685
 8401TIP3    H246695   5.992   6.684  13.509  0.2729  0.7944  0.0246
 8402TIP3   OH246696   6.473   3.095  13.203 -0.0698 -0.0090 -0.1750
 8402TIP3    H146697   6.459   3.006  13.170  0.9906  0.0385 -0.8210
 8402TIP3    H246698   6.395   3.115  13.255 -0.9333 -0.8175 -1.1224
 8403TIP3   OH246699   6.034   4.975  11.459 -0.0758  0.7194 -0.6182
 8403TIP3    H146700   5.962   5.034  11.434 -0.0843  0.5254 -1.0586
 8403TIP3    H246701   6.055   4.928  11.379 -1.3838 -1.2970  0.1341
 8404TIP3   OH246702   0.685   0.751  12.108  0.1425 -0.7484  0.2812
 8404TIP3    H146703   0.692   0.841  12.140  1.9779 -0.1066 -1.6689
 8404TIP3    H246704   0.631   0.706  12.173 -0.6632  1.6963  1.4167
 8405TIP3   OH246705   3.851   5.421   4.737  0.1629 -0.1201 -0.2130
 8405TIP3    H146706   3.906   5.491   4.774 -0.3889  0.7397 -0.9944
 8405TIP3    H246707   3.911   5.370   4.684  0.8731 -1.0989  1.4452
 8406TIP3   OH246708   6.122   6.320   3.920  0.3939 -0.7200  0.0638
 8406TIP3    H146709   6.139   6.345   4.011 -0.2639 -1.0984  0.3024
 8406TIP3    H246710   6.072   6.393   3.884 -0.2398 -1.0187  0.3197
 8407TIP3   OH246711   2.493   4.119   3.817  0.1981  0.0028 -0.7430
 8407TIP3    H146712   2.430   4.100   3.748 -0.0478 -0.8469 -0.2864
 8407TIP3    H246713   2.564   4.056   3.804 -0.3707 -0.9212  0.4512
 8408TIP3   OH246714   6.293   5.458   0.756  0.0213 -0.3201 -0.4743
 8408TIP3    H146715   6.264   5.366   0.754 -0.4240 -0.2460  1.1192
 8408TIP3    H246716   6.214   5.507   0.781  0.8306  0.1956  1.2245
 8409TIP3   OH246717   2.029   2.517   4.807 -0.0696  0.4123  0.4109
 8409TIP3    H146718   1.999   2.469   4.883  2.6167  2.2241  2.8406
 8409TIP3    H246719   2.034   2.451   4.737  1.3723 -2.3913  2.9314
 8410TIP3   OH246720   1.628   4.209  10.861  0.1934  0.4874  0.2389
 8410TIP3    H146721   1.630   4.122  10.821  1.0053  1.0913 -1.0920
 8410TIP3    H246722   1.596   4.267  10.791 -2.6205  0.9574  1.7697
 8411TIP3   OH246723   2.105   3.246  15.993  0.0126 -0.1862 -0.3972
 8411TIP3    H146724   2.173   3.213  16.052 -0.8174 -1.8638 -0.3050
 8411TIP3    H246725   2.119   3.341  15.991 -0.4720  0.1475  3.3017
 8412TIP3   OH246726   1.886   6.384   3.710 -0.1976 -0.2927 -0.4001
 8412TIP3    H146727   1.920   6.378   3.621 -0.1342  1.5134 -0.5486
 8412TIP3    H246728   1.795   6.357   3.703 -0.4505  0.6950 -1.2308
 8413TIP3   OH246729   2.114   6.654  12.772  0.2089  0.1476  0.2579
 8413TIP3    H146730   2.144   6.691  12.855 -0.4091  1.2863  0.0025
 8413TIP3    H246731   2.188   6.662  12.713  0.3159  0.2886  0.4124
 8414TIP3   OH246732   0.307   6.638  16.851  0.0604  0.9794 -0.3163
 8414TIP3    H146733   0.388   6.598  16.819  0.6069  2.1277 -0.4205
 8414TIP3    H246734   0.321   6.732  16.840 -2.0576  1.1640 -2.2136
 8415TIP3   OH246735   3.300   0.622  11.592 -0.0768  0.2199  0.2601
 8415TIP3    H146736   3.273   0.683  11.661  2.6474  0.3162  1.3750
 8415TIP3    H246737   3.249   0.649  11.515 -2.7895  0.4744  2.0369
 8416TIP3   OH246738   2.103   5.076  16.316  0.0637 -0.1389  0.5274
 8416TIP3    H146739   2.108   5.159  16.365 -1.2831  0.1624  0.1945
 8416TIP3    H246740   2.193   5.043  16.315  0.8030  1.7667 -0.1027
 8417TIP3   OH246741   1.337   1.509  12.914 -0.1521  0.1748 -0.6790
 8417TIP3    H146742   1.426   1.479  12.894  0.8151  0.2441  2.8653
 8417TIP3    H246743   1.295   1.436  12.958 -0.0584  1.6343  2.0796
 8418TIP3   OH246744   6.286   2.825   6.008 -0.2984 -0.5196 -0.3187
 8418TIP3    H146745   6.238   2.742   5.999 -0.0901 -0.9311  1.8954
 8418TIP3    H246746   6.291   2.840   6.102  0.0087  1.8458 -0.6602
 8419TIP3   OH246747   6.363   1.644   2.632  0.2340 -0.0931  0.0277
 8419TIP3    H146748   6.441   1.589   2.620 -0.1807 -0.6662 -0.0877
 8419TIP3    H246749   6.315   1.635   2.550 -0.6352 -0.8442  0.5955
 8420TIP3   OH246750   6.847   3.592   5.414  0.2804  0.5513 -0.2982
 8420TIP3    H146751   6.796   3.614   5.492 -0.4478 -0.7456 -0.3794
 8420TIP3    H246752   6.786   3.604   5.342  0.1296 -0.7801 -0.4170
 8421TIP3   OH246753   5.910   1.238  17.133 -0.1384 -0.1029  0.2933
 8421TIP3    H146754   5.959   1.156  17.133 -1.1223 -0.7324  2.2731
 8421TIP3    H246755   5.883   1.251  17.223  0.5480  2.7916  0.1982
 8422TIP3   OH246756   3.745   0.796  13.150  0.8284 -0.3800  0.3636
 8422TIP3    H146757   3.808   0.866  13.136 -0.2044  0.3856 -0.5305
 8422TIP3    H246758   3.672   0.816  13.092 -0.7058 -0.6798  2.1031
 8423TIP3   OH246759   1.051   3.178   1.637 -0.2069 -0.1998  0.3287
 8423TIP3    H146760   1.125   3.126   1.669  1.0377  0.3251 -1.5065
 8423TIP3    H246761   1.006   3.119   1.576  0.4088  0.3857 -0.7206
 8424TIP3   OH246762   4.374   2.621   0.162  0.4805 -0.3182  0.9202
 8424TIP3    H146763   4.458   2.594   0.124  0.1808  0.6168 -0.4840
 8424TIP3    H246764   4.316   2.546   0.148  0.1556  0.2602 -1.3094
 8425TIP3   OH246765   2.165   6.534  13.037  0.2163  0.0828  0.9786
 8425TIP3    H146766   2.154   6.444  13.068  0.0527 -0.4907 -0.6465
 8425TIP3    H246767   2.250   6.535  12.994 -0.2878  0.3634 -0.0531
 8426TIP3   OH246768   4.470   5.874   4.769  0.0324 -0.0738  0.6423
 8426TIP3    H146769   4.535   5.888   4.701  0.0964 -1.8712  0.2957
 8426TIP3    H246770   4.517   5.830   4.840 -0.6630 -0.8797  0.6191
 8427TIP3   OH246771   0.531   3.805   5.348  0.3300 -0.6310  0.4420
 8427TIP3    H146772   0.440   3.812   5.317  0.5503 -3.7177 -1.3066
 8427TIP3    H246773   0.578   3.764   5.275  2.7587 -0.7373  1.9658
 8428TIP3   OH246774   2.721   5.807  12.255 -0.0922  0.4188  0.5496
 8428TIP3    H146775   2.790   5.831  12.193  0.2900 -0.9008  0.4253
 8428TIP3    H246776   2.639   5.821  12.206  0.2131 -0.8789 -0.3931
 8429TIP3   OH246777   2.277   3.992  13.218 -0.1353 -0.4709 -0.1847
 8429TIP3    H146778   2.227   3.918  13.254  1.4320 -1.4688  0.0301
 8429TIP3    H246779   2.243   4.002  13.129  0.8771 -2.7169 -0.9102
 8430TIP3   OH246780   3.388   3.421  13.311 -0.1842 -0.3716  0.4216
 8430TIP3    H146781   3.483   3.405  13.317 -0.4291 -2.1290  0.2602
 8430TIP3    H246782   3.355   3.348  13.258 -1.4933  0.8496 -0.5112
 8431TIP3   OH246783   0.841   2.830   5.360 -0.4555  0.0053  0.4392
 8431TIP3    H146784   0.764   2.796   5.315 -0.3676 -0.2038  0.4454
 8431TIP3    H246785   0.807   2.873   5.438 -0.5071 -0.7220  0.8190
 8432TIP3   OH246786   0.229   1.262   1.260  0.1092  0.3694  0.9321
 8432TIP3    H146787   0.248   1.234   1.349 -0.3118 -3.1794  0.0546
 8432TIP3    H246788   0.134   1.263   1.254  0.1325 -0.2290  0.3206
 8433TIP3   OH246789   6.497   0.922  13.426  0.6667 -0.1895 -0.2438
 8433TIP3    H146790   6.503   1.006  13.379  1.6908  0.1121  0.3830
 8433TIP3    H246791   6.470   0.946  13.515 -0.8543 -0.7210 -0.5356
 8434TIP3   OH246792   4.374   2.967  10.405 -0.1359  0.1188  0.2302
 8434TIP3    H146793   4.291   3.014  10.395  0.2786  0.8857  0.3389
 8434TIP3    H246794   4.440   3.036  10.417  0.6969 -0.4014 -1.0343
 8435TIP3   OH246795   2.470   3.268   5.572 -0.2445  0.0052  0.3492
 8435TIP3    H146796   2.465   3.210   5.648  0.1020 -1.8227 -0.9496
 8435TIP3    H246797   2.380   3.276   5.541 -0.0883 -1.5904 -0.6564
 8436TIP3   OH246798   5.953   6.478   3.762  0.7038 -0.1686 -0.4527
 8436TIP3    H146799   5.993   6.517   3.684  0.8313 -0.0010 -0.3052
 8436TIP3    H246800   5.863   6.460   3.736  0.5294  0.5869 -0.4116
 8437TIP3   OH246801   5.879   4.274   3.548 -0.3755 -0.0365 -0.1856
 8437TIP3    H146802   5.896   4.354   3.598  2.5760 -0.1368 -0.8708
 8437TIP3    H246803   5.942   4.210   3.581 -0.7404 -1.2120 -1.6311
 8438TIP3   OH246804   1.697   2.787  11.897  0.2033 -0.3690  0.6421
 8438TIP3    H146805   1.683   2.813  11.988  0.9448  1.6934  0.2216
 8438TIP3    H246806   1.743   2.861  11.857  1.0760 -1.7522 -1.0912
 8439TIP3   OH246807   6.657   5.145   4.434 -0.6513 -0.4611 -0.0387
 8439TIP3    H146808   6.661   5.111   4.523 -1.9378  0.8845  0.5799
 8439TIP3    H246809   6.595   5.087   4.389 -1.7576  0.1842  0.6120
 8440TIP3   OH246810   1.541   2.851  11.466 -0.5602 -0.2469 -0.2190
 8440TIP3    H146811   1.521   2.765  11.431 -1.6592  0.3691 -1.1899
 8440TIP3    H246812   1.621   2.878  11.422 -0.0642 -0.8643  0.2882
 8441TIP3   OH246813   1.002   6.169   5.036 -0.3343  0.2128 -0.3293
 8441TIP3    H146814   1.062   6.215   4.977 -0.3724  1.0408  0.2670
 8441TIP3    H246815   1.011   6.076   5.012  0.7209  0.3908 -0.6496
 8442TIP3   OH246816   0.036   2.796  14.283  0.5846 -0.2517  0.0543
 8442TIP3    H146817  -0.039   2.740  14.300  1.6329 -1.6414  0.2714
 8442TIP3    H246818   0.035   2.808  14.188 -0.1656  0.1437  0.1016
 8443TIP3   OH246819   5.578   4.102  14.893  0.3139  0.4766  0.1672
 8443TIP3    H146820   5.633   4.108  14.814 -2.5531  1.3624 -1.9196
 8443TIP3    H246821   5.574   4.191  14.926  0.6718  0.2855  0.7448
 8444TIP3   OH246822   5.689   4.651  15.100  0.2278 -0.3144  0.1263
 8444TIP3    H146823   5.740   4.636  15.180  0.3862 -2.6691 -0.3310
 8444TIP3    H246824   5.734   4.600  15.033 -1.3604 -0.4872 -0.8720
 8445TIP3   OH246825   2.586   5.218   4.128  0.6565  0.0131  0.2838
 8445TIP3    H146826   2.504   5.230   4.081  0.8074  0.3294  0.0977
 8445TIP3    H246827   2.580   5.277   4.203  0.7072  0.0282  0.2759
 8446TIP3   OH246828   3.817   3.349  15.703 -0.0561 -0.2236 -0.5561
 8446TIP3    H146829   3.810   3.266  15.656 -1.1911 -0.7209  0.4494
 8446TIP3    H246830   3.810   3.416  15.635  1.1291 -0.9368 -1.4127
 8447TIP3   OH246831   6.411   3.935   3.709  0.7559 -0.4605  0.3461
 8447TIP3    H146832   6.455   3.853   3.686  0.3956 -0.8115  0.8810
 8447TIP3    H246833   6.324   3.927   3.672 -0.1104 -1.3834  2.4546
 8448TIP3   OH246834   3.363   3.971  16.763 -0.1409  0.2904 -0.0922
 8448TIP3    H146835   3.318   4.054  16.779 -1.5557 -0.2957 -0.8421
 8448TIP3    H246836   3.293   3.909  16.742  0.8030 -1.2906  1.1546
 8449TIP3   OH246837   5.013   5.914   4.730  0.4269  0.0594 -0.4684
 8449TIP3    H146838   4.988   5.837   4.678  0.0135 -0.5596  0.6284
 8449TIP3    H246839   4.965   5.986   4.690 -0.9127 -0.6321 -0.1526
 8450TIP3   OH246840   6.267   1.165   3.339  0.0018 -0.3140  0.1339
 8450TIP3    H146841   6.277   1.235   3.403 -1.6950 -0.1699  0.2950
 8450TIP3    H246842   6.356   1.145   3.312  0.7823 -0.3418  2.4769
 8451TIP3   OH246843   0.683   1.314  16.374 -0.3102  0.0305 -0.8479
 8451TIP3    H146844   0.677   1.410  16.380 -0.6118  0.2020 -3.1365
 8451TIP3    H246845   0.600   1.283  16.410 -0.1826  0.6125 -0.0143
 8452TIP3   OH246846   6.239   5.361  12.303 -0.0554 -0.1008 -1.0810
 8452TIP3    H146847   6.238   5.444  12.256  0.8864 -0.1789 -1.2733
 8452TIP3    H246848   6.147   5.334  12.306 -0.4337  1.1760 -0.5696
 8453TIP3   OH246849   0.966   0.667   5.824  0.5769 -0.1486 -0.3864
 8453TIP3    H146850   1.045   0.622   5.852  0.5836 -0.2299 -0.5355
 8453TIP3    H246851   0.983   0.759   5.843  0.3204 -0.2740  0.4912
 8454TIP3   OH246852   3.858   5.719  16.873  0.3294  0.8739 -0.1597
 8454TIP3    H146853   3.780   5.667  16.853  0.3711  0.8804 -0.3481
 8454TIP3    H246854   3.895   5.678  16.951  1.9257 -1.1800 -1.8546
 8455TIP3   OH246855   4.467   2.469   1.023 -0.2233  0.2466  0.4951
 8455TIP3    H146856   4.531   2.539   1.037  0.1447  0.1750 -0.7722
 8455TIP3    H246857   4.517   2.388   1.031 -0.1839  0.1861 -0.3512
 8456TIP3   OH246858   5.266   4.465   1.110  0.4158  0.1857  0.5423
 8456TIP3    H146859   5.218   4.492   1.032  0.6998 -1.0799 -0.1023
 8456TIP3    H246860   5.215   4.498   1.183  0.8846  2.6924 -0.1496
 8457TIP3   OH246861   3.060   1.053  16.962  0.0435 -0.5524  0.2527
 8457TIP3    H146862   3.146   1.075  16.925  0.9520 -1.0106  1.9972
 8457TIP3    H246863   3.004   1.125  16.934  0.9825 -0.2144 -0.8899
 8458TIP3   OH246864   0.947   3.008   4.850 -0.1623  0.4463  0.1740
 8458TIP3    H146865   1.024   2.951   4.855 -1.0077 -0.7575  0.1498
 8458TIP3    H246866   0.969   3.083   4.905  1.1926  0.3495 -0.1913
 8459TIP3   OH246867   0.754   0.818  13.678  0.2652  0.7170 -0.9818
 8459TIP3    H146868   0.707   0.753  13.731 -0.0406  0.4677 -1.5579
 8459TIP3    H246869   0.786   0.769  13.602  1.4840  0.8703 -0.6018
 8460TIP3   OH246870   3.305   1.210  15.308  0.1868  0.0977  0.0672
 8460TIP3    H146871   3.283   1.256  15.227  2.0900  1.0440  0.0452
 8460TIP3    H246872   3.305   1.118  15.284 -0.3219  0.2963 -0.7437
 8461TIP3   OH246873   5.510   2.612  13.763  0.5021 -0.0172  0.4650
 8461TIP3    H146874   5.532   2.589  13.672 -0.2473 -4.1623  1.1204
 8461TIP3    H246875   5.418   2.588  13.772  0.3899  0.8829  2.2233
 8462TIP3   OH246876   0.688   0.833   0.409 -0.1283 -0.4481  0.4638
 8462TIP3    H146877   0.638   0.789   0.478  0.0176  0.3627  1.0928
 8462TIP3    H246878   0.769   0.860   0.451  1.0749 -2.1166 -0.6385
 8463TIP3   OH246879   0.504   1.076   1.858  0.1394 -0.3114  0.5954
 8463TIP3    H146880   0.441   1.125   1.911 -0.6066  0.1992 -0.7163
 8463TIP3    H246881   0.525   0.999   1.910 -1.0450 -0.1409  1.3559
 8464TIP3   OH246882   2.019   4.657   4.334 -0.7521 -0.6593  0.9562
 8464TIP3    H146883   2.051   4.705   4.257 -1.3199 -0.1882  1.0044
 8464TIP3    H246884   1.941   4.706   4.362 -0.4729 -0.7511  1.9151
 8465TIP3   OH246885   4.371   2.376  15.317  0.3669 -0.4601 -0.3069
 8465TIP3    H146886   4.328   2.372  15.403  0.4258  0.2154 -0.2362
 8465TIP3    H246887   4.390   2.469  15.304  2.6180 -0.8134  0.0428
 8466TIP3   OH246888   0.351   0.108   4.210  0.1222  0.0606 -0.2665
 8466TIP3    H146889   0.282   0.122   4.145 -2.6271  0.7940  2.5558
 8466TIP3    H246890   0.304   0.076   4.287  3.3105 -1.6962  1.1190
 8467TIP3   OH246891   2.983   3.832  11.321  0.0696 -0.2913 -0.0322
 8467TIP3    H146892   3.052   3.782  11.277  1.2997  0.1647  1.3043
 8467TIP3    H246893   2.965   3.783  11.401  0.7012  0.9361  0.8899
 8468TIP3   OH246894   2.515   1.092   4.617  0.3012 -0.1617  0.0043
 8468TIP3    H146895   2.467   1.086   4.701 -0.3883 -0.5569 -0.4064
 8468TIP3    H246896   2.604   1.064   4.638  1.1131  3.0294  1.3526
 8469TIP3   OH246897   6.726   6.226  13.117  0.0125 -0.6792  0.2904
 8469TIP3    H146898   6.806   6.177  13.097  0.8530 -0.7230  3.2014
 8469TIP3    H246899   6.685   6.177  13.189 -3.2837 -1.2246 -1.7551
 8470TIP3   OH246900   0.832   2.464  12.208 -0.8527  0.4333  0.0313
 8470TIP3    H146901   0.905   2.509  12.165 -0.2381  0.2689  0.8667
 8470TIP3    H246902   0.767   2.533  12.221 -0.6250  0.7066 -0.2515
 8471TIP3   OH246903   2.779   3.417  10.168 -0.1728 -0.4591  0.1448
 8471TIP3    H146904   2.774   3.333  10.122 -1.1467 -0.5768  0.4337
 8471TIP3    H246905   2.745   3.398  10.256 -0.4268  0.2404  0.2036
 8472TIP3   OH246906   6.469   2.562   1.762  0.5543  0.1165 -0.2358
 8472TIP3    H146907   6.515   2.615   1.828 -0.4409 -0.9750  1.4258
 8472TIP3    H246908   6.465   2.618   1.685 -0.0403  2.3175  1.2810
 8473TIP3   OH246909   4.787   1.985  16.300 -0.5670  0.3218  0.0823
 8473TIP3    H146910   4.824   1.901  16.273 -0.1394  0.7322 -0.6245
 8473TIP3    H246911   4.837   2.009  16.378  0.1669  0.5110 -0.4353
 8474TIP3   OH246912   6.263   0.508  13.125 -0.1510 -0.8655 -0.0501
 8474TIP3    H146913   6.237   0.468  13.208  1.2297 -0.8577  0.4077
 8474TIP3    H246914   6.184   0.504  13.071 -0.6227 -2.3412  0.6919
 8475TIP3   OH246915   5.038   5.694   2.173 -0.1583  0.0900 -0.0481
 8475TIP3    H146916   5.101   5.701   2.245 -0.7086 -1.5816  0.6499
 8475TIP3    H246917   4.953   5.689   2.216 -0.4508 -1.6497 -0.7284
 8476TIP3   OH246918   1.255   6.579   0.170  0.1643 -0.5314  0.2593
 8476TIP3    H146919   1.262   6.615   0.259  0.8136 -1.4169  0.5824
 8476TIP3    H246920   1.189   6.510   0.178 -1.4529  0.8497 -0.4691
 8477TIP3   OH246921   4.774   3.976   1.888 -0.5832  0.1707  0.1063
 8477TIP3    H146922   4.837   3.905   1.900  1.1443  1.7102  0.7867
 8477TIP3    H246923   4.701   3.954   1.946  0.8083 -0.1147  1.8543
 8478TIP3   OH246924   0.340   6.545  14.052 -0.2336  0.4125 -0.3266
 8478TIP3    H146925   0.378   6.619  14.004 -1.0575  1.3611  0.4270
 8478TIP3    H246926   0.251   6.538  14.018  0.0911 -0.7843 -0.9720
 8479TIP3   OH246927   3.264   2.718   3.009 -0.0591  0.2914  0.2526
 8479TIP3    H146928   3.237   2.627   3.004 -1.6336  0.6246  1.6194
 8479TIP3    H246929   3.345   2.716   3.060 -0.9133 -0.2609  1.6654
 8480TIP3   OH246930   1.917   6.063   2.561  0.0326 -0.0202  0.4028
 8480TIP3    H146931   1.949   6.033   2.646 -0.3876  0.7657  0.8465
 8480TIP3    H246932   1.894   5.983   2.515  0.8116 -0.4895  0.8023
 8481TIP3   OH246933   6.787   3.465  16.958 -0.5548 -0.6323  0.6939
 8481TIP3    H146934   6.778   3.370  16.956  0.2295 -0.7151 -1.0836
 8481TIP3    H246935   6.881   3.480  16.968 -0.0750 -0.1879 -2.9760
 8482TIP3   OH246936   4.552   6.061   4.003  0.0799  0.3517 -0.0501
 8482TIP3    H146937   4.509   6.023   3.927  1.4594  1.1994 -1.3144
 8482TIP3    H246938   4.490   6.125   4.038 -0.3145  0.4055 -0.8505
 8483TIP3   OH246939   4.147   6.287  12.992 -0.6430 -0.0237 -0.0592
 8483TIP3    H146940   4.186   6.208  12.955 -1.4836 -0.1047 -0.8129
 8483TIP3    H246941   4.168   6.356  12.929 -1.3678  0.0019 -0.2908
 8484TIP3   OH246942   0.775   4.150   3.201 -0.3726 -0.4772 -0.3493
 8484TIP3    H146943   0.773   4.143   3.296 -0.9597  0.5983 -0.2608
 8484TIP3    H246944   0.794   4.062   3.170 -0.7782 -0.9598  0.7492
 8485TIP3   OH246945   1.850   6.692  13.416  0.2063 -0.1965  0.3625
 8485TIP3    H146946   1.882   6.607  13.385  0.7823 -0.1920  0.9253
 8485TIP3    H246947   1.928   6.748  13.417 -0.4632  0.8795 -1.6968
 8486TIP3   OH246948   4.752   5.965   3.662  0.3732  0.2715  0.3331
 8486TIP3    H146949   4.787   5.928   3.743  0.8443  0.0404  0.0324
 8486TIP3    H246950   4.657   5.956   3.670  0.4659 -1.9390 -0.1355
 8487TIP3   OH246951   3.005   1.999  14.377  1.2749 -0.7791 -0.0443
 8487TIP3    H146952   3.070   2.034  14.438  0.6844 -0.3298  0.3325
 8487TIP3    H246953   3.057   1.948  14.315  2.1548  0.6005 -0.5082
 8488TIP3   OH246954   6.094   5.735  14.895 -0.6845 -0.0360 -1.0032
 8488TIP3    H146955   6.185   5.747  14.870 -0.3651  0.2426  0.2222
 8488TIP3    H246956   6.045   5.742  14.813  0.5803 -2.8129 -2.1405
 8489TIP3   OH246957   1.973   5.944   2.824  0.1711 -0.0111  0.0332
 8489TIP3    H146958   2.025   5.954   2.903  0.1533 -1.3833  0.2424
 8489TIP3    H246959   1.883   5.944   2.854  0.1667 -0.5941  0.0192
 8490TIP3   OH246960   4.606   6.104  15.933  0.6986 -0.1353 -0.0445
 8490TIP3    H146961   4.574   6.036  15.992 -1.9667  0.0217 -1.1603
 8490TIP3    H246962   4.536   6.169  15.931  0.6603 -0.1222 -3.2965
 8491TIP3   OH246963   5.065   5.805  13.350  0.0871 -0.1473 -0.2291
 8491TIP3    H146964   5.010   5.794  13.428 -1.0816 -0.2031 -1.0397
 8491TIP3    H246965   5.102   5.893  13.360  1.2207 -0.7445  1.1506
 8492TIP3   OH246966   5.184   4.565  10.941  0.2793 -0.8531 -0.0098
 8492TIP3    H146967   5.155   4.545  10.852 -1.2754 -0.8698  0.4767
 8492TIP3    H246968   5.236   4.646  10.931 -0.9732 -0.1088 -0.7733
 8493TIP3   OH246969   5.210   1.109   5.827  0.1323  0.4553  0.4429
 8493TIP3    H146970   5.189   1.173   5.896 -1.3893  1.2560 -0.6954
 8493TIP3    H246971   5.145   1.040   5.839  0.6612 -0.0324  0.5601
 8494TIP3   OH246972   4.691   6.778  15.936 -0.0871 -0.2065  0.3078
 8494TIP3    H146973   4.772   6.826  15.916  0.0598 -1.1356 -1.4936
 8494TIP3    H246974   4.713   6.686  15.922 -0.8627 -0.6907  1.9989
 8495TIP3   OH246975   0.482   3.761  11.566  0.7252  0.0458 -0.0731
 8495TIP3    H146976   0.510   3.797  11.650 -0.1384 -0.5219  0.4811
 8495TIP3    H246977   0.533   3.809  11.501  0.6798  1.2011  0.7144
 8496TIP3   OH246978   0.470   0.857  16.120 -0.2040  0.2196  0.1931
 8496TIP3    H146979   0.522   0.790  16.077  0.4765  0.5957  0.4191
 8496TIP3    H246980   0.392   0.810  16.152  0.9445 -0.7787  1.6591
 8497TIP3   OH246981   1.028   1.000  16.852  0.2885  0.1508  0.0578
 8497TIP3    H146982   1.056   0.955  16.932 -0.9802  0.2804  0.6048
 8497TIP3    H246983   1.072   0.953  16.782  0.2622 -0.9247  0.7342
 8498TIP3   OH246984   0.137   1.278   4.318  0.5189  0.2869 -0.2593
 8498TIP3    H146985   0.074   1.316   4.380  0.9735  1.3908 -0.4623
 8498TIP3    H246986   0.136   1.185   4.338  0.8960  0.6562  1.6303
 8499TIP3   OH246987   2.828   2.825   6.543  0.5721  0.7220  0.8715
 8499TIP3    H146988   2.822   2.743   6.495 -0.9504  0.1617  1.9011
 8499TIP3    H246989   2.885   2.881   6.491 -0.4943 -0.0578 -1.2405
 8500TIP3   OH246990   0.964   6.241  15.237  0.7670 -0.9246 -0.0458
 8500TIP3    H146991   1.050   6.255  15.199  1.3688  1.2049  1.8885
 8500TIP3    H246992   0.918   6.324  15.224  0.0742 -1.0290  1.4605
 8501TIP3   OH246993   5.237   0.211  12.371  0.2214  0.3767 -0.0875
 8501TIP3    H146994   5.292   0.202  12.292  0.5568 -1.0676  0.2839
 8501TIP3    H246995   5.202   0.123  12.386  0.0841  0.6554  1.3257
 8502TIP3   OH246996   2.059   1.808   2.249  0.0809  0.3102  0.6261
 8502TIP3    H146997   2.012   1.850   2.320 -0.5508 -0.5617  0.7391
 8502TIP3    H246998   1.992   1.761   2.199  0.6429  0.1171  0.0222
 8503TIP3   OH246999   2.590   1.288  13.094 -0.1007  0.5002 -1.0927
 8503TIP3    H147000   2.683   1.301  13.114 -0.2750  1.8219 -1.0399
 8503TIP3    H247001   2.584   1.196  13.067  0.8664 -0.1948  0.8336
 8504TIP3   OH247002   4.033   3.690  11.915  0.4109  0.3574  0.1266
 8504TIP3    H147003   4.006   3.604  11.947  0.7406  0.5409  0.9175
 8504TIP3    H247004   3.962   3.718  11.859 -0.0593 -0.0985  0.4868
 8505TIP3   OH247005   3.892   4.604   1.738 -0.0144  0.6891  0.3945
 8505TIP3    H147006   3.798   4.616   1.727  0.0112  0.0216 -0.7079
 8505TIP3    H247007   3.924   4.584   1.650  0.4246 -3.8289  1.3245
 8506TIP3   OH247008   6.441   1.618  16.694  0.5744  0.2636 -0.2942
 8506TIP3    H147009   6.492   1.537  16.694 -0.0507 -0.1294  0.2448
 8506TIP3    H247010   6.507   1.687  16.707  1.3626  0.0309 -2.6196
 8507TIP3   OH247011   6.308   3.499   6.358  0.6244 -0.0446 -0.1926
 8507TIP3    H147012   6.232   3.551   6.332  1.0118  0.8013  0.3328
 8507TIP3    H247013   6.273   3.411   6.372 -0.5000  0.6013  1.2608
 8508TIP3   OH247014   4.126   1.280  15.531 -0.2844 -0.2824  0.6532
 8508TIP3    H147015   4.199   1.248  15.584  0.8179  0.9057 -0.1004
 8508TIP3    H247016   4.146   1.373  15.515 -0.1842 -0.7311 -2.4162
 8509TIP3   OH247017   5.868   2.809  16.637 -0.3178  0.3883 -0.1520
 8509TIP3    H147018   5.903   2.864  16.567 -0.1715  1.0236  0.4110
 8509TIP3    H247019   5.773   2.819  16.630 -0.3578 -0.4608 -0.9804
 8510TIP3   OH247020   5.767   4.631   1.068  1.0991  0.0295  0.2957
 8510TIP3    H147021   5.703   4.593   1.007  0.1069  0.2593  1.1543
 8510TIP3    H247022   5.797   4.557   1.120 -1.0169  0.3692  2.1322
 8511TIP3   OH247023   6.069   0.156  12.676  0.0558  0.1226  0.7880
 8511TIP3    H147024   6.119   0.230  12.642  1.1969 -0.9331  0.0590
 8511TIP3    H247025   6.065   0.094  12.603  3.0100 -2.4579  2.5484
 8512TIP3   OH247026   1.157   1.001  15.704  0.2606 -0.1434 -0.1593
 8512TIP3    H147027   1.244   1.040  15.700  0.5016 -0.7629 -1.7127
 8512TIP3    H247028   1.113   1.032  15.625 -0.1889 -1.4941 -0.4713
 8513TIP3   OH247029   3.218   6.193   4.586 -0.4511  0.1882 -0.2776
 8513TIP3    H147030   3.159   6.245   4.641  1.0172  1.8074 -0.1315
 8513TIP3    H247031   3.291   6.252   4.568  1.4070 -1.8894  0.0213
 8514TIP3   OH247032   1.733   0.276   6.361 -0.4340 -0.4023 -0.0030
 8514TIP3    H147033   1.712   0.218   6.288 -0.6024 -1.2104  0.6770
 8514TIP3    H247034   1.649   0.316   6.385 -0.1601  0.9385 -1.1241
 8515TIP3   OH247035   0.707   4.851  11.258  0.8013  0.6605 -0.0984
 8515TIP3    H147036   0.614   4.827  11.256  0.3734  1.2228  3.7084
 8515TIP3    H247037   0.754   4.770  11.240 -0.4596 -0.0895 -0.1106
 8516TIP3   OH247038   4.754   0.113  13.420 -0.5238 -0.4504  0.3272
 8516TIP3    H147039   4.815   0.176  13.457 -1.6045  0.3149  0.8645
 8516TIP3    H247040   4.693   0.094  13.491 -0.9123 -1.1891 -0.1897
 8517TIP3   OH247041   5.301   6.665  15.433  0.1791 -0.4895  0.4171
 8517TIP3    H147042   5.210   6.646  15.410 -0.4353  0.4438  1.9242
 8517TIP3    H247043   5.295   6.732  15.501  1.9971 -0.5438  0.6794
 8518TIP3   OH247044   1.683   1.615  11.180 -0.4314  0.7148  0.1498
 8518TIP3    H147045   1.764   1.565  11.187 -1.2274 -0.4754  1.1887
 8518TIP3    H247046   1.626   1.561  11.126  0.0918  2.4552 -2.2822
 8519TIP3   OH247047   4.900   2.360   5.491  0.1793  0.6683 -0.4349
 8519TIP3    H147048   4.920   2.450   5.464  1.9266  0.2413 -0.7293
 8519TIP3    H247049   4.885   2.367   5.585  1.4831  1.1334 -0.2355
 8520TIP3   OH247050   2.053   3.840  11.658 -0.4490  0.1621 -0.2138
 8520TIP3    H147051   2.068   3.819  11.566 -1.5328  1.3416 -0.6958
 8520TIP3    H247052   2.063   3.935  11.662  1.0134 -0.0165  1.1987
 8521TIP3   OH247053   3.862   5.926   4.906 -0.0328  0.5089  0.1033
 8521TIP3    H147054   3.771   5.904   4.926  0.0046 -0.4952 -0.7472
 8521TIP3    H247055   3.858   5.985   4.831 -0.0713  2.4976  1.6078
 8522TIP3   OH247056   2.313   3.766  15.596 -0.5065 -0.2224  0.2799
 8522TIP3    H147057   2.218   3.752  15.591 -0.4863  0.0324 -1.4248
 8522TIP3    H247058   2.337   3.800  15.510  1.2016 -0.6288  0.5525
 8523TIP3   OH247059   5.325   2.062   3.347 -0.1516  0.2273 -0.5472
 8523TIP3    H147060   5.378   2.001   3.295 -0.3391 -0.4700  0.0481
 8523TIP3    H247061   5.250   2.010   3.374  1.8199 -0.8023  3.7868
 8524TIP3   OH247062   4.619   2.658  15.023 -0.0995  0.2531 -0.2085
 8524TIP3    H147063   4.648   2.583  15.076 -0.4867  1.1625  1.3451
 8524TIP3    H247064   4.698   2.709  15.009 -0.1983  0.6027  0.4887
 8525TIP3   OH247065   1.621   6.432  13.243  0.4827  0.3551  0.2417
 8525TIP3    H147066   1.695   6.494  13.248  1.2753 -0.6741  2.3611
 8525TIP3    H247067   1.658   6.349  13.272 -0.5958 -1.1834 -2.4176
 8526TIP3   OH247068   1.818   5.805   4.867 -0.4554  0.3278  0.4837
 8526TIP3    H147069   1.728   5.833   4.884 -0.1846  1.4492  0.2084
 8526TIP3    H247070   1.867   5.887   4.858  0.4641 -0.2538 -0.0368
 8527TIP3   OH247071   0.754   0.868   1.775 -0.0544 -0.5220 -0.3096
 8527TIP3    H147072   0.742   0.934   1.706 -2.5604 -1.6457 -1.0757
 8527TIP3    H247073   0.785   0.790   1.728 -0.1969 -0.8159  0.0820
 8528TIP3   OH247074   2.532   5.195  11.536  0.0190 -0.1386 -0.0994
 8528TIP3    H147075   2.533   5.289  11.515  2.2075  0.0482  0.5858
 8528TIP3    H247076   2.591   5.187  11.611  1.7145 -2.3653 -1.5591
 8529TIP3   OH247077   6.559   6.217   0.302 -0.1193 -0.3842  0.4249
 8529TIP3    H147078   6.528   6.266   0.226  0.2698 -1.8865 -0.7456
 8529TIP3    H247079   6.486   6.160   0.325  0.0159 -0.4249  0.7611
 8530TIP3   OH247080   3.524   0.257   1.534  0.0718 -0.0384 -0.7389
 8530TIP3    H147081   3.436   0.262   1.496  0.0989 -0.7721 -0.9178
 8530TIP3    H247082   3.522   0.178   1.588  0.2554  0.5970  0.2221
 8531TIP3   OH247083   2.143   2.859  11.122 -0.3368 -0.5281 -0.0229
 8531TIP3    H147084   2.170   2.805  11.047  0.5640 -0.0639 -0.0469
 8531TIP3    H247085   2.119   2.943  11.083  3.2250  0.8742  0.3877
 8532TIP3   OH247086   1.055   3.243  14.829  0.0567 -0.0340 -0.3786
 8532TIP3    H147087   1.012   3.168  14.788 -1.7742  0.5809  0.3105
 8532TIP3    H247088   1.087   3.210  14.912 -0.2642 -0.1935 -0.3172
 8533TIP3   OH247089   2.140   5.635   4.284  0.2587 -0.8659  0.7406
 8533TIP3    H147090   2.125   5.647   4.190  1.2054  0.3668  0.7172
 8533TIP3    H247091   2.053   5.619   4.320 -0.6611  1.9871  0.0854
 8534TIP3   OH247092   2.479   4.674  11.178 -0.1193 -0.1761  0.0933
 8534TIP3    H147093   2.493   4.585  11.147 -1.2213 -0.2141 -0.3216
 8534TIP3    H247094   2.470   4.727  11.099  0.0659  0.2317  0.3379
 8535TIP3   OH247095   4.968   3.697  13.871 -0.4242  0.2097  0.3025
 8535TIP3    H147096   4.875   3.679  13.888  0.2957 -3.2702  1.5077
 8535TIP3    H247097   4.984   3.660  13.784  0.1676 -0.9601  0.8861
 8536TIP3   OH247098   4.625   1.817   2.269 -0.5839 -0.5443 -0.0231
 8536TIP3    H147099   4.656   1.833   2.358  0.0096 -0.5157 -0.2341
 8536TIP3    H247100   4.627   1.903   2.226 -1.1057 -0.5129  0.0039
 8537TIP3   OH247101   0.341   0.612   0.794 -0.4266  0.1995  0.3542
 8537TIP3    H147102   0.296   0.527   0.788 -0.6632  0.2773  0.9783
 8537TIP3    H247103   0.343   0.631   0.887  0.7261  0.2999  0.3207
 8538TIP3   OH247104   4.585   1.166   6.049 -0.1866 -0.4605  0.2004
 8538TIP3    H147105   4.635   1.202   6.122 -0.3118  1.0283 -0.4179
 8538TIP3    H247106   4.559   1.079   6.078  2.0014 -0.9469  0.8972
 8539TIP3   OH247107   0.386   2.472  13.489  0.1541  0.6271  0.0762
 8539TIP3    H147108   0.437   2.447  13.412 -1.9887 -1.9285 -0.6460
 8539TIP3    H247109   0.417   2.413  13.558 -1.4322 -0.6148 -0.2429
 8540TIP3   OH247110   6.820   4.847  12.862  0.6736 -0.6165 -0.4947
 8540TIP3    H147111   6.753   4.815  12.923 -1.2283  0.9554 -1.6262
 8540TIP3    H247112   6.860   4.921  12.907 -0.8429  0.6463 -1.1320
 8541TIP3   OH247113   2.833   0.536   5.149  0.4495  0.4297  0.3076
 8541TIP3    H147114   2.882   0.489   5.081  1.4942  2.5090 -0.4770
 8541TIP3    H247115   2.798   0.612   5.104 -2.4575 -0.2835  1.1909
 8542TIP3   OH247116   0.355   5.875   3.629  0.7181 -0.0677 -0.4010
 8542TIP3    H147117   0.283   5.812   3.631  1.4445 -0.9686 -1.2763
 8542TIP3    H247118   0.395   5.868   3.715  0.6173 -0.6132 -0.3920
 8543TIP3   OH247119   1.499   6.393   3.505 -0.2344 -0.1789  0.0289
 8543TIP3    H147120   1.564   6.369   3.571  0.2557  1.6275  0.2460
 8543TIP3    H247121   1.483   6.311   3.457  1.0900 -1.0039  0.9185
 8544TIP3   OH247122   6.756   6.565   5.579  0.8711 -0.5257 -0.5958
 8544TIP3    H147123   6.705   6.541   5.656 -1.4818 -0.7539 -2.1362
 8544TIP3    H247124   6.759   6.485   5.526 -0.2647  0.3882 -2.1439
 8545TIP3   OH247125   4.559   5.343  14.335 -0.2338  0.0449 -0.4974
 8545TIP3    H147126   4.574   5.433  14.364  1.7867 -0.7051  0.9742
 8545TIP3    H247127   4.643   5.300  14.345 -0.7024 -1.5898 -2.9039
 8546TIP3   OH247128   1.678   4.183   3.732 -0.0225  0.0933 -0.2340
 8546TIP3    H147129   1.754   4.211   3.784 -1.1794  1.2278  0.9300
 8546TIP3    H247130   1.624   4.133   3.794 -1.7612  2.0483 -0.0538
 8547TIP3   OH247131   0.591   2.228  13.366  0.5853  0.1164  0.2143
 8547TIP3    H147132   0.611   2.158  13.303  1.1183 -0.8905  1.4519
 8547TIP3    H247133   0.501   2.211  13.392  0.7604 -0.2051  0.6194
 8548TIP3   OH247134   3.155   3.565  13.293 -0.1479  0.1985  0.0107
 8548TIP3    H147135   3.240   3.521  13.297  0.4664  1.0926 -2.1646
 8548TIP3    H247136   3.092   3.497  13.320  1.0926 -0.9206  0.2002
 8549TIP3   OH247137   4.461   0.637   5.487 -0.5946  0.6858  0.1754
 8549TIP3    H147138   4.461   0.562   5.547 -0.3542  0.5767  0.0401
 8549TIP3    H247139   4.383   0.623   5.433 -0.8833  0.8502  0.5404
 8550TIP3   OH247140   2.861   0.601  10.951  0.1957  0.6903  0.1550
 8550TIP3    H147141   2.852   0.696  10.957 -1.1471  0.5294  1.1572
 8550TIP3    H247142   2.906   0.576  11.032 -2.6642  0.1794  1.7269
 8551TIP3   OH247143   2.144   3.968  15.903 -0.6627 -0.3740  0.4362
 8551TIP3    H147144   2.195   3.887  15.896 -0.5037 -0.2679  0.3831
 8551TIP3    H247145   2.053   3.939  15.893 -0.6224 -0.5761  0.6347
 8552TIP3   OH247146   5.829   6.324  14.913 -0.4433  0.0032  0.2879
 8552TIP3    H147147   5.782   6.394  14.957  0.2093  0.1077  0.8455
 8552TIP3    H247148   5.886   6.288  14.981  1.0126  0.5457 -0.6061
 8553TIP3   OH247149   6.023   2.504  12.883 -0.3230  0.1125  0.0450
 8553TIP3    H147150   6.095   2.547  12.928 -0.5446 -0.9757  1.4979
 8553TIP3    H247151   6.000   2.564  12.811  1.0061  1.1843  0.4828
 8554TIP3   OH247152   3.757   5.339  15.900  0.6843  0.2289 -0.5216
 8554TIP3    H147153   3.784   5.413  15.955 -1.0043  0.6821 -0.2566
 8554TIP3    H247154   3.705   5.283  15.958  1.0876 -0.6534 -0.9917
 8555TIP3   OH247155   0.410   0.895   6.016  0.5485  0.4125  0.5201
 8555TIP3    H147156   0.373   0.858   6.096  0.5351  0.9051  0.7493
 8555TIP3    H247157   0.340   0.948   5.979  0.5360  0.1415  0.1479
 8556TIP3   OH247158   2.907   1.134   3.265  0.5633  0.8089 -0.4594
 8556TIP3    H147159   2.851   1.058   3.279  0.2679  0.4149 -3.2342
 8556TIP3    H247160   2.971   1.131   3.336 -1.0414 -0.4969  1.0024
 8557TIP3   OH247161   2.101   0.111  16.753  0.2813  0.4239 -0.2801
 8557TIP3    H147162   2.123   0.030  16.798 -2.4528 -0.1082  0.2436
 8557TIP3    H247163   2.080   0.173  16.823 -0.9985  0.5165 -0.7160
 8558TIP3   OH247164   0.604   2.146   1.602 -0.1026 -0.2816  0.3637
 8558TIP3    H147165   0.687   2.192   1.607  0.1865 -0.8398  0.8146
 8558TIP3    H247166   0.623   2.058   1.636 -1.1272 -0.0771  1.5175
 8559TIP3   OH247167   3.131   0.100  14.635  0.5827 -0.1194 -0.5185
 8559TIP3    H147168   3.121   0.108  14.730  1.8799 -1.2232 -0.2600
 8559TIP3    H247169   3.149   0.189  14.606 -2.7707  0.8309 -0.2008
 8560TIP3   OH247170   1.901   0.562  14.248 -0.4131 -0.8668 -0.2481
 8560TIP3    H147171   1.897   0.601  14.161  0.7994 -0.8178 -0.3002
 8560TIP3    H247172   1.990   0.579  14.278 -0.7595 -1.0377  0.9354
 8561TIP3   OH247173   2.253   2.593   0.852  0.5080  0.7511 -0.3351
 8561TIP3    H147174   2.297   2.664   0.806 -0.1253  0.1261 -1.9841
 8561TIP3    H247175   2.258   2.519   0.792 -0.5946 -0.0247  0.4898
 8562TIP3   OH247176   2.951   0.546  16.659  0.3292 -0.5931 -0.1547
 8562TIP3    H147177   2.959   0.454  16.634 -1.1286 -0.3881 -1.5421
 8562TIP3    H247178   2.959   0.546  16.754 -0.1246 -2.2208 -0.0894
 8563TIP3   OH247179   0.846   6.430  14.309 -0.9292 -0.4527 -0.2032
 8563TIP3    H147180   0.896   6.382  14.243  1.4889  2.0316 -0.3938
 8563TIP3    H247181   0.799   6.497  14.260 -4.0230 -2.2143  0.0853
 8564TIP3   OH247182   6.789   1.303   1.212  0.2331  0.2161 -0.1124
 8564TIP3    H147183   6.706   1.344   1.236 -0.4031 -1.4569  0.7055
 8564TIP3    H247184   6.766   1.246   1.137  0.9533  0.8198 -0.8086
 8565TIP3   OH247185   4.626   5.456  13.749 -0.5585 -0.1170 -0.0639
 8565TIP3    H147186   4.647   5.390  13.815  1.6456 -0.5825 -1.1511
 8565TIP3    H247187   4.688   5.527  13.765 -0.4257  0.0446 -1.2122
 8566TIP3   OH247188   4.423   0.161  12.861  0.1124  0.4779  0.2780
 8566TIP3    H147189   4.366   0.109  12.916 -1.0958  1.5384  0.0823
 8566TIP3    H247190   4.398   0.140  12.771 -0.9768  1.9486  0.1956
 8567TIP3   OH247191   4.873   2.484   5.752  0.0234  0.3959 -0.0454
 8567TIP3    H147192   4.816   2.499   5.827 -0.5829 -0.7453 -0.2652
 8567TIP3    H247193   4.925   2.565   5.745 -1.4121  1.3757  0.2707
 8568TIP3   OH247194   5.253   3.717   5.707  0.0259  0.0127  0.2837
 8568TIP3    H147195   5.173   3.769   5.708 -1.4588 -2.1277  1.0464
 8568TIP3    H247196   5.226   3.633   5.669  2.2072 -0.3865 -0.5229
 8569TIP3   OH247197   4.122   2.001  12.027  0.1924  0.1445  0.0244
 8569TIP3    H147198   4.061   2.074  12.034 -0.3744 -0.3682  0.4839
 8569TIP3    H247199   4.104   1.947  12.103  0.6205 -0.4699 -0.3020
 8570TIP3   OH247200   2.199   0.020  15.595  0.4695 -0.1702 -0.0544
 8570TIP3    H147201   2.129   0.052  15.537 -1.6645 -0.0611  2.4061
 8570TIP3    H247202   2.198  -0.075  15.581 -1.2265 -0.3397  0.9755
 8571TIP3   OH247203   3.507   6.448  11.775  0.5032 -0.4072 -0.1765
 8571TIP3    H147204   3.412   6.455  11.777  0.5883  0.9208  0.1560
 8571TIP3    H247205   3.528   6.426  11.684 -0.0523  0.6009 -0.5549
 8572TIP3   OH247206   5.587   0.142  12.789 -0.0663 -0.7985 -0.0971
 8572TIP3    H147207   5.524   0.090  12.740 -2.2164  0.5499  1.1008
 8572TIP3    H247208   5.607   0.090  12.866  0.5235 -1.3238 -0.5866
 8573TIP3   OH247209   1.459   6.204  12.494 -0.3728 -0.3750  0.2706
 8573TIP3    H147210   1.494   6.129  12.542 -1.1466 -0.5101  0.6388
 8573TIP3    H247211   1.498   6.280  12.538 -0.0123 -0.5437  0.2439
 8574TIP3   OH247212   6.259   4.704   5.420 -0.3126 -0.5938  0.0478
 8574TIP3    H147213   6.264   4.713   5.325  1.3946 -0.4060  0.1224
 8574TIP3    H247214   6.349   4.717   5.450 -1.0692  0.9786  1.8335
 8575TIP3   OH247215   5.277   1.033  15.141  0.0890 -0.1589  0.1752
 8575TIP3    H147216   5.348   1.055  15.081  2.1767  0.7810  2.7762
 8575TIP3    H247217   5.241   0.951  15.107  2.3598 -0.6415 -1.2901
 8576TIP3   OH247218   1.776   0.176  14.837 -0.3460  0.1093  0.0850
 8576TIP3    H147219   1.784   0.272  14.837  0.2388  0.0715  0.8189
 8576TIP3    H247220   1.777   0.152  14.930  2.1189 -0.7964 -0.0974
 8577TIP3   OH247221   6.331   0.775  12.561  0.3739 -0.1886  0.1245
 8577TIP3    H147222   6.393   0.706  12.583  0.0471 -0.4757  0.1645
 8577TIP3    H247223   6.384   0.854  12.553  0.8910 -0.6253 -0.9070
 8578TIP3   OH247224   5.537   2.929   0.630  0.8172 -0.1404 -0.0736
 8578TIP3    H147225   5.497   3.004   0.586  1.3632  1.3478  1.8318
 8578TIP3    H247226   5.464   2.870   0.649  0.2772  0.2276 -0.9720
 8579TIP3   OH247227   6.798   1.812   3.851 -0.2997 -0.6201 -0.8720
 8579TIP3    H147228   6.815   1.840   3.761 -1.3142  0.9151 -0.6309
 8579TIP3    H247229   6.884   1.807   3.891  0.0603  0.2903 -1.4951
 8580TIP3   OH247230   4.881   0.951  16.578 -0.1956 -0.8722 -0.7297
 8580TIP3    H147231   4.834   0.869  16.592 -1.1376 -0.3962 -1.0113
 8580TIP3    H247232   4.848   0.984  16.495  0.2235 -0.2363 -0.6549
 8581TIP3   OH247233   0.644   6.312  13.033 -0.4163  0.1860 -0.1363
 8581TIP3    H147234   0.658   6.313  13.127  0.7889  2.3326 -0.2839
 8581TIP3    H247235   0.729   6.291  12.996 -1.0859 -1.5733 -0.7632
 8582TIP3   OH247236   1.932   5.407  15.649  1.0788 -0.1218 -0.2200
 8582TIP3    H147237   1.860   5.462  15.679  1.1178 -0.5331  0.6556
 8582TIP3    H247238   1.937   5.423  15.554  0.1592  0.2772 -0.2071
 8583TIP3   OH247239   1.165   2.971  11.636 -0.5030 -0.1272  0.1720
 8583TIP3    H147240   1.175   2.887  11.590  0.8603 -0.6233  1.2998
 8583TIP3    H247241   1.142   2.946  11.725 -0.1767  0.6955  0.4899
 8584TIP3   OH247242   4.718   5.483  12.740  0.1854  0.2889  0.5850
 8584TIP3    H147243   4.633   5.480  12.783 -0.1768 -1.4526 -0.1489
 8584TIP3    H247244   4.745   5.392  12.734  0.7921  0.5457 -1.6875
 8585TIP3   OH247245   2.266   4.787   0.017 -0.2626  0.4649  1.0045
 8585TIP3    H147246   2.230   4.849  -0.046 -0.3446  0.9701  1.5468
 8585TIP3    H247247   2.249   4.826   0.103 -0.6050 -0.4609  1.3687
 8586TIP3   OH247248   2.783   0.516  14.527 -0.1307 -0.2807  0.1520
 8586TIP3    H147249   2.857   0.507  14.586  0.1303 -1.7034 -0.3551
 8586TIP3    H247250   2.734   0.591  14.561  0.7518 -0.2169  1.3423
 8587TIP3   OH247251   6.809   2.235   5.245  0.4759 -0.4291 -0.4994
 8587TIP3    H147252   6.761   2.253   5.164 -1.2492 -1.3788  0.2729
 8587TIP3    H247253   6.828   2.142   5.242  0.5952 -0.4316  0.0975
 8588TIP3   OH247254   3.609   0.017  12.609 -0.1285  0.3058  0.3706
 8588TIP3    H147255   3.607  -0.072  12.572 -0.1288  0.1901  0.6446
 8588TIP3    H247256   3.525   0.055  12.584 -0.1077  0.2487  0.2069
 8589TIP3   OH247257   4.441   5.174   2.864 -0.5162 -0.3455 -0.0442
 8589TIP3    H147258   4.516   5.225   2.832  0.2973 -0.7538  1.1693
 8589TIP3    H247259   4.373   5.188   2.797  0.4016  0.5789 -0.8232
 8590TIP3   OH247260   3.961   3.715   2.157 -0.0078  0.7082  0.3423
 8590TIP3    H147261   3.914   3.748   2.079  0.5419 -0.3766 -0.4817
 8590TIP3    H247262   3.891   3.684   2.215 -0.4349  1.6854  0.3762
 8591TIP3   OH247263   6.133   5.621   1.803  0.1292  0.1177 -0.9943
 8591TIP3    H147264   6.120   5.700   1.856  0.1853 -0.5622  0.0731
 8591TIP3    H247265   6.051   5.611   1.754 -0.8095 -0.4122  0.5958
 8592TIP3   OH247266   4.035   1.428  10.732  0.3989 -0.1824  0.0129
 8592TIP3    H147267   3.966   1.472  10.781 -1.0844 -3.2644  0.9074
 8592TIP3    H247268   3.993   1.398  10.652  1.0777 -0.9266 -0.0722
 8593TIP3   OH247269   1.985   5.242   4.212 -0.1905 -0.0681  0.8035
 8593TIP3    H147270   1.905   5.279   4.247 -0.1218  0.6139  0.2525
 8593TIP3    H247271   1.975   5.246   4.117 -0.6819 -2.5560  0.6853
 8594TIP3   OH247272   3.993   6.665   1.745 -0.4982  0.6957 -0.4618
 8594TIP3    H147273   3.996   6.741   1.804  1.5458 -0.5134  1.1211
 8594TIP3    H247274   3.920   6.613   1.778  0.2077  0.3580  0.6035
 8595TIP3   OH247275   3.179   4.467  15.960 -0.7644 -0.9269  0.0912
 8595TIP3    H147276   3.133   4.512  16.031  0.0694 -0.6293  0.4578
 8595TIP3    H247277   3.240   4.533  15.926  0.5583 -1.8022  0.7139
 8596TIP3   OH247278   3.891   0.983   0.566 -0.0386 -0.6784  0.1037
 8596TIP3    H147279   3.924   1.034   0.492  3.1097  0.3961  2.0453
 8596TIP3    H247280   3.841   1.045   0.617  0.3873 -0.5847  0.4131
 8597TIP3   OH247281   3.024   5.768   5.711 -0.2443 -0.2972  0.0251
 8597TIP3    H147282   3.084   5.814   5.769 -1.2561  0.7160  0.3135
 8597TIP3    H247283   2.956   5.733   5.769 -0.6775 -0.2248 -0.4275
 8598TIP3   OH247284   3.363   5.738  13.591 -0.4050  0.0900  0.6423
 8598TIP3    H147285   3.288   5.715  13.646 -0.6891 -1.9536 -0.5418
 8598TIP3    H247286   3.334   5.816  13.543 -0.9490  0.6055  1.7678
 8599TIP3   OH247287   3.108   1.662  11.840  0.4862  0.5712 -0.3438
 8599TIP3    H147288   3.139   1.713  11.765 -0.7897 -1.9430 -2.7609
 8599TIP3    H247289   3.021   1.698  11.859  0.2903  0.4240 -0.9333
 8600TIP3   OH247290   3.480   6.082  12.422 -0.0552 -0.3034 -0.0652
 8600TIP3    H147291   3.480   6.039  12.337 -0.3905 -0.3528 -0.0395
 8600TIP3    H247292   3.399   6.054  12.463  0.0997 -0.2711  0.2672
 8601TIP3   OH247293   4.283   1.608  10.225  0.1839 -0.4958 -0.9513
 8601TIP3    H147294   4.253   1.688  10.268  1.1760 -1.0994  0.9916
 8601TIP3    H247295   4.377   1.620  10.214  0.1300 -0.8428 -1.9563
 8602TIP3   OH247296   4.140   6.436   3.044  0.2381  0.2011  0.4757
 8602TIP3    H147297   4.174   6.389   3.121 -1.4499 -1.7552  0.1099
 8602TIP3    H247298   4.214   6.438   2.983  0.7681 -0.7899  1.0484
 8603TIP3   OH247299   2.810   5.320   0.794  0.2662 -0.0651  0.0976
 8603TIP3    H147300   2.854   5.242   0.827  0.6535  0.2590  0.3675
 8603TIP3    H247301   2.806   5.307   0.699  1.9845  0.3998 -0.0768
 8604TIP3   OH247302   6.228   2.917  14.769  0.4745 -0.3806  0.4257
 8604TIP3    H147303   6.227   2.978  14.844  0.7968 -1.9905  1.8068
 8604TIP3    H247304   6.299   2.950  14.713  0.4099  0.7156  0.9459
 8605TIP3   OH247305   4.929   0.406  15.347  0.0542  0.1949  0.0658
 8605TIP3    H147306   5.001   0.343  15.338  0.7644  1.1916 -1.8792
 8605TIP3    H247307   4.962   0.471  15.409  0.0023 -0.4323  0.7592
 8606TIP3   OH247308   0.983   5.721   5.808  0.3814 -0.5143 -0.3668
 8606TIP3    H147309   0.942   5.640   5.837  0.8848 -0.1753  1.4262
 8606TIP3    H247310   0.994   5.772   5.888  0.6640  1.0591 -1.3725
 8607TIP3   OH247311   0.864   4.160   5.050 -0.3681  0.6879  0.5597
 8607TIP3    H147312   0.789   4.197   5.005 -0.1910 -1.9980 -2.3262
 8607TIP3    H247313   0.842   4.067   5.061  2.4012 -0.1872 -0.3536
 8608TIP3   OH247314   1.355   5.548  15.695 -0.1409 -0.3288 -0.2485
 8608TIP3    H147315   1.394   5.635  15.688  1.3291 -1.0207 -1.0352
 8608TIP3    H247316   1.367   5.524  15.787  0.5680 -0.1948 -0.3004
 8609TIP3   OH247317   3.442   1.475  12.579  0.0300 -0.6323  0.1611
 8609TIP3    H147318   3.490   1.548  12.540 -0.4846 -0.1950  0.3420
 8609TIP3    H247319   3.366   1.515  12.620 -1.4422 -1.4804 -1.5861
 8610TIP3   OH247320   5.838   6.700  13.352  0.4221  1.3318 -0.2756
 8610TIP3    H147321   5.787   6.627  13.387  1.4306  1.1278  0.8181
 8610TIP3    H247322   5.819   6.699  13.258 -2.6031  2.0981  0.2260
 8611TIP3   OH247323   2.786   4.411  12.470 -0.1513 -0.2455 -1.0055
 8611TIP3    H147324   2.864   4.365  12.501 -0.0479  0.6428  0.1294
 8611TIP3    H247325   2.713   4.356  12.497 -0.0531  0.4011  0.7513
 8612TIP3   OH247326   1.233   0.925   1.945  0.7082 -0.0726 -0.2315
 8612TIP3    H147327   1.262   0.935   1.854 -0.7554  0.0778 -0.7201
 8612TIP3    H247328   1.138   0.910   1.938  0.6891 -0.8091  1.2362
 8613TIP3   OH247329   3.869   1.998   4.477 -0.8813 -0.1033  0.0537
 8613TIP3    H147330   3.942   1.993   4.539  1.1699  0.0972 -2.1938
 8613TIP3    H247331   3.805   1.934   4.510  1.1600 -1.7484  1.0965
 8614TIP3   OH247332   3.473   2.291   6.434 -0.2627  0.8248  0.1338
 8614TIP3    H147333   3.532   2.346   6.384  0.2644  0.9285  0.8522
 8614TIP3    H247334   3.420   2.246   6.368  1.4347 -0.2010 -0.6089
 8615TIP3   OH247335   1.155   3.007   5.684 -0.4140  0.6569  0.3540
 8615TIP3    H147336   1.157   2.913   5.705  0.0031  0.8599  1.2709
 8615TIP3    H247337   1.204   3.014   5.602  0.2004  0.1518  0.6616
 8616TIP3   OH247338   4.053   3.764  15.997  0.6165 -0.0046  0.3708
 8616TIP3    H147339   4.029   3.854  15.973  1.6642  0.1582 -0.0835
 8616TIP3    H247340   4.022   3.711  15.923  2.9210  0.3801 -0.9525
 8617TIP3   OH247341   5.389   2.886  11.416 -0.4308 -0.2213 -0.2072
 8617TIP3    H147342   5.459   2.942  11.448 -0.4771 -0.5277  0.4491
 8617TIP3    H247343   5.430   2.800  11.403 -0.1416  0.1585 -2.0934
 8618TIP3   OH247344   4.014   0.887  12.699  0.2408  0.1879  0.0476
 8618TIP3    H147345   4.035   0.824  12.767  0.6865  0.2753 -0.0105
 8618TIP3    H247346   4.006   0.971  12.746  1.5320  0.4346 -0.1319
 8619TIP3   OH247347   6.366   3.105   5.763  0.4545  0.2504  0.0185
 8619TIP3    H147348   6.333   3.070   5.681  0.6784  0.6792 -0.2600
 8619TIP3    H247349   6.429   3.040   5.793  1.6331  0.8669 -1.0162
 8620TIP3   OH247350   5.088   4.036  11.603  0.3846 -0.1788  0.4996
 8620TIP3    H147351   5.097   4.037  11.507 -0.5441  1.8170  0.3777
 8620TIP3    H247352   5.177   4.051  11.635  0.3783  1.3933 -0.1384
 8621TIP3   OH247353   4.120   4.762  14.126 -0.1569 -0.7984 -0.6461
 8621TIP3    H147354   4.135   4.850  14.161 -0.6205 -1.0609  0.2538
 8621TIP3    H247355   4.111   4.774  14.031  0.0082  0.0888 -0.5520
 8622TIP3   OH247356   6.720   5.689   2.719  0.5273 -0.0898 -0.1746
 8622TIP3    H147357   6.702   5.608   2.672  2.0509 -0.7634  0.3342
 8622TIP3    H247358   6.638   5.710   2.763  0.1534 -1.4716 -0.1644
 8623TIP3   OH247359   2.128   1.256   6.617 -0.3564 -0.3586 -0.2277
 8623TIP3    H147360   2.177   1.216   6.690  0.2539 -0.9323 -0.9385
 8623TIP3    H247361   2.196   1.288   6.558 -0.8528 -0.0130 -0.6111
 8624TIP3   OH247362   0.690   2.588  14.458  0.4245 -0.0107 -0.5558
 8624TIP3    H147363   0.777   2.573  14.494  0.0265 -1.7525 -0.2476
 8624TIP3    H247364   0.633   2.527  14.505 -0.7499  0.2529 -1.5842
 8625TIP3   OH247365   6.206   3.636  11.590  0.0767 -0.0305 -0.1331
 8625TIP3    H147366   6.281   3.586  11.559  0.9013  0.1300  1.5200
 8625TIP3    H247367   6.196   3.611  11.681 -1.6699  0.2375 -0.2089
 8626TIP3   OH247368   5.594   3.658   1.774 -0.7502 -0.3994 -0.3837
 8626TIP3    H147369   5.619   3.566   1.767  0.8806  0.1001 -2.0250
 8626TIP3    H247370   5.632   3.699   1.696 -1.2417  1.7133  0.4144
 8627TIP3   OH247371   1.322   6.150   5.159  0.0836  0.6347  0.0412
 8627TIP3    H147372   1.413   6.130   5.180  0.1900 -0.6598 -1.4806
 8627TIP3    H247373   1.322   6.169   5.066 -1.3470 -0.4734 -0.2252
 8628TIP3   OH247374   2.901   0.978   4.825  0.4739 -0.5045  0.6670
 8628TIP3    H147375   2.827   0.960   4.767 -0.9265 -0.0649  2.2304
 8628TIP3    H247376   2.886   0.921   4.900  1.6006 -0.2268  1.1140
 8629TIP3   OH247377   1.011   1.879  15.332 -0.1602  0.0294  0.0220
 8629TIP3    H147378   1.067   1.835  15.397 -1.1688 -0.9923  0.2293
 8629TIP3    H247379   1.039   1.843  15.248 -0.2233 -0.1709  0.0857
 8630TIP3   OH247380   4.364   4.037  10.770 -0.3949 -0.1384  0.0353
 8630TIP3    H147381   4.443   3.991  10.741  0.3641  0.0943  1.5995
 8630TIP3    H247382   4.292   3.988  10.731  0.5154  0.2111 -2.2291
 8631TIP3   OH247383   4.130   3.492  15.348 -0.1815 -0.1730  0.2511
 8631TIP3    H147384   4.189   3.506  15.273 -0.7659 -2.8828 -0.8107
 8631TIP3    H247385   4.188   3.472  15.421  0.2956 -0.1486 -0.1157
 8632TIP3   OH247386   2.795   4.369   2.322  0.1816  0.1899  0.4203
 8632TIP3    H147387   2.704   4.386   2.298  0.2189  1.9428  1.3553
 8632TIP3    H247388   2.793   4.282   2.363 -1.0437  0.1445  0.3083
 8633TIP3   OH247389   4.491   0.206   2.507  0.5826 -0.2663  0.4588
 8633TIP3    H147390   4.556   0.195   2.577  0.1928  1.7877  1.2237
 8633TIP3    H247391   4.510   0.292   2.470 -2.2660  0.9186  1.4130
 8634TIP3   OH247392   6.345   5.404  16.188  0.1929 -0.2484 -0.0935
 8634TIP3    H147393   6.266   5.372  16.144 -0.5370 -0.2902  1.1981
 8634TIP3    H247394   6.402   5.434  16.117 -0.4736 -1.3431 -1.1277
 8635TIP3   OH247395   5.416   2.132   4.442  0.1375  0.4889 -0.4925
 8635TIP3    H147396   5.371   2.193   4.502  2.0990 -0.4684  2.1585
 8635TIP3    H247397   5.370   2.049   4.453  2.4107 -0.5585  2.4160
 8636TIP3   OH247398   6.785   3.708  15.274  0.0646  0.0310 -0.3145
 8636TIP3    H147399   6.874   3.684  15.297 -0.0524  0.7339  0.9926
 8636TIP3    H247400   6.776   3.798  15.306 -1.0152  0.0630 -0.6729
 8637TIP3   OH247401   0.589   5.149  14.054  0.2363  0.4246 -0.2421
 8637TIP3    H147402   0.540   5.134  13.973 -1.8757  1.7506  0.6925
 8637TIP3    H247403   0.668   5.195  14.026  2.2854 -3.6252 -2.0502
 8638TIP3   OH247404   0.277   0.696   0.338  0.0949 -0.0397  0.1952
 8638TIP3    H147405   0.372   0.705   0.331  0.0741 -0.1777 -0.2813
 8638TIP3    H247406   0.248   0.679   0.248 -0.3712 -0.0678  0.3514
 8639TIP3   OH247407   3.015   0.742  13.632  0.2278  0.9494  0.5282
 8639TIP3    H147408   2.968   0.764  13.713  0.0166  0.1246  0.6455
 8639TIP3    H247409   2.945   0.727  13.568 -0.0049 -3.5024  1.4941
 8640TIP3   OH247410   5.264   3.701  15.765  0.3556 -0.0310 -0.4085
 8640TIP3    H147411   5.302   3.701  15.852 -0.3470 -2.4055 -0.0399
 8640TIP3    H247412   5.339   3.711  15.706  1.1503 -0.9408  0.4053
 8641TIP3   OH247413   6.594   2.896   0.016  0.0337  0.0210 -0.9214
 8641TIP3    H147414   6.629   2.964   0.074 -0.8884 -0.4031  0.1673
 8641TIP3    H247415   6.534   2.943  -0.041 -1.5957 -0.0148  0.6737
 8642TIP3   OH247416   1.342   0.215  12.085 -0.1456 -0.4172 -0.4689
 8642TIP3    H147417   1.366   0.155  12.015 -1.3411  0.1786 -1.4121
 8642TIP3    H247418   1.250   0.197  12.102 -0.3993  0.8095 -0.4416
 8643TIP3   OH247419   5.298   0.037  15.056  0.1860  0.4120 -0.3549
 8643TIP3    H147420   5.227  -0.014  15.096  1.9355 -2.4453 -0.5802
 8643TIP3    H247421   5.271   0.047  14.965 -0.5194  0.5010 -0.1416
 8644TIP3   OH247422   3.255   4.520  12.258  0.1003 -0.3270  0.1541
 8644TIP3    H147423   3.341   4.481  12.246  0.4407  0.6497 -0.7921
 8644TIP3    H247424   3.262   4.570  12.339 -0.2875 -2.0197  1.2814
 8645TIP3   OH247425   4.554   1.953   5.055 -0.5034 -0.2770 -0.7428
 8645TIP3    H147426   4.524   1.900   4.981 -1.8967 -0.9815  0.2815
 8645TIP3    H247427   4.582   1.889   5.121 -0.9872  0.2740  0.0201
 8646TIP3   OH247428   5.622   4.055  12.374 -0.2813 -0.3925  0.1323
 8646TIP3    H147429   5.588   4.010  12.297  0.1093 -2.0224  0.8555
 8646TIP3    H247430   5.551   4.112  12.402 -0.0394  1.0749 -2.0288
 8647TIP3   OH247431   3.042   2.267   4.553  0.0598 -0.5497  0.0132
 8647TIP3    H147432   2.997   2.267   4.637 -1.2950  0.7925 -0.6757
 8647TIP3    H247433   3.069   2.358   4.539  0.5765 -0.8155 -0.8385
 8648TIP3   OH247434   2.498   3.545  15.491 -0.1769  0.1844 -0.3119
 8648TIP3    H147435   2.518   3.639  15.490  1.7091 -0.1456  0.5198
 8648TIP3    H247436   2.440   3.533  15.566  0.2203  0.6010  0.0728
 8649TIP3   OH247437   1.315   5.239  15.253 -0.3595  0.0705  0.2584
 8649TIP3    H147438   1.322   5.304  15.322  0.8303  0.0546  0.1637
 8649TIP3    H247439   1.332   5.287  15.172 -1.6425  0.0686 -0.0342
 8650TIP3   OH247440   3.397   5.718   4.613  0.3737 -0.3731  0.6584
 8650TIP3    H147441   3.466   5.756   4.558  0.2987 -0.7831  0.2698
 8650TIP3    H247442   3.415   5.624   4.612 -0.6642 -0.5814 -0.1376
 8651TIP3   OH247443   6.555   1.686  14.877 -0.1814  0.1086 -0.4266
 8651TIP3    H147444   6.580   1.624  14.946  0.3089 -0.1109 -0.7944
 8651TIP3    H247445   6.554   1.633  14.797 -1.2629  0.2432 -0.5152
 8652TIP3   OH247446   4.046   6.786   2.062  0.3775  0.1454  0.0478
 8652TIP3    H147447   3.955   6.783   2.034  0.8373 -1.8369 -1.4828
 8652TIP3    H247448   4.043   6.816   2.152 -1.7019  0.9521 -0.2392
 8653TIP3   OH247449   0.021   4.529  15.351  0.2835  0.2163  0.8251
 8653TIP3    H147450   0.098   4.538  15.407  2.1236  1.9810 -1.7616
 8653TIP3    H247451  -0.035   4.603  15.376  1.3958  1.3813  0.0108
 8654TIP3   OH247452   5.970   4.654   0.202  0.2494 -0.3126 -0.5564
 8654TIP3    H147453   5.959   4.588   0.272  3.2016  0.1134  0.5023
 8654TIP3    H247454   5.895   4.712   0.211 -1.1936 -2.1582  0.0399
 8655TIP3   OH247455   2.133   0.856   2.975 -0.1475 -0.4843  0.2076
 8655TIP3    H147456   2.118   0.762   2.983 -1.1035 -0.3418  0.2233
 8655TIP3    H247457   2.058   0.896   3.021  0.5389  0.2771  0.6948
 8656TIP3   OH247458   4.926   6.786   1.631 -0.5104 -0.3854  0.3890
 8656TIP3    H147459   4.966   6.869   1.659  0.2644 -0.7160  0.2711
 8656TIP3    H247460   4.832   6.803   1.636 -0.3665  0.3670  0.7838
 8657TIP3   OH247461   5.749   0.313  16.095 -0.1520  0.1634 -0.5040
 8657TIP3    H147462   5.794   0.230  16.076 -2.0175 -1.1213  0.4338
 8657TIP3    H247463   5.775   0.334  16.185  0.8772  1.0284 -0.9733
 8658TIP3   OH247464   5.607   2.122  11.772 -0.2661  0.4270  0.0435
 8658TIP3    H147465   5.548   2.142  11.700  0.5545  0.7919 -0.5398
 8658TIP3    H247466   5.652   2.204  11.791  0.1944  0.1139  0.3552
 8659TIP3   OH247467   5.182   2.839   2.736  0.5143  0.5230  0.8251
 8659TIP3    H147468   5.213   2.908   2.794  0.5931  0.4056  0.9217
 8659TIP3    H247469   5.088   2.834   2.753  0.5443  0.4584  0.9748
 8660TIP3   OH247470   0.797   2.379  10.641 -0.4395 -0.2881 -0.0213
 8660TIP3    H147471   0.781   2.298  10.690 -0.1412  1.0893  2.5261
 8660TIP3    H247472   0.717   2.393  10.591 -0.6052 -1.9869 -0.3139
 8661TIP3   OH247473   0.945   4.411  14.012 -0.3788  0.6187 -0.5826
 8661TIP3    H147474   0.984   4.493  14.042  0.0744 -0.0303  0.6375
 8661TIP3    H247475   1.019   4.352  14.000 -0.7735  0.1331 -0.6417
 8662TIP3   OH247476   2.970   0.855  12.621 -0.4973 -0.1719  0.2852
 8662TIP3    H147477   2.948   0.800  12.696 -1.5075 -1.1818 -0.7144
 8662TIP3    H247478   2.909   0.929  12.626  1.1653  1.1712  1.8893
 8663TIP3   OH247479   2.665   0.828  16.495 -0.1301 -0.8751  0.4741
 8663TIP3    H147480   2.752   0.852  16.464 -0.0100 -0.6170  0.9878
 8663TIP3    H247481   2.617   0.910  16.500 -0.7811 -1.1430 -0.8867
 8664TIP3   OH247482   3.846   6.158  13.050 -0.2320  0.1098 -0.4048
 8664TIP3    H147483   3.917   6.096  13.068  1.6143  1.9269 -1.0213
 8664TIP3    H247484   3.827   6.197  13.136  1.2684  1.3268 -0.5774
 8665TIP3   OH247485   0.695   4.603  14.286  1.0730  0.5394  0.3371
 8665TIP3    H147486   0.764   4.543  14.314  1.4285  0.6345 -0.3139
 8665TIP3    H247487   0.734   4.653  14.214  0.9036  1.7968  1.0880
 8666TIP3   OH247488   5.749   1.663  11.306 -0.4310 -0.0670 -0.0601
 8666TIP3    H147489   5.683   1.629  11.367  1.1357 -1.0744  1.1589
 8666TIP3    H247490   5.770   1.750  11.339  0.2487 -0.5214  0.7504
 8667TIP3   OH247491   0.477   0.614   5.900  0.0633  0.1462  0.3256
 8667TIP3    H147492   0.438   0.527   5.900 -1.1400  0.5425 -3.1056
 8667TIP3    H247493   0.404   0.674   5.914  0.0705  0.7285 -1.8497
 8668TIP3   OH247494   5.712   6.003   0.290  0.5791  0.2037  0.4328
 8668TIP3    H147495   5.784   6.067   0.289  0.6842  0.0947  0.7715
 8668TIP3    H247496   5.652   6.036   0.357 -0.5271  1.2008 -0.9975
 8669TIP3   OH247497   0.540   3.744   2.829 -0.1500 -0.0352 -0.4848
 8669TIP3    H147498   0.567   3.658   2.863  0.4960  0.1647 -0.4870
 8669TIP3    H247499   0.454   3.759   2.868 -0.8764 -1.2853 -1.5384
 8670TIP3   OH247500   2.998   0.505   0.027  0.0620  0.2848 -0.3881
 8670TIP3    H147501   2.929   0.557   0.068  0.5178 -0.3747  1.2610
 8670TIP3    H247502   2.986   0.417   0.062  1.3572  0.0228 -0.5672
 8671TIP3   OH247503   0.090   3.137   2.994 -0.1551 -0.1938 -0.0713
 8671TIP3    H147504   0.080   3.085   2.915 -0.9007  0.8456 -0.6952
 8671TIP3    H247505   0.024   3.102   3.054  0.2897 -0.8636  0.0427
 8672TIP3   OH247506   1.404   5.968  15.171 -0.2917  0.0646 -0.4778
 8672TIP3    H147507   1.385   5.880  15.205  1.2839 -0.1219 -0.0264
 8672TIP3    H247508   1.441   6.015  15.246 -0.0929  0.7765 -1.0093
 8673TIP3   OH247509   5.113   6.114  16.930 -0.3333 -0.1050  0.7246
 8673TIP3    H147510   5.156   6.036  16.894 -0.9240 -1.0771  2.0623
 8673TIP3    H247511   5.171   6.144  16.999 -0.4351  0.2552  0.6562
 8674TIP3   OH247512   3.432   3.898  10.846 -0.1434  0.2313  0.1144
 8674TIP3    H147513   3.356   3.913  10.902  0.6169 -0.1375  1.2746
 8674TIP3    H247514   3.424   3.964  10.777 -0.1606  1.9082  1.6428
 8675TIP3   OH247515   4.004   4.904   0.420  0.6949  0.2800  0.2417
 8675TIP3    H147516   4.020   4.877   0.329 -0.1936  0.8586 -0.0981
 8675TIP3    H247517   3.924   4.857   0.445 -0.1576  1.5882  0.0621
 8676TIP3   OH247518   1.957   1.310   5.539  0.6768 -0.1249 -0.4528
 8676TIP3    H147519   2.016   1.377   5.504  1.1888  0.4408  1.3374
 8676TIP3    H247520   2.015   1.238   5.563  0.2232 -0.8987 -1.6232
 8677TIP3   OH247521   2.006   3.566   1.980  0.0771  0.2076  0.3235
 8677TIP3    H147522   1.996   3.477   2.013 -1.9651  0.0871 -0.4316
 8677TIP3    H247523   2.031   3.556   1.889 -0.4889  0.3735  0.1423
 8678TIP3   OH247524   0.799   5.089   0.785 -0.2450 -0.4161 -0.2687
 8678TIP3    H147525   0.797   5.028   0.858  1.9472  0.4096  0.5710
 8678TIP3    H247526   0.851   5.045   0.718 -0.7115 -0.4371 -0.6201
 8679TIP3   OH247527   5.192   5.671   3.166  0.0914  0.2178  0.5264
 8679TIP3    H147528   5.135   5.612   3.115  0.8738 -1.2568  1.2941
 8679TIP3    H247529   5.154   5.671   3.254  0.2384  0.6855  0.5914
 8680TIP3   OH247530   3.632   6.139  12.653 -0.3558  0.6829 -0.1915
 8680TIP3    H147531   3.612   6.098  12.569 -1.3300  0.8199 -0.0420
 8680TIP3    H247532   3.643   6.065  12.713  1.6149  0.5382 -0.6794
 8681TIP3   OH247533   5.571   4.889  14.327 -0.2183 -0.2328  0.1493
 8681TIP3    H147534   5.521   4.968  14.347 -1.1726 -0.4984 -1.0757
 8681TIP3    H247535   5.589   4.850  14.413  1.4546  1.9556  0.9147
 8682TIP3   OH247536   4.014   5.376   5.270 -1.0544  0.0248  0.4126
 8682TIP3    H147537   3.933   5.333   5.296 -0.1407 -0.3810  2.8181
 8682TIP3    H247538   4.073   5.303   5.249 -1.0639  0.3030 -0.6611
 8683TIP3   OH247539   5.356   1.902   0.899  0.1248 -0.4159  0.1096
 8683TIP3    H147540   5.304   1.981   0.895  1.4850  0.4845 -0.7428
 8683TIP3    H247541   5.446   1.931   0.884  0.6849 -2.0988 -0.0897
 8684TIP3   OH247542   0.781   2.910   2.925  0.1216  0.3439 -0.2225
 8684TIP3    H147543   0.804   2.966   2.998  1.2073 -0.5903  0.1859
 8684TIP3    H247544   0.686   2.919   2.916  0.0177  0.6949  1.1068
 8685TIP3   OH247545   4.250   0.468   6.667  0.4530 -0.5647  0.7704
 8685TIP3    H147546   4.182   0.527   6.701  0.4990 -0.9260  1.4993
 8685TIP3    H247547   4.225   0.454   6.575  0.6723  0.9090  0.4607
 8686TIP3   OH247548   5.670   4.773   4.544  0.0754  0.4964  0.2040
 8686TIP3    H147549   5.580   4.739   4.540  0.3838 -0.2748 -0.3851
 8686TIP3    H247550   5.673   4.822   4.626 -1.3981  1.9884 -0.5620
 8687TIP3   OH247551   2.199   0.948   0.871 -0.3292 -0.2318 -0.1080
 8687TIP3    H147552   2.180   1.018   0.808 -0.5620 -0.5468 -0.3867
 8687TIP3    H247553   2.283   0.913   0.843 -1.2598 -1.5712 -1.3341
 8688TIP3   OH247554   2.671   4.417   0.841  0.5750  0.4962  0.7115
 8688TIP3    H147555   2.610   4.427   0.767 -0.2309 -1.0183  1.1344
 8688TIP3    H247556   2.652   4.330   0.876  0.1080  1.6141  3.4570
 8689TIP3   OH247557   0.062   5.170  14.241 -0.1596 -0.7623  0.4354
 8689TIP3    H147558   0.153   5.147  14.259 -0.4845 -0.6144  2.4094
 8689TIP3    H247559   0.029   5.206  14.323 -0.9451  2.7362 -1.2179
 8690TIP3   OH247560   4.050   3.968   4.804 -0.0672  0.5644  0.1568
 8690TIP3    H147561   4.011   4.032   4.864 -0.8142  0.7088 -0.4615
 8690TIP3    H247562   4.024   3.998   4.717  0.3344 -0.0863 -0.1967
 8691TIP3   OH247563   6.629   3.352   5.755  0.0786  0.2222 -0.5867
 8691TIP3    H147564   6.579   3.284   5.799 -0.9159 -0.1750 -2.2673
 8691TIP3    H247565   6.704   3.305   5.717 -0.7922 -0.0430 -2.0443
 8692TIP3   OH247566   2.426   3.118   1.077 -0.5260 -0.0430  0.2642
 8692TIP3    H147567   2.494   3.130   1.143 -1.1251 -1.5989  1.2257
 8692TIP3    H247568   2.475   3.103   0.995  0.3655 -1.9996  1.0867
 8693TIP3   OH247569   0.061   1.794  16.039  0.0194 -0.3711 -0.0459
 8693TIP3    H147570   0.143   1.765  16.078  0.0186 -0.1018  0.1562
 8693TIP3    H247571   0.054   1.743  15.958  0.5707 -0.1287 -0.2543
 8694TIP3   OH247572   3.007   1.080   0.841 -0.7010 -0.3383 -0.2633
 8694TIP3    H147573   3.036   1.143   0.775 -0.1357 -1.3551 -1.0290
 8694TIP3    H247574   2.919   1.110   0.865 -0.4162  0.7751 -0.5423
 8695TIP3   OH247575   4.693   1.091   1.028  0.4432 -0.3607  0.0669
 8695TIP3    H147576   4.688   1.064   1.119 -2.2179 -0.0039  0.0991
 8695TIP3    H247577   4.783   1.121   1.017  0.8272 -0.3825  2.5781
 8696TIP3   OH247578   6.356   2.536  15.064  0.2370  0.2083  0.0590
 8696TIP3    H147579   6.398   2.480  14.998  0.5573  0.9643 -0.3899
 8696TIP3    H247580   6.308   2.601  15.013  0.4119  0.7408  0.5660
 8697TIP3   OH247581   3.536   3.810  13.459 -0.2152  0.3050 -0.2303
 8697TIP3    H147582   3.475   3.742  13.487 -1.3870  0.1015 -2.9336
 8697TIP3    H247583   3.492   3.852  13.385  2.2808  1.1735 -1.3155
 8698TIP3   OH247584   1.466   5.289   3.782 -0.1678 -0.3673 -0.0651
 8698TIP3    H147585   1.496   5.200   3.767  0.6391 -0.3737  1.4254
 8698TIP3    H247586   1.520   5.322   3.853 -0.0888  1.5152 -0.9211
 8699TIP3   OH247587   0.923   1.807  16.339  0.5905  0.8803  0.6863
 8699TIP3    H147588   1.013   1.789  16.312 -0.2823 -0.9067 -1.3415
 8699TIP3    H247589   0.916   1.902  16.337  1.5250  1.0033 -2.6275
 8700TIP3   OH247590   2.803   4.170  11.696  0.6235 -0.0976 -0.2227
 8700TIP3    H147591   2.761   4.131  11.620  1.1570  1.6439 -1.4666
 8700TIP3    H247592   2.789   4.107  11.767 -1.2180 -1.0579 -1.3816
 8701TIP3   OH247593   1.756   3.891   2.921  0.6107  0.1000 -0.3151
 8701TIP3    H147594   1.779   3.971   2.967  0.6990 -0.3897  0.5026
 8701TIP3    H247595   1.736   3.920   2.831  0.6214  1.0301 -0.0259
 8702TIP3   OH247596   4.563   5.495  13.026 -0.1810 -0.3081  0.2421
 8702TIP3    H147597   4.518   5.412  13.006  0.3958  0.0271 -3.0876
 8702TIP3    H247598   4.493   5.553  13.055 -0.5780 -1.8970  2.8265
 8703TIP3   OH247599   2.458   3.961  16.116 -0.1427 -0.0117  0.3203
 8703TIP3    H147600   2.495   4.031  16.061  0.5738  1.0568  2.0748
 8703TIP3    H247601   2.515   3.959  16.193 -0.4840 -2.1972  0.5754
 8704TIP3   OH247602   2.938   6.415   0.455 -0.0574  0.0232  0.5987
 8704TIP3    H147603   2.873   6.483   0.441 -1.1867 -0.4835  2.9292
 8704TIP3    H247604   2.968   6.427   0.545  1.9478 -0.7280  0.0907
 8705TIP3   OH247605   6.765   5.878  16.319 -0.4687 -0.5778  0.4322
 8705TIP3    H147606   6.748   5.958  16.369 -3.7083 -0.2533 -1.0150
 8705TIP3    H247607   6.695   5.873  16.255  0.8133 -3.5245 -0.9422
 8706TIP3   OH247608   1.325   2.500   1.023  0.5979  0.7491  0.2641
 8706TIP3    H147609   1.282   2.541   1.098 -3.0396 -1.4697 -0.3648
 8706TIP3    H247610   1.354   2.415   1.057  0.0196  0.2320 -0.5180
 8707TIP3   OH247611   2.618   4.782  16.475 -0.2507 -0.2595  0.6953
 8707TIP3    H147612   2.592   4.775  16.567 -0.5458  1.3352  0.7696
 8707TIP3    H247613   2.584   4.867  16.448  1.3694  0.0732 -0.3939
 8708TIP3   OH247614   5.883   3.975   1.207  0.0247 -0.0045  0.2122
 8708TIP3    H147615   5.957   4.026   1.240 -0.7846  1.6575 -0.4131
 8708TIP3    H247616   5.807   4.010   1.255 -0.3684 -1.8490  1.0364
 8709TIP3   OH247617   2.502   2.916  10.599 -0.0473  0.4286 -0.2142
 8709TIP3    H147618   2.564   2.938  10.668 -1.7631  0.9146  1.2089
 8709TIP3    H247619   2.443   2.991  10.593 -1.5871 -0.7424 -0.2944
 8710TIP3   OH247620   4.791   6.685   4.570  0.4168 -0.1067  0.0859
 8710TIP3    H147621   4.801   6.631   4.649  1.0219 -1.1664 -0.7050
 8710TIP3    H247622   4.859   6.752   4.579  0.4721 -0.2071  0.4667
 8711TIP3   OH247623   4.899   2.176  13.171  0.1521  0.5125  0.3371
 8711TIP3    H147624   4.916   2.225  13.091  0.8669  0.3145  0.3637
 8711TIP3    H247625   4.805   2.156  13.167 -0.3039  2.3900  0.6168
 8712TIP3   OH247626   3.623   0.854  15.160  0.7653 -0.3903  0.3752
 8712TIP3    H147627   3.717   0.858  15.143  0.6827 -0.0482 -0.0148
 8712TIP3    H247628   3.588   0.803  15.086  0.6390 -0.4795  0.4971
 8713TIP3   OH247629   3.808   3.196   0.876 -0.3749 -0.2202  0.1783
 8713TIP3    H147630   3.806   3.291   0.887 -0.7961  0.2113 -2.8094
 8713TIP3    H247631   3.718   3.168   0.895 -0.3237 -0.0111  0.7581
 8714TIP3   OH247632   4.606   3.041  13.249 -0.5179  0.0971 -0.9514
 8714TIP3    H147633   4.524   2.992  13.260 -1.6414  2.4847  3.3017
 8714TIP3    H247634   4.668   2.997  13.307 -0.2233  1.1285 -0.4715
 8715TIP3   OH247635   1.187   1.507   1.574  0.7404  0.8785 -0.1161
 8715TIP3    H147636   1.152   1.433   1.524  1.3475 -0.2028  0.9927
 8715TIP3    H247637   1.278   1.482   1.593 -0.1203 -0.0424  3.7286
 8716TIP3   OH247638   5.900   2.301   3.542 -0.1669  0.2428  0.6452
 8716TIP3    H147639   5.961   2.258   3.602  1.4207 -0.6686 -1.4875
 8716TIP3    H247640   5.956   2.342   3.476 -1.8190  0.8624 -0.4382
 8717TIP3   OH247641   2.978   0.552   5.442 -0.2894 -0.0040  0.2534
 8717TIP3    H147642   2.934   0.628   5.402 -1.0101 -0.2311  0.6105
 8717TIP3    H247643   2.969   0.566   5.536 -1.3257 -1.0497  0.3203
 8718TIP3   OH247644   1.673   6.613  10.791 -0.1671 -0.0034  0.1053
 8718TIP3    H147645   1.761   6.631  10.825 -0.4932 -1.0498  1.6005
 8718TIP3    H247646   1.686   6.602  10.697  0.8596  2.5133 -0.1517
 8719TIP3   OH247647   2.750   2.135  12.486  0.2482  0.4908  0.4337
 8719TIP3    H147648   2.712   2.048  12.495 -0.4966  0.6301 -1.0887
 8719TIP3    H247649   2.844   2.119  12.475 -0.1732 -0.3768 -2.7089
 8720TIP3   OH247650   3.873   4.398   1.928  0.3603  0.2840 -0.0117
 8720TIP3    H147651   3.877   4.468   1.993 -0.8905  1.5052 -1.2015
 8720TIP3    H247652   3.923   4.431   1.854 -1.9206  0.8536 -1.3792
 8721TIP3   OH247653   1.915   2.810  11.293 -0.5838  0.3648  0.0965
 8721TIP3    H147654   1.906   2.735  11.235 -0.4894  0.4784 -0.0675
 8721TIP3    H247655   1.996   2.853  11.265 -0.1302 -0.0055  0.8074
 8722TIP3   OH247656   6.681   1.400  11.771 -0.3434  0.4783 -0.1247
 8722TIP3    H147657   6.596   1.439  11.791 -0.9334  0.3308 -2.1293
 8722TIP3    H247658   6.681   1.316  11.816 -1.5382  0.1984 -0.6302
 8723TIP3   OH247659   2.543   3.538  12.365  0.1029 -0.6846  0.6012
 8723TIP3    H147660   2.449   3.554  12.364  0.0638 -0.9084  0.6894
 8723TIP3    H247661   2.576   3.594  12.435  0.2040  0.3020 -0.2086
 8724TIP3   OH247662   4.367   6.237  14.702 -0.1068  0.1035  0.1296
 8724TIP3    H147663   4.291   6.286  14.670 -0.5370 -0.0893  0.8340
 8724TIP3    H247664   4.387   6.176  14.632 -1.3928 -0.7091  0.4445
 8725TIP3   OH247665   2.133   6.107  13.909  0.3849  0.0996 -0.1972
 8725TIP3    H147666   2.158   6.193  13.876  3.5174 -0.7998 -0.4672
 8725TIP3    H247667   2.193   6.091  13.982 -1.0500 -1.3046  0.7275
 8726TIP3   OH247668   1.272   4.379  12.820  0.0691  0.2144 -0.4742
 8726TIP3    H147669   1.327   4.447  12.781 -0.9307  2.1081  1.2507
 8726TIP3    H247670   1.289   4.385  12.914 -3.4086  1.2918  0.2127
 8727TIP3   OH247671   4.437   1.541   2.926 -0.3539  1.0316  0.0451
 8727TIP3    H147672   4.359   1.487   2.939  1.3826 -1.7132 -0.2311
 8727TIP3    H247673   4.482   1.500   2.852  1.3550  2.5514  0.1806
 8728TIP3   OH247674   1.118   5.827   1.749 -0.0410 -0.2793 -0.2303
 8728TIP3    H147675   1.084   5.887   1.682 -1.5617 -0.7295  0.1064
 8728TIP3    H247676   1.210   5.817   1.727  0.0038  1.3189 -0.9459
 8729TIP3   OH247677   1.573   1.430  16.864 -0.0209 -0.3682  0.5784
 8729TIP3    H147678   1.593   1.492  16.935 -1.1866  0.2297  0.4018
 8729TIP3    H247679   1.495   1.383  16.894 -0.4985 -0.1376 -0.2849
 8730TIP3   OH247680   5.721   0.645  11.293 -0.6681  0.3150 -0.5678
 8730TIP3    H147681   5.763   0.629  11.377 -3.5377  0.9407  1.1381
 8730TIP3    H247682   5.716   0.559  11.252  1.6069  0.1403 -0.5994
 8731TIP3   OH247683   5.667   4.309   5.808  0.3416  0.3162  0.4387
 8731TIP3    H147684   5.648   4.243   5.874  0.9319 -0.5969 -0.2692
 8731TIP3    H247685   5.761   4.299   5.791  0.4113  1.2647  0.2351
 8732TIP3   OH247686   1.127   0.666  16.878  0.3721 -0.1719  0.0999
 8732TIP3    H147687   1.140   0.739  16.938 -0.3031  1.0797 -1.2230
 8732TIP3    H247688   1.206   0.665  16.824  1.2201 -1.6276  1.2628
 8733TIP3   OH247689   3.829   6.493  16.948  0.2884  0.6983  0.2285
 8733TIP3    H147690   3.923   6.482  16.962  0.0455 -2.0824  0.2324
 8733TIP3    H247691   3.820   6.505  16.854  0.6010  0.3342  0.1524
 8734TIP3   OH247692   4.080   3.649   1.683 -0.2658 -0.6868 -0.1536
 8734TIP3    H147693   4.073   3.566   1.730 -3.2882  0.5545  1.9645
 8734TIP3    H247694   3.996   3.658   1.638 -0.7001  1.8336  0.9877
 8735TIP3   OH247695   0.778   5.594  16.034 -0.1681 -0.1695  0.5231
 8735TIP3    H147696   0.764   5.679  15.991  1.0070  0.0196  0.4980
 8735TIP3    H247697   0.733   5.602  16.118  0.4480  0.7136  0.7834
 8736TIP3   OH247698   2.094   0.494   3.304 -0.3987  0.0869  0.3673
 8736TIP3    H147699   2.136   0.576   3.329  1.3581 -0.9803  1.0750
 8736TIP3    H247700   2.146   0.426   3.347 -2.5027 -1.3615  0.7971
 8737TIP3   OH247701   0.723   1.120  14.793  0.3331 -0.3367 -0.1713
 8737TIP3    H147702   0.629   1.135  14.783  0.4886  1.2915  0.4830
 8737TIP3    H247703   0.747   1.063  14.720 -1.1353 -0.6943 -0.3960
 8738TIP3   OH247704   6.511   3.864   0.106  0.1143 -0.2847  0.0180
 8738TIP3    H147705   6.522   3.769   0.114 -0.9220 -0.3464  0.9987
 8738TIP3    H247706   6.416   3.877   0.108  0.1675  0.6574 -1.7682
 8739TIP3   OH247707   5.049   4.801   3.799 -0.0699 -0.1022  0.3015
 8739TIP3    H147708   5.024   4.753   3.720 -0.9107  0.3064  0.3057
 8739TIP3    H247709   4.985   4.774   3.865 -0.4604  0.8965  0.3459
 8740TIP3   OH247710   2.512   4.492   2.507  0.0017 -0.4689 -0.2069
 8740TIP3    H147711   2.537   4.578   2.473  0.5420  0.1175  1.5628
 8740TIP3    H247712   2.568   4.479   2.584  0.4256 -2.7265 -0.8227
 8741TIP3   OH247713   1.638   1.771   2.046  0.0232 -0.3496  0.3205
 8741TIP3    H147714   1.711   1.760   2.107  0.8429 -2.6409 -0.9672
 8741TIP3    H247715   1.565   1.724   2.087 -0.1350  0.1550  0.6273
 8742TIP3   OH247716   5.368   0.258   2.833 -0.3558  0.5728 -0.8451
 8742TIP3    H147717   5.370   0.318   2.758 -0.7728 -0.1104 -1.4095
 8742TIP3    H247718   5.416   0.181   2.804  0.7336  0.8708  0.1056
 8743TIP3   OH247719   3.881   5.726  11.366 -0.1820  0.1134  0.1147
 8743TIP3    H147720   3.953   5.696  11.421  0.4220  0.9373 -0.2096
 8743TIP3    H247721   3.820   5.768  11.426  0.8318  1.6863  0.0882
 8744TIP3   OH247722   6.506   3.330   4.396  0.0432  1.1508  0.0995
 8744TIP3    H147723   6.574   3.337   4.328 -0.9841  2.4120 -0.8625
 8744TIP3    H247724   6.424   3.341   4.348 -0.8629 -0.1984  1.2596
 8745TIP3   OH247725   4.377   1.317  16.673  0.0010 -0.2560  0.1685
 8745TIP3    H147726   4.385   1.336  16.579 -0.2304 -0.7871  0.0348
 8745TIP3    H247727   4.294   1.358  16.698  0.1967  0.1252  0.2085
 8746TIP3   OH247728   3.141   5.443   4.023  0.0214 -0.1821  0.1966
 8746TIP3    H147729   3.067   5.410   4.073  0.9295 -1.1440  0.9559
 8746TIP3    H247730   3.175   5.516   4.074  0.2354 -0.4176  0.3929
 8747TIP3   OH247731   4.892   1.120   4.454  0.4755  0.1320 -0.5494
 8747TIP3    H147732   4.925   1.138   4.366 -0.8103  0.2924 -1.0107
 8747TIP3    H247733   4.928   1.034   4.476 -1.0998 -1.0222 -2.2235
 8748TIP3   OH247734   4.614   5.600  14.479 -0.3850 -1.0472  0.2421
 8748TIP3    H147735   4.664   5.655  14.539  0.5051  0.5534 -1.8363
 8748TIP3    H247736   4.530   5.645  14.468  0.1197 -0.3584 -1.0076
 8749TIP3   OH247737   3.562   1.371   3.445  0.1969 -0.1029 -0.0923
 8749TIP3    H147738   3.576   1.462   3.471 -2.0999  0.2170  0.1708
 8749TIP3    H247739   3.512   1.333   3.517 -1.2677 -0.7805 -1.4079
 8750TIP3   OH247740   2.966   6.546   4.385  0.0497 -0.2033  0.5888
 8750TIP3    H147741   2.951   6.460   4.346  0.1729 -1.1080  2.4202
 8750TIP3    H247742   2.926   6.540   4.472 -1.9380  2.3576 -0.0134
 8751TIP3   OH247743   0.509   1.707   3.374 -0.2652  0.9223 -0.4118
 8751TIP3    H147744   0.442   1.740   3.316 -1.7631 -1.9183 -0.4815
 8751TIP3    H247745   0.561   1.647   3.319 -0.0078  0.2888  0.4941
 8752TIP3   OH247746   0.418   3.694   4.254  0.4798  0.0455 -0.8158
 8752TIP3    H147747   0.480   3.724   4.186 -0.2767  2.5424 -0.4984
 8752TIP3    H247748   0.335   3.734   4.229 -0.6615 -1.9405 -0.3297
 8753TIP3   OH247749   6.267   1.501   0.124  0.2811 -0.3448  0.4098
 8753TIP3    H147750   6.348   1.457   0.150  0.0063 -0.9022  0.3407
 8753TIP3    H247751   6.199   1.459   0.176 -0.1655 -0.9131 -0.6110
 8754TIP3   OH247752   3.805   0.008   2.989  0.8838 -0.4899 -0.5123
 8754TIP3    H147753   3.852  -0.040   2.921 -0.0639 -0.7603 -0.9819
 8754TIP3    H247754   3.714   0.006   2.962  0.7062  0.8224 -0.0831
 8755TIP3   OH247755   3.646   2.666   0.822 -0.1687  0.5007  0.1613
 8755TIP3    H147756   3.638   2.589   0.879 -0.0523 -0.0009 -0.4853
 8755TIP3    H247757   3.729   2.653   0.775 -0.6324  0.5092 -0.6829
 8756TIP3   OH247758   2.689   5.687   0.554 -0.1685 -0.1638  0.3797
 8756TIP3    H147759   2.650   5.747   0.491 -1.7311  0.0594  1.5080
 8756TIP3    H247760   2.733   5.621   0.500  0.8440  1.4616 -0.8970
 8757TIP3   OH247761   3.523   0.918   2.980  0.6979  0.2724  0.4009
 8757TIP3    H147762   3.575   0.846   2.944 -0.6314 -0.0526 -0.9779
 8757TIP3    H247763   3.455   0.875   3.032  0.9013  0.6205  0.9632
 8758TIP3   OH247764   5.106   5.385  15.126  0.1479  0.0559 -0.4212
 8758TIP3    H147765   5.134   5.337  15.048 -2.4059  0.5076 -1.7264
 8758TIP3    H247766   5.053   5.322  15.175  2.1620 -0.3933  1.3181
 8759TIP3   OH247767   1.406   0.910  12.287  0.1415  0.0212 -0.4614
 8759TIP3    H147768   1.392   0.959  12.369 -1.6864  0.1734 -0.8112
 8759TIP3    H247769   1.364   0.964  12.220 -0.5422 -1.2734 -1.1039
 8760TIP3   OH247770   1.910   4.572  11.161 -0.4410 -0.1004  0.4708
 8760TIP3    H147771   1.951   4.487  11.147 -0.3169  0.0228  0.0780
 8760TIP3    H247772   1.816   4.555  11.150 -0.3205  0.0727 -0.9662
 8761TIP3   OH247773   4.468   5.754   5.532  0.3486  0.1806  0.0549
 8761TIP3    H147774   4.527   5.815   5.577 -0.5157 -0.9584  2.9630
 8761TIP3    H247775   4.465   5.786   5.442  4.3715  1.0406  0.0112
 8762TIP3   OH247776   4.156   3.719   3.777  0.3874 -0.1580 -0.4714
 8762TIP3    H147777   4.209   3.657   3.827  0.2916 -0.0057 -0.1772
 8762TIP3    H247778   4.114   3.774   3.844  0.3076  0.0869 -0.7210
 8763TIP3   OH247779   4.206   3.837   1.252 -0.0208  0.1849 -0.1042
 8763TIP3    H147780   4.200   3.804   1.163 -0.6741 -0.5534  0.1991
 8763TIP3    H247781   4.250   3.767   1.301 -1.8990 -0.5322  0.6554
 8764TIP3   OH247782   0.970   5.933  12.822  0.2897 -0.1420 -0.0456
 8764TIP3    H147783   1.049   5.941  12.767  0.4129 -0.9414  0.0073
 8764TIP3    H247784   0.898   5.956  12.763  0.6482  2.0469  0.2862
 8765TIP3   OH247785   2.792   4.254  16.273  0.2250 -0.6145 -0.4154
 8765TIP3    H147786   2.835   4.301  16.344 -1.3107  0.3346 -0.0550
 8765TIP3    H247787   2.858   4.192  16.241  0.8608 -1.3944  2.1207
 8766TIP3   OH247788   3.420   1.737   5.067 -0.3180  0.1350 -0.3650
 8766TIP3    H147789   3.380   1.764   5.149  0.4071 -0.0775  0.0623
 8766TIP3    H247790   3.512   1.723   5.088 -0.0123  0.6045 -1.3359
 8767TIP3   OH247791   4.328   4.845   1.136  0.1470 -0.2372 -0.4807
 8767TIP3    H147792   4.387   4.919   1.156 -0.8009 -0.0731  2.1853
 8767TIP3    H247793   4.375   4.768   1.169  0.8681 -0.8376 -2.7167
 8768TIP3   OH247794   6.478   0.410   1.455  0.6063  0.5643 -0.7986
 8768TIP3    H147795   6.560   0.364   1.472  0.4088  0.9129  1.3406
 8768TIP3    H247796   6.479   0.484   1.515 -1.9895 -0.3346  0.5320
 8769TIP3   OH247797   0.557   1.740  10.626 -0.1745 -0.5477  0.3616
 8769TIP3    H147798   0.588   1.829  10.638  2.0565 -1.3530  1.1499
 8769TIP3    H247799   0.607   1.706  10.552 -0.7649 -1.2567  0.2680
 8770TIP3   OH247800   6.801   2.345  15.845 -0.2005 -0.2318 -0.0808
 8770TIP3    H147801   6.875   2.372  15.791 -1.3411 -0.0762 -1.6335
 8770TIP3    H247802   6.841   2.304  15.922  1.4833  0.0743 -0.7546
 8771TIP3   OH247803   6.227   3.883   0.181 -0.2470  0.2070  0.5989
 8771TIP3    H147804   6.177   3.869   0.100 -1.1319  1.6258  0.8613
 8771TIP3    H247805   6.189   3.822   0.244 -1.8891  1.4439  0.8694
 8772TIP3   OH247806   4.849   2.038   4.093  0.1690  0.6158  0.2814
 8772TIP3    H147807   4.936   2.017   4.126 -0.8204 -2.6366  1.2867
 8772TIP3    H247808   4.799   2.066   4.170 -0.4257 -0.6116  0.3798
 8773TIP3   OH247809   6.342   3.382  11.807  0.1824 -0.5904 -0.4947
 8773TIP3    H147810   6.359   3.348  11.719  1.6677  0.1030 -0.5121
 8773TIP3    H247811   6.282   3.318  11.847 -0.9211 -0.6416 -2.1622
 8774TIP3   OH247812   2.836   2.925   6.228 -0.2234 -0.5033 -0.0624
 8774TIP3    H147813   2.913   2.935   6.284 -0.9488 -0.5269  0.9843
 8774TIP3    H247814   2.839   2.834   6.199  0.6384 -0.2477 -0.8009
 8775TIP3   OH247815   1.104   2.188   2.119  0.1676 -0.0419  0.4122
 8775TIP3    H147816   1.086   2.205   2.027  0.4092  0.6471  0.4923
 8775TIP3    H247817   1.110   2.092   2.125  1.2277 -0.0464 -0.4864
 8776TIP3   OH247818   0.063   3.437  11.503 -0.0412 -0.0360  0.2197
 8776TIP3    H147819   0.149   3.453  11.463  0.0729 -0.1025  0.4388
 8776TIP3    H247820   0.001   3.476  11.441  0.2007  0.7939  0.4866
 8777TIP3   OH247821   4.979   2.093  14.878  0.4549 -0.3060  0.1732
 8777TIP3    H147822   5.064   2.135  14.865 -0.0492  0.0886 -2.4423
 8777TIP3    H247823   4.915   2.161  14.858 -0.4430 -1.0925  0.2999
 8778TIP3   OH247824   1.811   5.669  16.967  0.1997  0.3487 -0.7681
 8778TIP3    H147825   1.743   5.617  17.008  1.3625 -1.9276 -1.5143
 8778TIP3    H247826   1.772   5.755  16.953 -2.4108 -0.8008 -0.9784
 8779TIP3   OH247827   5.608   0.420  15.668 -0.2657 -0.1375 -0.0366
 8779TIP3    H147828   5.605   0.336  15.622 -0.9414 -1.3668  2.0879
 8779TIP3    H247829   5.625   0.485  15.600 -0.8821 -1.8630 -1.9184
 8780TIP3   OH247830   2.836   6.129  12.088 -0.3985  0.1345  0.0189
 8780TIP3    H147831   2.844   6.216  12.049  1.3292  0.7105  1.5151
 8780TIP3    H247832   2.841   6.145  12.182 -1.5369 -1.4671  0.3771
 8781TIP3   OH247833   3.194   3.697  13.010 -0.2972 -0.9102  0.4950
 8781TIP3    H147834   3.133   3.660  13.074  0.3920 -1.6439  0.7362
 8781TIP3    H247835   3.262   3.739  13.063  0.6918 -2.1874  0.2749
 8782TIP3   OH247836   4.699   0.388   3.900  0.5712 -0.2965  0.3119
 8782TIP3    H147837   4.700   0.367   3.993  1.0802  0.4861  0.5020
 8782TIP3    H247838   4.789   0.373   3.871  0.7518  0.7776  0.2740
 8783TIP3   OH247839   0.756   6.519  11.535  0.3037 -0.3399 -0.2212
 8783TIP3    H147840   0.675   6.560  11.504 -0.1169 -1.5212 -0.7582
 8783TIP3    H247841   0.806   6.591  11.574 -1.9352  0.1005  2.1256
 8784TIP3   OH247842   5.443   1.775  15.890  0.2483 -0.0885  0.8296
 8784TIP3    H147843   5.454   1.797  15.983  0.8653  2.3088  0.2671
 8784TIP3    H247844   5.451   1.859  15.845 -1.3831 -1.0031 -1.3145
 8785TIP3   OH247845   6.365   6.023  16.429  0.5529  0.1408  0.3389
 8785TIP3    H147846   6.303   6.051  16.497 -2.6466 -2.1984 -1.3498
 8785TIP3    H247847   6.369   6.097  16.369  0.3211  0.7814  1.0956
 8786TIP3   OH247848   3.897   4.065   5.488  0.4455 -0.1932  0.4964
 8786TIP3    H147849   3.803   4.066   5.468  0.3150 -0.4940  1.0943
 8786TIP3    H247850   3.932   4.140   5.440 -0.0334 -0.3152 -0.0524
 8787TIP3   OH247851   6.080   1.831   0.314 -0.9665  0.5512  0.1557
 8787TIP3    H147852   6.153   1.842   0.376 -0.3082  0.6628 -0.6245
 8787TIP3    H247853   6.025   1.908   0.329 -1.0373  0.3698  0.8834
 8788TIP3   OH247854   2.554   0.189   1.940 -0.2212  0.2015 -0.4995
 8788TIP3    H147855   2.610   0.124   1.898 -0.0267  0.7676 -1.1455
 8788TIP3    H247856   2.538   0.254   1.871  0.4774  1.3976  0.4273
 8789TIP3   OH247857   3.621   5.140   1.780 -0.1734 -0.4503 -0.4395
 8789TIP3    H147858   3.681   5.066   1.776 -0.3097 -0.6771  1.1301
 8789TIP3    H247859   3.674   5.213   1.810 -0.3350 -0.2592 -0.6163
 8790TIP3   OH247860   4.140   2.859   0.473  0.0995  0.0225  0.0383
 8790TIP3    H147861   4.229   2.825   0.463 -0.3981 -1.4602  0.4502
 8790TIP3    H247862   4.103   2.810   0.546 -0.6766  1.4803  0.6780
 8791TIP3   OH247863   2.788   3.062  15.977  0.5186  0.2207 -0.1577
 8791TIP3    H147864   2.721   3.004  16.011 -1.1571  1.5251 -1.0700
 8791TIP3    H247865   2.794   3.133  16.041  0.6992  0.3393 -0.3028
 8792TIP3   OH247866   5.651   0.021  15.691  0.1235  0.4147 -0.2165
 8792TIP3    H147867   5.602   0.073  15.627 -0.9057 -1.5681 -1.1406
 8792TIP3    H247868   5.632   0.063  15.775 -1.3302  1.0476 -0.8232
 8793TIP3   OH247869   2.721   1.057   5.448 -0.1723  0.1410  0.5321
 8793TIP3    H147870   2.752   0.979   5.493  0.7431  0.2438  0.0876
 8793TIP3    H247871   2.627   1.042   5.436  0.0951 -1.1735 -0.0902
 8794TIP3   OH247872   1.525   0.873  10.878  0.4447  0.6287 -0.3093
 8794TIP3    H147873   1.527   0.913  10.791  0.3205  0.6668 -0.2955
 8794TIP3    H247874   1.487   0.786  10.863 -0.0342  0.8202 -0.2238
 8795TIP3   OH247875   2.563   6.199   3.333  0.1868 -0.1713  0.2531
 8795TIP3    H147876   2.648   6.178   3.373 -0.2210 -1.7292  0.3676
 8795TIP3    H247877   2.583   6.210   3.240  0.7579  1.1366  0.5045
 8796TIP3   OH247878   0.736   1.773   0.322 -1.0119 -0.0649 -0.1834
 8796TIP3    H147879   0.763   1.799   0.234 -1.0360  0.5913 -0.0051
 8796TIP3    H247880   0.817   1.778   0.373 -0.7926 -1.3934 -0.3659
 8797TIP3   OH247881   1.468   5.646  13.936 -0.1057 -0.2187 -0.3369
 8797TIP3    H147882   1.524   5.640  14.014  0.4505  1.3268 -0.5834
 8797TIP3    H247883   1.418   5.726  13.948 -0.0820 -0.0058 -1.5263
 8798TIP3   OH247884   0.553   0.130  15.193 -0.2477 -0.1968 -0.0183
 8798TIP3    H147885   0.530   0.193  15.125 -0.7142 -1.0252 -0.6476
 8798TIP3    H247886   0.645   0.148  15.213 -0.5394  1.0518  0.2263
 8799TIP3   OH247887   6.048   4.308  12.535  0.3443  0.5241 -0.1000
 8799TIP3    H147888   6.071   4.252  12.461  1.1902  0.2932  0.3295
 8799TIP3    H247889   5.992   4.254  12.591  1.3041  0.0268  0.4034
 8800TIP3   OH247890   0.628   6.546  12.850 -0.4163  0.3676 -0.0027
 8800TIP3    H147891   0.661   6.541  12.940 -0.6330 -2.8113  0.0250
 8800TIP3    H247892   0.535   6.563  12.859 -0.9213 -2.2383  0.6202
 8801TIP3   OH247893   4.011   4.339  14.867 -0.2183 -0.2329 -0.1926
 8801TIP3    H147894   4.023   4.429  14.835  3.5692 -1.4411 -2.8539
 8801TIP3    H247895   3.939   4.305  14.813 -1.5252  1.0204  0.6664
 8802TIP3   OH247896   6.539   1.202   5.793  0.3907 -0.6178  0.1108
 8802TIP3    H147897   6.532   1.287   5.750 -1.3485 -0.0265  1.4568
 8802TIP3    H247898   6.633   1.191   5.810  0.6000  1.2106  0.2605
 8803TIP3   OH247899   4.517   6.632   5.950  0.2022 -0.5927 -0.0909
 8803TIP3    H147900   4.426   6.610   5.969 -0.4862  2.3355  0.4028
 8803TIP3    H247901   4.515   6.670   5.862  0.6142  1.0662  0.5801
 8804TIP3   OH247902   0.030   5.803   2.523 -0.0826  0.4617  0.4220
 8804TIP3    H147903  -0.013   5.874   2.475 -0.8299 -0.4831 -0.3492
 8804TIP3    H247904  -0.037   5.771   2.583 -0.1818 -0.4221 -0.1421
 8805TIP3   OH247905   5.845   5.506  14.505 -0.1335 -0.0441  0.5811
 8805TIP3    H147906   5.834   5.567  14.432 -0.9736 -0.4761  0.3365
 8805TIP3    H247907   5.765   5.516  14.557 -0.0519 -0.5636  0.8140
 8806TIP3   OH247908   1.288   4.529  12.547  0.0952 -0.8503  0.3406
 8806TIP3    H147909   1.356   4.462  12.554 -0.4199 -1.3092  1.2796
 8806TIP3    H247910   1.335   4.610  12.531  0.8142 -1.2640  0.3377
 8807TIP3   OH247911   2.306   2.904  16.488  0.2182 -0.0487  0.4760
 8807TIP3    H147912   2.391   2.942  16.468  0.0709  0.4812  0.8575
 8807TIP3    H247913   2.307   2.819  16.443  2.2646 -1.6027  3.1684
 8808TIP3   OH247914   0.557   3.755  10.908  0.0660  0.1553  0.0075
 8808TIP3    H147915   0.566   3.816  10.834  0.5443 -0.6292 -0.5969
 8808TIP3    H247916   0.595   3.801  10.982 -0.0681  0.8051 -0.3185
 8809TIP3   OH247917   0.171   0.767   2.748  0.4493 -0.0795  0.3194
 8809TIP3    H147918   0.246   0.738   2.697 -0.3371 -1.5105 -0.0730
 8809TIP3    H247919   0.100   0.709   2.722 -0.9705  1.5951  0.2447
 8810TIP3   OH247920   6.800   0.809  16.979  0.0277  0.1340  0.3268
 8810TIP3    H147921   6.706   0.826  16.985  0.1926  1.9924 -1.4096
 8810TIP3    H247922   6.808   0.729  16.928 -0.6043 -1.3043  2.3488
 8811TIP3   OH247923   2.969   2.374   0.918  0.2512 -0.3882 -0.3308
 8811TIP3    H147924   3.002   2.384   0.829 -0.4701  1.4589 -0.4276
 8811TIP3    H247925   3.020   2.436   0.970 -0.4024 -0.3212  0.2473
 8812TIP3   OH247926   0.207   3.310  11.686 -0.2077 -0.0215 -0.1834
 8812TIP3    H147927   0.134   3.327  11.626 -0.9653 -0.7249  0.5181
 8812TIP3    H247928   0.218   3.392  11.734  0.0359  0.3660 -0.8903
 8813TIP3   OH247929   0.975   0.566   5.574  0.3242  0.2306  0.0520
 8813TIP3    H147930   0.948   0.595   5.661 -2.4455  1.0985 -1.0112
 8813TIP3    H247931   0.921   0.489   5.557  1.6956 -0.6473 -0.4807
 8814TIP3   OH247932   5.239   1.438  16.176 -0.1100 -0.0343 -0.1765
 8814TIP3    H147933   5.311   1.377  16.192 -0.0926 -0.0956 -0.4702
 8814TIP3    H247934   5.280   1.525  16.177 -0.2451  0.0287  0.8947
 8815TIP3   OH247935   3.235   3.762   3.296  0.0104 -0.5940  0.0638
 8815TIP3    H147936   3.323   3.739   3.326  0.7813 -0.5497 -2.0118
 8815TIP3    H247937   3.179   3.691   3.327  0.2185  0.5574  3.5830
 8816TIP3   OH247938   0.777   2.004   1.263  0.1756  0.1252  0.0312
 8816TIP3    H147939   0.766   2.061   1.188 -1.4983 -1.5318 -1.0590
 8816TIP3    H247940   0.849   1.946   1.239 -0.7556 -0.8007 -0.5961
 8817TIP3   OH247941   4.200   5.378   3.388  0.1371 -0.0133  0.5015
 8817TIP3    H147942   4.294   5.361   3.387 -0.1005 -1.4539 -0.0937
 8817TIP3    H247943   4.193   5.472   3.404  1.6431 -0.0412  1.5018
 8818TIP3   OH247944   4.241   6.247   5.535  0.2063  0.5362 -0.1556
 8818TIP3    H147945   4.151   6.234   5.562  0.0662  1.9124  0.0977
 8818TIP3    H247946   4.289   6.175   5.576 -1.1106 -1.8599 -2.4753
 8819TIP3   OH247947   3.977   4.629   0.549  0.5615  0.6661  0.4206
 8819TIP3    H147948   4.071   4.631   0.566  0.4231 -1.3792  1.7753
 8819TIP3    H247949   3.957   4.537   0.533 -1.3996  0.8290  1.5816
 8820TIP3   OH247950   1.530   2.510  14.948  0.3197 -0.4800 -0.1988
 8820TIP3    H147951   1.525   2.434  15.007 -0.5771  0.7239  1.3586
 8820TIP3    H247952   1.569   2.579  15.001 -2.0114  1.1289 -0.4223
 8821TIP3   OH247953   3.651   2.545   1.409 -0.1298 -0.1944  0.6048
 8821TIP3    H147954   3.720   2.611   1.406 -1.7661  1.5816 -0.7727
 8821TIP3    H247955   3.648   2.508   1.321 -0.2146 -1.0632  0.9590
 8822TIP3   OH247956   5.127   4.191  17.107  0.0042 -0.9744 -0.9151
 8822TIP3    H147957   5.201   4.204  17.047 -0.4477 -1.1428 -1.5134
 8822TIP3    H247958   5.169   4.168  17.190  0.6753  0.3102 -0.8648
 8823TIP3   OH247959   1.665   2.163   4.356 -0.2323 -0.3536  0.2932
 8823TIP3    H147960   1.701   2.139   4.270 -0.0396 -0.7627  0.4879
 8823TIP3    H247961   1.590   2.218   4.335 -1.1527 -1.7435 -0.1955
 8824TIP3   OH247962   3.623   4.685   1.684 -0.2972  0.0171  0.9544
 8824TIP3    H147963   3.534   4.651   1.675  0.3503 -1.3583 -0.7275
 8824TIP3    H247964   3.632   4.749   1.613 -0.3878  1.2351  2.0091
 8825TIP3   OH247965   0.823   1.447   1.694 -0.0371  0.1301  0.5950
 8825TIP3    H147966   0.819   1.352   1.679 -0.1039 -0.0178  1.4893
 8825TIP3    H247967   0.905   1.460   1.742  1.1473  0.8290 -1.5008
 8826TIP3   OH247968   5.331   0.427   4.478  0.2053  0.0079  0.2653
 8826TIP3    H147969   5.278   0.400   4.403  0.0564  2.1961 -0.4909
 8826TIP3    H247970   5.421   0.428   4.445 -0.0055  2.4945 -0.4727
 8827TIP3   OH247971   2.241   1.362  12.197 -0.6722  0.2077 -0.1535
 8827TIP3    H147972   2.313   1.370  12.259 -0.4763  0.1929 -0.3760
 8827TIP3    H247973   2.220   1.269  12.195 -0.7285  0.2185 -0.0538
 8828TIP3   OH247974   0.653   2.169  15.174  0.2122 -0.0745 -0.5957
 8828TIP3    H147975   0.610   2.229  15.112 -1.7580  0.1816  0.9106
 8828TIP3    H247976   0.607   2.086  15.162 -0.6692  0.1603  0.9546
 8829TIP3   OH247977   4.072   1.490  13.512 -0.2413 -0.0429 -0.3530
 8829TIP3    H147978   4.091   1.582  13.532 -0.0564 -0.2369  0.3874
 8829TIP3    H247979   4.073   1.486  13.416  0.9188  0.4863 -0.3808
 8830TIP3   OH247980   5.611   0.823  10.732 -0.1292  0.5961 -0.2730
 8830TIP3    H147981   5.562   0.782  10.661 -1.3261  0.9628  0.3171
 8830TIP3    H247982   5.654   0.750  10.776  0.2263  0.3155 -1.0667
 8831TIP3   OH247983   5.197   2.357   4.369 -0.4119  0.4655  0.7103
 8831TIP3    H147984   5.200   2.390   4.459  1.5820  1.1244  0.4484
 8831TIP3    H247985   5.289   2.346   4.345 -0.8892  0.9385 -1.4893
 8832TIP3   OH247986   2.633   2.013   0.583 -0.5248 -0.0070  0.3637
 8832TIP3    H147987   2.683   2.046   0.508 -2.1490 -0.2921 -0.9070
 8832TIP3    H247988   2.637   2.084   0.647  0.1278  0.6329 -0.3477
 8833TIP3   OH247989   3.966   2.912   5.723  0.2498 -0.1174  0.4726
 8833TIP3    H147990   3.920   2.966   5.658 -0.0666  0.2511  0.9963
 8833TIP3    H247991   3.901   2.848   5.752  0.5627 -0.6537  0.0063
 8834TIP3   OH247992   3.500   0.901  10.781  0.2959 -0.8069 -0.0391
 8834TIP3    H147993   3.569   0.898  10.715 -0.8116  0.0643 -1.2882
 8834TIP3    H247994   3.437   0.965  10.748 -1.2451 -1.7412  0.9272
 8835TIP3   OH247995   1.352   2.776   6.491  0.9733 -0.3397  0.0220
 8835TIP3    H147996   1.295   2.788   6.566  1.3574 -0.6453  0.3662
 8835TIP3    H247997   1.405   2.857   6.488 -0.1967  0.4260 -0.9419
 8836TIP3   OH247998   4.089   4.430  15.488  0.2496  0.2101 -0.0775
 8836TIP3    H147999   4.179   4.398  15.477  0.5872 -0.2741  3.0868
 8836TIP3    H248000   4.035   4.351  15.480 -0.0472  0.5602 -2.4022
 8837TIP3   OH248001   5.025   6.561   6.810  0.1779 -0.4532  0.9205
 8837TIP3    H148002   5.102   6.556   6.754 -0.6460 -0.7489 -0.2178
 8837TIP3    H248003   5.019   6.653   6.834  0.2791 -0.2325  0.1309
 8838TIP3   OH248004   1.888   2.742  15.880  0.0298  0.4563  0.5445
 8838TIP3    H148005   1.942   2.718  15.956 -0.5247  1.1521  1.1785
 8838TIP3    H248006   1.807   2.694  15.892  0.6619 -0.9597 -0.6637
 8839TIP3   OH248007   2.847   1.837  13.699 -0.3194  0.3090 -0.4786
 8839TIP3    H148008   2.916   1.830  13.633 -0.1216  2.5789 -0.5842
 8839TIP3    H248009   2.824   1.930  13.701 -3.2681 -0.3311 -0.2978
 8840TIP3   OH248010   1.192   2.690   2.102 -0.1809  0.4180 -0.1462
 8840TIP3    H148011   1.157   2.618   2.154 -0.4373  0.8762  0.3244
 8840TIP3    H248012   1.287   2.678   2.104 -0.2623 -0.5677 -1.0445
 8841TIP3   OH248013   4.304   5.933  15.344 -0.4166 -0.4952 -0.1316
 8841TIP3    H148014   4.266   5.902  15.426 -1.2324 -4.4687 -1.7884
 8841TIP3    H248015   4.398   5.939  15.362 -0.6494 -0.7439  1.2226
 8842TIP3   OH248016   4.207   0.832   5.285 -0.0145 -0.3458  0.0083
 8842TIP3    H148017   4.206   0.794   5.373 -2.3111  0.8116  0.5898
 8842TIP3    H248018   4.220   0.758   5.226 -0.2034 -1.4004  1.2479
 8843TIP3   OH248019   6.152   4.533   2.317  0.0944 -0.0842 -0.9155
 8843TIP3    H148020   6.109   4.451   2.340  1.5825 -1.0757 -1.4855
 8843TIP3    H248021   6.233   4.533   2.367 -1.3772  2.7406  1.7525
 8844TIP3   OH248022   5.538   1.679  13.901 -0.1065  0.1122  0.5018
 8844TIP3    H148023   5.563   1.769  13.921 -0.0308  0.1974  0.0285
 8844TIP3    H248024   5.619   1.637  13.873 -0.1473 -0.0960  0.6952
 8845TIP3   OH248025   6.069   2.609  13.208 -0.1955 -0.5806  0.1214
 8845TIP3    H148026   6.019   2.670  13.154  0.3280  1.4639  1.7836
 8845TIP3    H248027   6.158   2.646  13.209  0.4057 -1.9645  0.3508
 8846TIP3   OH248028   5.432   2.492  11.510 -0.2234  0.8458  0.1203
 8846TIP3    H148029   5.425   2.463  11.419 -0.3391  0.2559  0.3102
 8846TIP3    H248030   5.342   2.502  11.540 -0.2085  0.1056  0.4496
 8847TIP3   OH248031   5.769   0.262   4.713  0.3537  0.2461  0.7736
 8847TIP3    H148032   5.769   0.355   4.733  0.1712  0.3433  0.3280
 8847TIP3    H248033   5.851   0.229   4.750  1.8353  1.1253 -1.5188
 8848TIP3   OH248034   4.987   5.200   5.243  0.1342  0.6930  0.2244
 8848TIP3    H148035   4.908   5.252   5.234 -0.3492 -0.2419 -1.2505
 8848TIP3    H248036   4.958   5.110   5.232  1.5438  0.3963 -1.5285
 8849TIP3   OH248037   2.950   6.820   4.484  0.4676 -0.3370 -0.4262
 8849TIP3    H148038   3.036   6.861   4.482 -0.3476  1.4687 -0.5983
 8849TIP3    H248039   2.961   6.737   4.439  1.9869  0.1190 -0.9278
 8850TIP3   OH248040   3.333   2.967  12.297  0.1445 -0.5651  0.5005
 8850TIP3    H148041   3.397   2.988  12.365  0.6516 -2.3363  0.6191
 8850TIP3    H248042   3.278   2.899  12.336  0.8321 -2.0780 -1.0359
 8851TIP3   OH248043   2.867   4.749  13.746 -0.3128  0.2996 -0.4075
 8851TIP3    H148044   2.864   4.824  13.686  2.8857  2.7737  2.0954
 8851TIP3    H248045   2.785   4.754  13.795 -0.1081  2.4163 -0.1650
 8852TIP3   OH248046   6.321   6.604   5.779  0.6784 -0.0378 -0.5746
 8852TIP3    H148047   6.230   6.581   5.799  0.4927  0.5038 -0.7932
 8852TIP3    H248048   6.315   6.688   5.733  1.1813 -0.6658 -1.8419
 8853TIP3   OH248049   3.128   3.563   5.603 -0.0160  0.5295  0.7243
 8853TIP3    H148050   3.106   3.517   5.684 -1.2209 -0.6225 -0.2112
 8853TIP3    H248051   3.066   3.530   5.539  0.0824  2.3576 -0.3893
 8854TIP3   OH248052   1.517   5.866  16.775 -0.5986 -0.2377  0.1011
 8854TIP3    H148053   1.571   5.930  16.821 -0.5015  0.9625 -1.5804
 8854TIP3    H248054   1.449   5.918  16.732 -1.7094 -1.4807  0.2681
 8855TIP3   OH248055   5.698   6.348  15.219  0.0275 -0.2792  0.1241
 8855TIP3    H148056   5.767   6.323  15.158 -0.1934  0.1005 -0.2845
 8855TIP3    H248057   5.745   6.387  15.293  0.1698  2.4250 -1.2801
 8856TIP3   OH248058   4.758   3.068   2.573  0.3693 -0.7694 -0.1093
 8856TIP3    H148059   4.746   3.071   2.668  2.6721 -1.9318  0.3043
 8856TIP3    H248060   4.775   3.159   2.549  1.7755 -0.6975  0.9775
 8857TIP3   OH248061   1.280   0.600  14.403  0.3375 -0.2983  0.0386
 8857TIP3    H148062   1.316   0.648  14.478 -0.7097  2.3808 -1.0519
 8857TIP3    H248063   1.188   0.587  14.424  0.5388 -1.7161  0.1940
 8858TIP3   OH248064   1.658   5.430  13.478  0.6422 -0.4341 -0.4696
 8858TIP3    H148065   1.728   5.377  13.440 -0.6837 -1.9269 -0.9302
 8858TIP3    H248066   1.579   5.376  13.469 -0.7246  1.4848 -0.6641
 8859TIP3   OH248067   1.946   5.268   3.942 -0.6840  0.4296 -0.0701
 8859TIP3    H148068   1.993   5.346   3.913  2.4527 -0.3961  2.1963
 8859TIP3    H248069   1.966   5.202   3.875  0.0078  0.5408  0.0203
 8860TIP3   OH248070   3.883   3.398  11.681 -0.4236  0.4188  0.6517
 8860TIP3    H148071   3.935   3.460  11.732  0.2625 -0.0168  0.4860
 8860TIP3    H248072   3.939   3.373  11.607 -0.5757 -0.5943  0.8550
 8861TIP3   OH248073   4.570   6.375   5.143  0.1899  0.0735 -0.2606
 8861TIP3    H148074   4.488   6.348   5.102  0.5258  1.2286 -1.7856
 8861TIP3    H248075   4.618   6.293   5.157 -1.5832 -0.7436  1.6320
 8862TIP3   OH248076   2.430   5.077  14.112 -0.1379 -0.8176  0.4147
 8862TIP3    H148077   2.431   5.158  14.163  0.8992  0.4765 -1.5363
 8862TIP3    H248078   2.405   5.009  14.175  0.9713  0.6788  2.6098
 8863TIP3   OH248079   3.537   0.933   2.271  0.4021  0.0501  0.0147
 8863TIP3    H148080   3.574   0.855   2.310  1.5630 -0.3692 -1.7940
 8863TIP3    H248081   3.577   1.006   2.318  1.0039 -0.4310  0.2458
 8864TIP3   OH248082   0.635   4.561  14.621  0.2596  0.6437  0.1127
 8864TIP3    H148083   0.666   4.589  14.535  1.1258  2.7927  1.0508
 8864TIP3    H248084   0.589   4.638  14.656  0.6931  0.1286  1.9147
 8865TIP3   OH248085   0.607   3.611   5.505  0.1367 -0.0095  0.2180
 8865TIP3    H148086   0.669   3.666   5.553  0.1788 -0.5419  0.7959
 8865TIP3    H248087   0.585   3.661   5.427  1.2975  0.1841  0.0019
 8866TIP3   OH248088   3.531   2.816  14.904 -0.0976 -0.2030  0.3585
 8866TIP3    H148089   3.583   2.833  14.983 -1.0394 -0.6365  1.0869
 8866TIP3    H248090   3.576   2.865  14.835 -0.1356  1.4758  1.4712
 8867TIP3   OH248091   0.441   3.561  10.622  0.1910  0.3233 -0.0106
 8867TIP3    H148092   0.442   3.465  10.613 -0.6226  0.1951  1.0373
 8867TIP3    H248093   0.369   3.578  10.683  1.5357  1.4816  1.3040
 8868TIP3   OH248094   0.892   0.534  11.276  0.1287  0.0410  0.2423
 8868TIP3    H148095   0.941   0.459  11.309  1.4006  1.4078  1.6613
 8868TIP3    H248096   0.904   0.532  11.181 -1.0864 -2.3025  0.0663
 8869TIP3   OH248097   3.657   1.386   0.415  0.2535 -0.0511 -0.1962
 8869TIP3    H148098   3.604   1.358   0.490 -0.1225 -1.8856 -1.0971
 8869TIP3    H248099   3.698   1.468   0.444 -2.1035  0.8058  0.9803
 8870TIP3   OH248100   3.985   1.841   6.209  0.4133  0.2335  0.2818
 8870TIP3    H148101   3.949   1.927   6.189 -0.0547  0.1901  0.9257
 8870TIP3    H248102   4.079   1.855   6.214  0.6274  0.2029 -2.2009
 8871TIP3   OH248103   0.130   2.407   4.212  0.0389 -0.4250 -0.2245
 8871TIP3    H148104   0.165   2.483   4.166 -0.2343 -0.9880 -1.4058
 8871TIP3    H248105   0.189   2.336   4.190  0.3625 -0.5509  0.9730
 8872TIP3   OH248106   4.288   0.714   2.974 -0.4774 -0.4716  0.2840
 8872TIP3    H148107   4.356   0.672   3.026 -0.8692 -1.0585  0.3207
 8872TIP3    H248108   4.336   0.756   2.902 -0.0897 -1.0428  0.1999
 8873TIP3   OH248109   3.798   5.228  15.355  0.7936  0.7037  0.4235
 8873TIP3    H148110   3.740   5.233  15.279  1.4709  2.8438  0.0009
 8873TIP3    H248111   3.752   5.275  15.425  0.9783  0.3256  0.8082
 8874TIP3   OH248112   3.778   3.124   1.541 -0.0872 -0.4327 -0.2154
 8874TIP3    H148113   3.712   3.092   1.479  0.1952 -1.0825 -0.1958
 8874TIP3    H248114   3.733   3.191   1.592 -0.2859  0.1925 -1.1989
 8875TIP3   OH248115   2.495   1.997  15.139 -0.4312  0.4619  0.5201
 8875TIP3    H148116   2.440   2.070  15.167  1.6673  2.3171  0.1484
 8875TIP3    H248117   2.584   2.035  15.134  0.6067 -1.9009 -0.5403
 8876TIP3   OH248118   3.316   5.799  14.803  0.2023  0.4162 -0.0908
 8876TIP3    H148119   3.393   5.782  14.858  0.6127  0.0927 -0.7571
 8876TIP3    H248120   3.339   5.763  14.718 -0.8318 -0.0034 -0.2074
 8877TIP3   OH248121   3.945   1.010  13.876  0.0248 -0.1004 -0.3124
 8877TIP3    H148122   3.851   0.993  13.884 -0.2549 -0.1130 -2.6807
 8877TIP3    H248123   3.984   0.922  13.871  0.2055 -0.0972  0.8236
 8878TIP3   OH248124   3.791   6.121   0.218 -0.1719  0.2404 -0.4740
 8878TIP3    H148125   3.794   6.025   0.212 -0.1016  0.2758 -1.0482
 8878TIP3    H248126   3.703   6.140   0.248  0.2826 -0.0704  1.1689
 8879TIP3   OH248127   0.679   0.719   4.219 -0.5524 -0.1149 -0.0171
 8879TIP3    H148128   0.669   0.785   4.287 -0.1214 -0.7152  0.6406
 8879TIP3    H248129   0.766   0.736   4.182 -0.7958  0.2268 -0.4490
 8880TIP3   OH248130   3.703   2.795  13.140 -0.0560  0.3111  0.3318
 8880TIP3    H148131   3.720   2.775  13.048 -0.4671 -1.2282  0.5665
 8880TIP3    H248132   3.662   2.881  13.138  1.0248  0.8452 -0.8128
 8881TIP3   OH248133   3.123   6.098   0.875 -0.0376  0.4497 -0.2363
 8881TIP3    H148134   3.147   6.020   0.925  1.1755  0.7178 -0.3745
 8881TIP3    H248135   3.070   6.150   0.936  1.5282  0.8394  0.8344
 8882TIP3   OH248136   1.254   5.400   2.789  0.5143 -0.2994 -0.1258
 8882TIP3    H148137   1.190   5.340   2.828 -0.3809  0.7598  0.0878
 8882TIP3    H248138   1.332   5.390   2.844 -0.0470 -0.3408  0.6924
 8883TIP3   OH248139   5.543   4.171  11.900  0.2550 -0.0655 -0.7480
 8883TIP3    H148140   5.532   4.262  11.927  0.1232 -0.6627  1.4013
 8883TIP3    H248141   5.636   4.152  11.916  0.1613 -0.4574 -0.6559
 8884TIP3   OH248142   3.079   4.077  13.089 -0.3998  0.4333 -0.2175
 8884TIP3    H148143   3.118   3.990  13.100 -0.8450  0.0003 -1.8166
 8884TIP3    H248144   3.120   4.130  13.158  0.6085 -0.7856  0.1730
 8885TIP3   OH248145   5.359   6.798  11.887  0.0287 -0.5867 -0.1741
 8885TIP3    H148146   5.425   6.866  11.876 -1.1219  0.2910 -2.1864
 8885TIP3    H248147   5.275   6.845  11.885 -0.7618 -1.9718 -0.7491
 8886TIP3   OH248148   2.600   5.058  16.429 -0.5007  0.7982  0.2032
 8886TIP3    H148149   2.679   5.091  16.471 -1.7311  1.5649  2.0208
 8886TIP3    H248150   2.612   5.079  16.336  2.0671 -0.4946  0.1597
 8887TIP3   OH248151   0.415   5.331  10.651  0.2555 -0.2663  0.0182
 8887TIP3    H148152   0.367   5.376  10.582 -0.6977 -2.1925 -0.6565
 8887TIP3    H248153   0.502   5.316  10.615  1.2614  2.6404  0.9876
 8888TIP3   OH248154   2.559   2.883  16.959 -0.5399 -0.6084  0.5730
 8888TIP3    H148155   2.615   2.811  16.929  1.0105  0.3460  1.0804
 8888TIP3    H248156   2.581   2.894  17.051  1.3531  2.2953 -0.1008
 8889TIP3   OH248157   3.708   3.896  14.126  1.0273 -0.0059  0.0539
 8889TIP3    H148158   3.740   3.817  14.170 -0.8491 -0.5535  0.5591
 8889TIP3    H248159   3.615   3.878  14.112  0.4141  2.3692  0.6983
 8890TIP3   OH248160   2.715   1.903  14.710 -0.6323  0.6958  0.0464
 8890TIP3    H148161   2.690   1.901  14.617  0.7604  0.0338 -0.3515
 8890TIP3    H248162   2.741   1.994  14.725 -1.7873  1.0342  0.0698
 8891TIP3   OH248163   5.728   5.953   5.908 -0.2994  0.8609  0.8244
 8891TIP3    H148164   5.681   5.961   5.825  0.3601 -0.6693  0.2616
 8891TIP3    H248165   5.787   5.878   5.895 -0.4714  0.3249  2.8125
 8892TIP3   OH248166   3.945   3.343   2.553  0.1205  0.1549  0.0386
 8892TIP3    H148167   3.886   3.309   2.620 -1.0477  1.1192 -0.4730
 8892TIP3    H248168   3.966   3.267   2.498  1.2510 -0.6947  1.5609
 8893TIP3   OH248169   6.468   6.579  12.265  0.8224 -0.6000  0.1615
 8893TIP3    H148170   6.494   6.492  12.295  2.2410 -0.6548 -1.1165
 8893TIP3    H248171   6.545   6.634  12.280  0.6937 -0.0680 -0.9855
 8894TIP3   OH248172   1.870   4.304   3.171  0.2166  0.5290  0.4207
 8894TIP3    H148173   1.914   4.284   3.254 -0.3128  0.5510  0.7123
 8894TIP3    H248174   1.784   4.265   3.180  1.1664 -2.2586 -1.3577
 8895TIP3   OH248175   3.359   2.016   0.575 -0.3175 -0.1392 -0.2254
 8895TIP3    H148176   3.293   2.084   0.588 -1.4661 -1.2086 -0.2130
 8895TIP3    H248177   3.434   2.061   0.537 -0.5669  1.3483  0.9495
 8896TIP3   OH248178   2.664   1.552  15.759  0.0694  0.2189  0.1226
 8896TIP3    H148179   2.612   1.522  15.833 -0.9964 -1.2794 -1.1859
 8896TIP3    H248180   2.723   1.479  15.740  2.0071  1.4680  0.8916
 8897TIP3   OH248181   0.784   5.515   5.387  0.2309 -0.6522 -0.3951
 8897TIP3    H148182   0.703   5.532   5.340  0.5608 -2.3307 -1.6611
 8897TIP3    H248183   0.851   5.565   5.339  0.1860 -0.4692 -0.2671
 8898TIP3   OH248184   0.844   2.515  11.172  0.0954 -0.3039  0.3696
 8898TIP3    H148185   0.855   2.425  11.143  0.7119  0.0180 -0.4137
 8898TIP3    H248186   0.826   2.565  11.092  1.7244  0.5853  0.5184
 8899TIP3   OH248187   3.225   3.306   5.357  0.3871 -0.0768 -0.2338
 8899TIP3    H148188   3.250   3.222   5.396  0.1509 -1.1631 -2.2721
 8899TIP3    H248189   3.136   3.322   5.390 -0.1417 -1.3894 -0.9309
 8900TIP3   OH248190   2.335   6.109  12.579  0.5919 -0.0319  0.0005
 8900TIP3    H148191   2.327   6.021  12.614  0.3379 -0.6131 -1.4560
 8900TIP3    H248192   2.350   6.097  12.486 -0.0342  1.4794 -0.3296
 8901TIP3   OH248193   2.609   0.449  11.604  0.2210  0.2719  0.5019
 8901TIP3    H148194   2.636   0.517  11.541  0.3270 -1.6938 -1.6939
 8901TIP3    H248195   2.514   0.449  11.600  0.2249  0.2016  0.4190
 8902TIP3   OH248196   1.010   4.521   2.062  0.2597 -0.2858 -0.2389
 8902TIP3    H148197   0.966   4.605   2.076  0.4518 -0.0639 -0.9191
 8902TIP3    H248198   1.061   4.506   2.142 -0.8922 -0.4561  0.4818
 8903TIP3   OH248199   0.176   2.724   4.884 -0.3714 -0.1086 -0.2673
 8903TIP3    H148200   0.208   2.812   4.906  0.1884 -0.2545 -0.4878
 8903TIP3    H248201   0.255   2.672   4.870 -0.6871 -0.9047  0.8030
 8904TIP3   OH248202   1.687   1.867   2.338 -0.1867 -0.1683  0.2007
 8904TIP3    H148203   1.709   1.774   2.337 -0.4652 -0.3367  2.6560
 8904TIP3    H248204   1.743   1.905   2.406 -0.3988  1.3878 -0.4347
 8905TIP3   OH248205   3.249   0.660   0.060 -0.4652 -0.0206  0.3919
 8905TIP3    H148206   3.234   0.737   0.004  0.1317  1.0502  1.6598
 8905TIP3    H248207   3.176   0.601   0.040 -0.1665  0.2210 -1.6510
 8906TIP3   OH248208   3.148   3.174   3.794 -0.3769  0.0701  0.1932
 8906TIP3    H148209   3.164   3.183   3.888 -0.5096 -0.6989  0.2957
 8906TIP3    H248210   3.143   3.079   3.780 -0.2508  0.1789 -0.6072
 8907TIP3   OH248211   2.876   6.298   6.135 -0.2011 -0.0034 -0.4374
 8907TIP3    H148212   2.851   6.224   6.080 -0.6254 -1.1228  1.2027
 8907TIP3    H248213   2.825   6.287   6.215  0.5315  1.4726  0.2722
 8908TIP3   OH248214   2.652   0.884  14.008  0.5887 -0.0309 -0.7007
 8908TIP3    H148215   2.700   0.963  14.032  0.0766 -0.0748  0.5314
 8908TIP3    H248216   2.560   0.905  14.024  0.4151 -0.7493 -0.7074
 8909TIP3   OH248217   1.637   4.111  13.357 -0.2032 -0.6704  0.4249
 8909TIP3    H148218   1.696   4.133  13.429  0.9164  2.6702 -1.3034
 8909TIP3    H248219   1.695   4.079  13.288 -0.8929 -0.9704 -0.0295
 8910TIP3   OH248220   5.340   6.569  14.752  0.0584 -0.1443 -0.0490
 8910TIP3    H148221   5.265   6.628  14.761  0.3072  0.0855  0.5271
 8910TIP3    H248222   5.413   6.616  14.793 -0.2749 -1.8662  2.7782
 8911TIP3   OH248223   0.602   3.007   0.082 -0.0584 -0.3454 -0.0718
 8911TIP3    H148224   0.686   3.029   0.122  0.6074 -2.5401 -0.0875
 8911TIP3    H248225   0.546   2.981   0.156 -0.7989  1.1841 -0.0518
 8912TIP3   OH248226   0.533   6.333   3.627  0.7525 -0.0232  0.3099
 8912TIP3    H148227   0.482   6.404   3.588  2.6397  1.2363 -0.0042
 8912TIP3    H248228   0.474   6.295   3.692 -1.2091  0.1385 -1.2684
 8913TIP3   OH248229   6.402   6.374  12.759  0.2779  0.0176 -0.2655
 8913TIP3    H148230   6.482   6.321  12.763  0.1383 -0.3172 -1.5612
 8913TIP3    H248231   6.423   6.454  12.808  0.6778 -0.9700  1.2356
 8914TIP3   OH248232   0.531   2.690  11.108  0.2519 -0.2842  0.3770
 8914TIP3    H148233   0.483   2.651  11.035 -0.9442  0.3418  0.8012
 8914TIP3    H248234   0.593   2.750  11.067 -1.5034  1.2709 -0.1231
 8915TIP3   OH248235   2.106   1.357  14.222  0.0577 -0.0617  0.0940
 8915TIP3    H148236   2.198   1.361  14.195  0.1754 -2.3267 -0.0223
 8915TIP3    H248237   2.108   1.366  14.317  0.4773 -0.7254  0.1544
 8916TIP3   OH248238   2.674   0.349  13.203  0.5629 -0.1556 -0.8725
 8916TIP3    H148239   2.582   0.354  13.178  0.4548 -2.0834 -0.9916
 8916TIP3    H248240   2.690   0.256  13.219  1.8030  0.4213  1.7718
 8917TIP3   OH248241   0.069   3.434   1.052  0.3879  0.1775  0.3995
 8917TIP3    H148242   0.076   3.528   1.037 -0.4655  0.3468  0.9830
 8917TIP3    H248243   0.137   3.396   0.996  0.5381  1.1084 -0.0799
 8918TIP3   OH248244   1.515   4.793   3.637  0.4682  0.4441 -0.0916
 8918TIP3    H148245   1.565   4.738   3.697  1.6203  1.4514 -0.0838
 8918TIP3    H248246   1.432   4.748   3.626  0.4108 -0.0155  1.8949
 8919TIP3   OH248247   4.235   5.024   1.500  0.6331  0.7002  0.1487
 8919TIP3    H148248   4.183   5.099   1.528 -2.2769 -0.7475 -1.0012
 8919TIP3    H248249   4.290   5.004   1.577  0.1722  2.8422  1.1152
 8920TIP3   OH248250   0.580   5.086   1.190  0.0678  0.4908  0.0806
 8920TIP3    H148251   0.606   5.178   1.193  1.7302  0.0401  0.5531
 8920TIP3    H248252   0.544   5.074   1.102 -0.5186  1.6664  0.1356
 8921TIP3   OH248253   4.618   4.288  12.166 -0.5607 -0.6947  0.1115
 8921TIP3    H148254   4.693   4.253  12.214 -0.8508 -1.2858  0.1469
 8921TIP3    H248255   4.573   4.210  12.133 -2.7984 -0.5553  2.5067
 8922TIP3   OH248256   1.897   5.059   1.599  0.4395 -0.1637  0.3928
 8922TIP3    H148257   1.803   5.048   1.591  0.3673  0.0069  0.9886
 8922TIP3    H248258   1.934   4.989   1.545 -0.0199 -0.4689  0.4709
 8923TIP3   OH248259   2.093   6.382  12.708 -0.4589 -0.1262 -0.1084
 8923TIP3    H148260   2.188   6.371  12.700 -0.6141 -0.8547 -1.1877
 8923TIP3    H248261   2.082   6.474  12.732  0.5119  0.0024 -0.0962
 8924TIP3   OH248262   3.213   1.085   2.344  0.1857  0.1357  0.1447
 8924TIP3    H148263   3.225   1.018   2.277 -0.5623  0.4378 -0.3146
 8924TIP3    H248264   3.194   1.165   2.294 -1.7833  0.0722  0.7242
 8925TIP3   OH248265   0.158   4.638   2.386  0.2896  0.4440 -0.0897
 8925TIP3    H148266   0.163   4.694   2.308 -0.5162  0.5122 -0.0998
 8925TIP3    H248267   0.179   4.550   2.354  4.1770  1.0239  0.3605
 8926TIP3   OH248268   5.613   3.902  13.768  0.0318 -0.4522 -0.1200
 8926TIP3    H148269   5.674   3.909  13.694 -1.2471  0.1899 -1.1537
 8926TIP3    H248270   5.536   3.952  13.740 -0.0567  0.7779  2.1298
 8927TIP3   OH248271   2.423   6.737   2.024  0.8670 -0.1469 -0.0096
 8927TIP3    H148272   2.380   6.662   2.066  0.3069  0.1290 -0.0810
 8927TIP3    H248273   2.443   6.708   1.935 -2.2472  0.8009 -1.1230
 8928TIP3   OH248274   1.367   0.694  10.508 -0.4530 -0.1226  0.5716
 8928TIP3    H148275   1.283   0.705  10.554 -0.8527 -0.2301 -0.1225
 8928TIP3    H248276   1.363   0.605  10.472  0.3053 -0.4276  1.2189
 8929TIP3   OH248277   2.371   5.531   0.522  0.0014  0.1610  0.9165
 8929TIP3    H148278   2.323   5.569   0.595 -0.9024 -0.2628  0.5550
 8929TIP3    H248279   2.307   5.527   0.451  1.2070  1.8778 -0.3749
 8930TIP3   OH248280   1.129   4.964  11.919  0.3205 -0.4944  0.3358
 8930TIP3    H148281   1.197   4.930  11.861  0.3626  1.5482 -0.8924
 8930TIP3    H248282   1.169   5.040  11.961 -0.2639 -0.9828  1.8550
 8931TIP3   OH248283   2.387   4.414   3.381 -0.4835  0.1930 -0.3996
 8931TIP3    H148284   2.477   4.380   3.377 -0.3190  0.0058  2.5186
 8931TIP3    H248285   2.390   4.495   3.331  0.6409 -1.0166 -2.4560
 8932TIP3   OH248286   6.245   6.458  15.049 -0.0747 -0.3834 -0.3315
 8932TIP3    H148287   6.170   6.401  15.033 -0.1889 -0.4883  0.5231
 8932TIP3    H248288   6.287   6.421  15.128 -0.2486  0.7997  0.3297
 8933TIP3   OH248289   3.679   2.446  14.995 -0.2210 -0.3341  0.1242
 8933TIP3    H148290   3.752   2.386  14.987 -0.2935 -0.1855 -2.3580
 8933TIP3    H248291   3.718   2.533  14.990 -0.2658 -0.1508  2.2351
 8934TIP3   OH248292   2.489   2.464   1.157 -0.2670  0.1449 -0.1315
 8934TIP3    H148293   2.404   2.420   1.163 -0.0848 -0.3302 -0.8751
 8934TIP3    H248294   2.496   2.513   1.239 -0.4666 -1.2214  0.7443
 8935TIP3   OH248295   4.972   0.012  15.258 -0.0390  0.2694  0.2080
 8935TIP3    H148296   4.924   0.051  15.185  1.0210 -0.0103 -0.6681
 8935TIP3    H248297   5.021  -0.060  15.218 -0.2876 -0.5911  1.4063
 8936TIP3   OH248298   6.091   2.643  13.497 -0.1554  0.2400  0.3769
 8936TIP3    H148299   6.086   2.584  13.421  2.5712 -0.3915  0.6155
 8936TIP3    H248300   6.032   2.715  13.474 -0.7404 -0.7831 -1.5616
 8937TIP3   OH248301   3.824   5.778  14.239  0.8688 -0.2005  0.1668
 8937TIP3    H148302   3.742   5.730  14.235  0.3349  0.7303 -0.6575
 8937TIP3    H248303   3.800   5.862  14.279  1.1350  0.5831 -1.2578
 8938TIP3   OH248304   5.588   3.363   4.303 -0.6017 -0.2270  0.2910
 8938TIP3    H148305   5.627   3.293   4.252  0.9425  1.5474 -1.1100
 8938TIP3    H248306   5.603   3.338   4.394  1.5112 -0.8770 -0.1953
 8939TIP3   OH248307   4.709   0.956   4.775  0.7197 -0.4429  0.7818
 8939TIP3    H148308   4.729   1.026   4.836  0.8958 -0.0299  0.2587
 8939TIP3    H248309   4.693   1.000   4.691  1.6041 -1.0742  0.2587
 8940TIP3   OH248310   4.012   1.664  13.054  0.0905  0.3381 -0.2078
 8940TIP3    H148311   4.014   1.753  13.018 -0.3502  0.4653  0.0651
 8940TIP3    H248312   4.078   1.616  13.004  2.1669  1.4418  1.3219
 8941TIP3   OH248313   4.486   3.082  14.176 -0.0858 -0.5411  0.4784
 8941TIP3    H148314   4.411   3.125  14.216  0.3032 -0.5397  1.2076
 8941TIP3    H248315   4.471   3.092  14.082 -0.6387  0.0825  0.6228
 8942TIP3   OH248316   0.164   5.500   0.962 -0.4647 -0.5039 -0.1191
 8942TIP3    H148317   0.140   5.571   1.022  1.2608  0.0826 -0.0580
 8942TIP3    H248318   0.082   5.477   0.918 -1.4170  0.2894  1.1570
 8943TIP3   OH248319   4.021   6.653  11.519 -0.4131  0.6031 -0.0903
 8943TIP3    H148320   3.973   6.722  11.565 -1.5947 -0.6666  0.6757
 8943TIP3    H248321   4.086   6.700  11.466 -0.3137  2.2208  1.3685
 8944TIP3   OH248322   1.713   5.173   6.006  0.0488 -0.6043  0.2238
 8944TIP3    H148323   1.722   5.259   6.046  1.3361 -0.7356  0.2633
 8944TIP3    H248324   1.644   5.130   6.057 -1.3141  0.7307 -0.4369
 8945TIP3   OH248325   6.298   0.969  15.013 -0.0488 -0.2580  0.2637
 8945TIP3    H148326   6.283   0.875  15.004 -2.2838 -0.2818  2.9098
 8945TIP3    H248327   6.236   0.997  15.081  0.8426  3.0627 -0.1087
 8946TIP3   OH248328   2.394   1.925   5.968  0.2024 -0.1707 -0.3383
 8946TIP3    H148329   2.454   1.854   5.990  2.2170  1.4365 -0.3490
 8946TIP3    H248330   2.342   1.939   6.047 -0.9422 -2.2764 -0.6658
 8947TIP3   OH248331   4.386   4.821   2.177  0.1720  0.1772 -0.2417
 8947TIP3    H148332   4.402   4.768   2.099  0.5481  0.6693 -0.5116
 8947TIP3    H248333   4.466   4.814   2.228  0.3624  0.7612 -0.4508
 8948TIP3   OH248334   4.882   6.152  14.956  0.1044  0.2968 -0.1614
 8948TIP3    H148335   4.925   6.226  15.001  2.4735  0.2488 -2.1408
 8948TIP3    H248336   4.904   6.076  15.010 -0.5179  0.7145  0.7172
 8949TIP3   OH248337   1.483   3.498  16.429  0.0473 -1.0718 -0.4674
 8949TIP3    H148338   1.407   3.546  16.395 -0.8033 -0.8031  1.6617
 8949TIP3    H248339   1.522   3.557  16.493  1.4647 -1.6276 -0.7834
 8950TIP3   OH248340   3.601   2.057  12.245  0.5932 -0.0553  0.1135
 8950TIP3    H148341   3.574   1.988  12.183  1.7964 -0.9936  0.5835
 8950TIP3    H248342   3.544   2.131  12.225 -0.8352 -1.2197 -0.3428
 8951TIP3   OH248343   4.724   4.872  14.322  0.3297 -0.3721 -0.4869
 8951TIP3    H148344   4.668   4.949  14.307  0.0850 -0.3219  0.6210
 8951TIP3    H248345   4.687   4.805  14.264 -0.1407  0.0140 -0.6479
 8952TIP3   OH248346   0.867   6.480  13.584 -0.1353 -0.0828 -0.3799
 8952TIP3    H148347   0.954   6.450  13.558  1.0371  0.7410  2.3007
 8952TIP3    H248348   0.856   6.449  13.673 -1.1796  2.6268  0.5499
 8953TIP3   OH248349   2.749   4.746   1.700  0.5209 -0.1667 -0.6642
 8953TIP3    H148350   2.811   4.817   1.716  0.0417  0.2771 -0.7432
 8953TIP3    H248351   2.721   4.717   1.787  0.7023 -0.2471 -0.6330
 8954TIP3   OH248352   4.910   1.408  12.090  0.2974  0.1596  0.1580
 8954TIP3    H148353   4.977   1.358  12.044 -0.7716  0.9956 -2.5094
 8954TIP3    H248354   4.957   1.452  12.161  2.3258 -0.2126 -0.8837
 8955TIP3   OH248355   4.962   5.970  12.150 -0.2181  0.5121  0.0686
 8955TIP3    H148356   4.906   5.922  12.090 -0.2227  1.3860 -0.6440
 8955TIP3    H248357   4.915   5.969  12.233 -1.9380  2.2738 -0.8020
 8956TIP3   OH248358   3.085   6.148  15.768  0.7912 -0.1364  0.9547
 8956TIP3    H148359   2.993   6.124  15.754 -0.2773  3.3496  1.2572
 8956TIP3    H248360   3.126   6.135  15.682 -0.3574 -0.1763  0.3949
 8957TIP3   OH248361   4.453   4.506  14.220  0.4793  0.4261 -0.1235
 8957TIP3    H148362   4.459   4.413  14.199  0.2575  0.2002  0.7614
 8957TIP3    H248363   4.361   4.521  14.239  0.1740  1.2633 -2.1105
 8958TIP3   OH248364   0.871   6.030   4.368  0.3484 -0.0802  0.7461
 8958TIP3    H148365   0.818   5.985   4.433 -0.8194 -1.2274 -0.9330
 8958TIP3    H248366   0.854   6.123   4.383  1.0468 -0.2409  2.8071
 8959TIP3   OH248367   0.565   0.631   1.513  0.0043 -0.4276 -0.3567
 8959TIP3    H148368   0.492   0.569   1.502 -0.2338 -0.6133  1.8755
 8959TIP3    H248369   0.541   0.705   1.457 -2.4820 -0.0180  1.0851
 8960TIP3   OH248370   5.526   6.692  13.418 -0.3653 -0.0400  0.0460
 8960TIP3    H148371   5.437   6.696  13.451 -0.2794 -1.5239  0.5088
 8960TIP3    H248372   5.581   6.708  13.495 -0.2008  1.9555 -0.4248
 8961TIP3   OH248373   0.606   3.897  15.364  0.1948  0.0078 -0.0659
 8961TIP3    H148374   0.626   3.878  15.272 -0.0641 -1.6623  0.1948
 8961TIP3    H248375   0.675   3.852  15.413 -0.3284 -0.0740  0.6013
 8962TIP3   OH248376   4.887   4.773  16.786  0.5978 -0.3658  0.3015
 8962TIP3    H148377   4.978   4.777  16.756  0.7500 -2.5850  0.2839
 8962TIP3    H248378   4.857   4.686  16.761 -1.6875  0.4310 -0.0252
 8963TIP3   OH248379   1.207   4.902   5.141 -0.3589  0.0355 -0.0301
 8963TIP3    H148380   1.291   4.862   5.161 -0.7151 -1.7573 -1.7586
 8963TIP3    H248381   1.228   4.989   5.108  0.7358 -0.0291  0.4749
 8964TIP3   OH248382   2.105   1.213   3.107 -0.2855  0.0999  0.2263
 8964TIP3    H148383   2.191   1.257   3.106 -0.7513  1.0792  1.0892
 8964TIP3    H248384   2.053   1.265   3.169 -1.9909  0.4465 -1.4226
 8965TIP3   OH248385   3.789   3.195  10.948  0.2824 -0.3585 -0.3228
 8965TIP3    H148386   3.815   3.109  10.917  0.5027 -0.7207  0.8161
 8965TIP3    H248387   3.864   3.227  10.999 -0.1022  0.1531 -0.0596
 8966TIP3   OH248388   5.355   0.008   3.554 -0.1032  0.1350  0.2712
 8966TIP3    H148389   5.316  -0.070   3.513 -0.5475  0.3334  0.3072
 8966TIP3    H248390   5.373   0.066   3.481 -2.7319  1.3166  0.4650
 8967TIP3   OH248391   5.183   0.110  17.172  0.1438 -0.7165  0.3491
 8967TIP3    H148392   5.095   0.086  17.200  0.4038 -1.5162  0.5123
 8967TIP3    H248393   5.235   0.110  17.252  0.0767  0.8051  0.4072
 8968TIP3   OH248394   3.239   5.936  13.416  0.2740  0.0155 -0.7892
 8968TIP3    H148395   3.215   5.892  13.334 -1.0166 -1.0402  0.1102
 8968TIP3    H248396   3.194   6.020  13.411 -1.2047 -0.7225 -0.4650
 8969TIP3   OH248397   0.952   2.598   1.976  0.3543 -0.3291 -0.2258
 8969TIP3    H148398   1.013   2.524   1.972  0.1176 -0.6266  1.1784
 8969TIP3    H248399   0.982   2.650   2.050  0.3806  0.8798 -1.0649
 8970TIP3   OH248400   1.900   4.277  16.518  0.2579  0.2629 -0.2625
 8970TIP3    H148401   1.987   4.316  16.516  0.4044 -0.0751 -1.7825
 8970TIP3    H248402   1.913   4.191  16.558  0.5754  0.3334 -0.2154
 8971TIP3   OH248403   2.556   4.370   3.918  0.2827  0.0411 -0.2207
 8971TIP3    H148404   2.513   4.290   3.888 -1.0437  1.3778 -2.1470
 8971TIP3    H248405   2.643   4.342   3.945 -0.0881 -2.0308 -0.9832
 8972TIP3   OH248406   1.277   3.861   1.004 -0.3340  0.3580 -0.5779
 8972TIP3    H148407   1.193   3.883   1.043  0.3761 -0.7558  1.7068
 8972TIP3    H248408   1.283   3.919   0.928 -3.2734  0.2377 -1.0250
 8973TIP3   OH248409   5.577   4.328   2.915  0.3909  0.5500 -0.3926
 8973TIP3    H148410   5.603   4.412   2.953  1.3759  0.7094 -1.3488
 8973TIP3    H248411   5.507   4.296   2.972  0.0469  1.9833  0.0276
 8974TIP3   OH248412   0.113   0.834  13.968 -0.7786 -0.2038  0.0227
 8974TIP3    H148413   0.072   0.871  13.890  3.4701  1.9255 -1.4908
 8974TIP3    H248414   0.118   0.907  14.029 -2.9138 -1.5424  1.9409
 8975TIP3   OH248415   3.316   3.257   2.327  0.0319 -0.1731  0.0481
 8975TIP3    H148416   3.237   3.202   2.329 -0.4135  0.4637  0.5267
 8975TIP3    H248417   3.341   3.259   2.234 -2.2348  1.9745 -0.6377
 8976TIP3   OH248418   4.346   6.492  15.558 -0.3183  0.1045  0.0020
 8976TIP3    H148419   4.434   6.507  15.594 -0.0121  2.4056 -1.4743
 8976TIP3    H248420   4.292   6.561  15.596 -1.0508 -0.1727 -0.5057
 8977TIP3   OH248421   5.376   4.186   5.853 -0.5828 -0.2621 -0.5246
 8977TIP3    H148422   5.450   4.224   5.805 -1.4784  0.8752 -1.0430
 8977TIP3    H248423   5.346   4.114   5.797 -0.3972 -0.1974 -0.7083
 8978TIP3   OH248424   0.342   1.306   5.023  0.2516 -0.1142 -0.1245
 8978TIP3    H148425   0.373   1.271   4.940  0.3342 -1.0313  0.2766
 8978TIP3    H248426   0.412   1.287   5.085  0.0345  0.2248  0.2296
 8979TIP3   OH248427   6.270   6.307   6.020 -0.5327  0.3722  0.0462
 8979TIP3    H148428   6.183   6.270   6.036 -0.6160  0.0015 -1.1619
 8979TIP3    H248429   6.270   6.389   6.069 -0.8978 -0.4755  1.5300
 8980TIP3   OH248430   2.041   5.891   4.344 -0.2097 -0.2506 -0.2048
 8980TIP3    H148431   2.046   5.899   4.439  2.1644  0.0313 -0.2781
 8980TIP3    H248432   2.072   5.803   4.325 -0.3710 -0.2016 -0.7196
 8981TIP3   OH248433   1.967   5.875   0.306 -0.1888 -0.6329  0.9144
 8981TIP3    H148434   2.038   5.915   0.256 -1.1412 -1.1824 -0.9567
 8981TIP3    H248435   1.887   5.899   0.259 -1.1373 -1.1858  2.1769
 8982TIP3   OH248436   2.216   0.214  14.352 -0.0739 -0.1110 -0.6369
 8982TIP3    H148437   2.210   0.140  14.412  0.2196 -0.3271 -0.8713
 8982TIP3    H248438   2.308   0.215  14.325  0.2098  1.0545  0.2687
 8983TIP3   OH248439   0.357   5.065  10.601 -0.4613 -0.0590  0.1265
 8983TIP3    H148440   0.446   5.029  10.606 -0.0590  0.8031 -0.6130
 8983TIP3    H248441   0.369   5.156  10.572 -1.5424  0.2761  0.6762
 8984TIP3   OH248442   5.095   5.111  16.980  0.5849  0.0253 -0.4675
 8984TIP3    H148443   5.156   5.183  16.967  0.0178  1.0745  2.1376
 8984TIP3    H248444   5.019   5.150  17.022  0.1288 -2.0367  0.7873
 8985TIP3   OH248445   0.562   6.311   1.684  0.4679 -0.0424 -0.1999
 8985TIP3    H148446   0.635   6.280   1.630 -1.0133 -0.4050 -2.0910
 8985TIP3    H248447   0.500   6.238   1.685 -0.1916  0.5050  0.8075
 8986TIP3   OH248448   3.399   4.434  10.838  0.2421 -0.1042 -0.0478
 8986TIP3    H148449   3.403   4.361  10.900 -1.5898  0.3236  0.6422
 8986TIP3    H248450   3.442   4.506  10.884 -0.8677  0.1355  0.6529
 8987TIP3   OH248451   0.337   3.178   3.813 -0.5683  0.4385  0.3847
 8987TIP3    H148452   0.271   3.116   3.843 -1.1715 -0.1754 -1.9911
 8987TIP3    H248453   0.364   3.145   3.727  2.4396  0.9910  1.0068
 8988TIP3   OH248454   0.979   1.339  11.940  0.2158 -0.1808  0.4358
 8988TIP3    H148455   0.887   1.320  11.921 -0.1101 -0.2998  2.0559
 8988TIP3    H248456   0.995   1.423  11.897 -0.0150 -1.1330 -1.6570
 8989TIP3   OH248457   3.221   1.122   1.597 -0.0236 -0.0309  0.4001
 8989TIP3    H148458   3.314   1.125   1.620 -0.0032  0.6215  0.2231
 8989TIP3    H248459   3.178   1.167   1.670 -0.0614  1.0242 -0.2584
 8990TIP3   OH248460   3.513   3.070  12.464 -0.2331  0.4049 -0.0283
 8990TIP3    H148461   3.602   3.066  12.499  1.8130  0.4219 -4.5295
 8990TIP3    H248462   3.499   3.162  12.443 -1.6399  0.5104  1.2401
 8991TIP3   OH248463   4.070   6.250   2.425 -0.2725  0.5051 -0.2138
 8991TIP3    H148464   4.091   6.180   2.487 -0.7059  0.1780 -0.4297
 8991TIP3    H248465   3.996   6.295   2.465  1.3372  2.2051  0.9753
 8992TIP3   OH248466   1.637   6.505   0.178 -1.0964  0.5558 -0.2252
 8992TIP3    H148467   1.595   6.585   0.210  1.4102  1.2728  1.6343
 8992TIP3    H248468   1.731   6.522   0.190 -0.4753 -2.7246  0.3208
 8993TIP3   OH248469   4.331   1.490   1.797 -0.3172 -0.2345 -0.5356
 8993TIP3    H148470   4.267   1.490   1.868 -0.2173 -1.3301 -0.4345
 8993TIP3    H248471   4.348   1.398   1.780  2.1300  0.0060  0.2320
 8994TIP3   OH248472   2.399   6.564  11.687 -0.0126 -0.0291  0.1102
 8994TIP3    H148473   2.311   6.531  11.704 -0.8852  1.7674 -0.6540
 8994TIP3    H248474   2.450   6.486  11.667 -1.5553 -1.0676  0.0144
 8995TIP3   OH248475   6.579   1.843  14.570  0.0124  0.1502  0.4432
 8995TIP3    H148476   6.484   1.836  14.557 -0.1374  0.7346  1.1612
 8995TIP3    H248477   6.589   1.875  14.660  0.9519 -2.2732  1.2922
 8996TIP3   OH248478   3.263   2.549  12.365  0.2933 -0.0348  0.1430
 8996TIP3    H148479   3.358   2.546  12.353  0.1393 -0.0697 -1.3046
 8996TIP3    H248480   3.240   2.462  12.397  1.0326  0.8319  3.3259
 8997TIP3   OH248481   3.813   1.595   2.903  0.1111 -0.2849  0.3412
 8997TIP3    H148482   3.834   1.628   2.990 -0.2869  0.4361  0.1700
 8997TIP3    H248483   3.845   1.505   2.903  1.4016  0.1457  0.7615
 8998TIP3   OH248484   4.928   2.926   4.345 -0.0476  0.1800  0.2147
 8998TIP3    H148485   4.884   2.980   4.279  0.8022  0.4730 -0.1360
 8998TIP3    H248486   4.951   2.988   4.414 -0.5095 -0.0402  0.5706
 8999TIP3   OH248487   0.762   4.856   1.056 -0.0443 -0.0282  0.5373
 8999TIP3    H148488   0.671   4.885   1.043  0.7786  2.4404 -0.4138
 8999TIP3    H248489   0.770   4.845   1.151 -1.4927 -1.0099  0.5864
 9000TIP3   OH248490   0.046   2.792  12.617 -0.1695 -0.1040 -0.1039
 9000TIP3    H148491   0.128   2.759  12.578  1.2083  0.1797  2.3260
 9000TIP3    H248492   0.045   2.885  12.594 -0.6334 -0.4153 -1.4215
 9001TIP3   OH248493   0.204   4.781  10.484 -0.3175 -0.0030  0.2013
 9001TIP3    H148494   0.158   4.779  10.400 -0.0885  0.3779  0.0612
 9001TIP3    H248495   0.217   4.689  10.507  4.2789 -0.3983 -2.7727
 9002TIP3   OH248496   4.526   6.743   5.685  0.2833  0.3268 -0.2820
 9002TIP3    H148497   4.512   6.832   5.654 -2.0590 -0.1943 -0.8734
 9002TIP3    H248498   4.605   6.714   5.639  0.7311  1.8733 -0.5370
 9003TIP3   OH248499   0.452   3.262  10.646 -0.2746 -0.4190 -0.0066
 9003TIP3    H148500   0.519   3.196  10.662  0.9312  0.9505  0.8665
 9003TIP3    H248501   0.369   3.213  10.650  0.6376 -2.2592 -1.7577
 9004TIP3   OH248502   1.374   6.572  14.131 -0.0700  0.1311 -0.4131
 9004TIP3    H148503   1.427   6.504  14.174 -0.3575  0.9721  1.3875
 9004TIP3    H248504   1.311   6.523  14.078  0.6326 -0.9596 -0.2850
 9005TIP3   OH248505   0.846   1.638  15.693 -0.0348 -0.5797  0.6440
 9005TIP3    H148506   0.876   1.721  15.657 -1.1824 -0.4528 -0.0914
 9005TIP3    H248507   0.923   1.599  15.733  1.3940 -0.7993 -2.1013
 9006TIP3   OH248508   2.873   3.107   4.376  0.3321  0.0277 -0.4094
 9006TIP3    H148509   2.954   3.086   4.330  0.1628  0.9997 -1.1963
 9006TIP3    H248510   2.887   3.076   4.466  1.7115  0.5006 -0.4363
 9007TIP3   OH248511   6.072   2.336  16.350  0.0989  0.2702 -0.0791
 9007TIP3    H148512   6.005   2.274  16.379 -0.1094  0.8088  0.6320
 9007TIP3    H248513   6.102   2.378  16.431  0.4250  0.9032 -0.5205
 9008TIP3   OH248514   0.114   0.390   5.862  0.4601  0.6252  0.0613
 9008TIP3    H148515   0.049   0.451   5.898  1.0376  0.7094  1.0020
 9008TIP3    H248516   0.135   0.426   5.776 -0.3279  0.8977 -0.0296
 9009TIP3   OH248517   5.318   4.444   0.258  0.2854 -0.2140 -0.2396
 9009TIP3    H148518   5.226   4.454   0.236  0.8625  0.7999 -2.4885
 9009TIP3    H248519   5.340   4.522   0.308  0.0697 -0.1965 -0.1718
 9010TIP3   OH248520   5.575   6.469  12.507 -0.2047 -0.0159 -0.0572
 9010TIP3    H148521   5.502   6.479  12.446  0.4236  0.0349 -0.8286
 9010TIP3    H248522   5.535   6.467  12.593 -1.1456 -0.3920 -0.4922
 9011TIP3   OH248523   3.538   5.616   0.231 -0.5162 -0.1750 -0.3758
 9011TIP3    H148524   3.465   5.675   0.251 -0.9020 -0.6326 -0.4224
 9011TIP3    H248525   3.529   5.599   0.137  0.8804  1.4153 -0.8415
 9012TIP3   OH248526   2.516   2.328  13.222 -0.2140 -0.1807  0.6289
 9012TIP3    H148527   2.507   2.235  13.203  0.8464 -0.5893  1.9557
 9012TIP3    H248528   2.476   2.338  13.308 -0.3315  0.5960  0.4862
 9013TIP3   OH248529   1.528   1.046   1.860 -0.0773 -0.4365  0.0866
 9013TIP3    H148530   1.556   1.114   1.799  2.5712 -0.6072  0.9705
 9013TIP3    H248531   1.446   1.013   1.824 -1.5208  3.1741 -0.3726
 9014TIP3   OH248532   3.398   0.331   3.844  0.0799 -0.1282 -0.6366
 9014TIP3    H148533   3.364   0.312   3.757 -0.9959  0.4690 -0.3588
 9014TIP3    H248534   3.322   0.357   3.895  0.3700 -2.1890  1.0111
 9015TIP3   OH248535   6.281   0.598   0.997 -0.0405 -0.3801  0.7598
 9015TIP3    H148536   6.354   0.657   0.979  1.3765 -1.7516  1.7772
 9015TIP3    H248537   6.204   0.642   0.960  1.5853  0.0849 -2.3744
 9016TIP3   OH248538   5.320   2.432  16.331 -0.1169  0.0156 -0.0339
 9016TIP3    H148539   5.268   2.480  16.396  0.2039 -1.3330  1.2771
 9016TIP3    H248540   5.274   2.445  16.249 -1.5135  0.3433  0.7683
 9017TIP3   OH248541   5.208   0.165   2.411 -0.8189  0.4233  0.5891
 9017TIP3    H148542   5.164   0.087   2.376 -0.4338  0.6594 -0.4430
 9017TIP3    H248543   5.200   0.231   2.343  0.2721  0.7838  0.7831
 9018TIP3   OH248544   1.295   5.111   4.395  0.5968  0.0164  0.1335
 9018TIP3    H148545   1.373   5.066   4.428  0.3250  0.0982  0.9141
 9018TIP3    H248546   1.233   5.041   4.374  0.7587 -0.0344 -0.1870
 9019TIP3   OH248547   3.504   3.338  12.487  0.1017 -0.2605  0.6742
 9019TIP3    H148548   3.573   3.393  12.448  1.2665 -0.9541  1.7117
 9019TIP3    H248549   3.422   3.375  12.453  0.8910  1.6017  0.6937
 9020TIP3   OH248550   2.922   1.093  10.766  0.4088  0.1564  0.4538
 9020TIP3    H148551   2.985   1.024  10.745  2.1639  2.0875 -1.0225
 9020TIP3    H248552   2.860   1.092  10.693  0.3601  0.0557  0.4968
 9021TIP3   OH248553   4.846   1.366   0.717 -0.1294 -0.5525  0.3475
 9021TIP3    H148554   4.911   1.335   0.780 -0.1121 -1.0773  0.0693
 9021TIP3    H248555   4.770   1.310   0.731  0.0206 -0.9494 -0.3900
 9022TIP3   OH248556   0.846   2.527  13.181 -0.2409  0.8247 -0.3095
 9022TIP3    H148557   0.775   2.505  13.121 -0.4658 -0.0806  0.2631
 9022TIP3    H248558   0.807   2.520  13.268  0.7355 -0.4653  0.0528
 9023TIP3   OH248559   1.914   6.726  16.920 -0.2235 -0.0265 -0.2258
 9023TIP3    H148560   1.897   6.632  16.921 -1.7189  0.2081 -0.8291
 9023TIP3    H248561   1.861   6.761  16.991 -2.5001  0.7291 -2.1738
 9024TIP3   OH248562   1.637   5.291  11.135 -0.1174  0.4953 -0.1611
 9024TIP3    H148563   1.602   5.258  11.218 -1.7725  0.7395 -0.7129
 9024TIP3    H248564   1.692   5.220  11.102 -1.4480 -0.6518 -0.0249
 9025TIP3   OH248565   6.113   3.924   4.933 -0.3704  0.2073 -0.2155
 9025TIP3    H148566   6.070   3.853   4.981 -2.1129  1.9573  1.0198
 9025TIP3    H248567   6.068   3.927   4.849  1.2719 -1.5348 -1.2305
 9026TIP3   OH248568   2.386   4.214  12.564  0.0787 -0.0438  0.4050
 9026TIP3    H148569   2.375   4.215  12.469  1.2244 -2.0513  0.1786
 9026TIP3    H248570   2.479   4.232  12.578 -0.2214  0.9560  1.2057
 9027TIP3   OH248571   6.204   0.626  17.128 -0.4864 -0.4856 -0.4052
 9027TIP3    H148572   6.163   0.660  17.048 -0.3650 -3.4306 -1.8411
 9027TIP3    H248573   6.130   0.602  17.183 -0.5856  2.3034  0.8669
 9028TIP3   OH248574   5.997   0.191  11.737 -0.1598  0.1662  0.0049
 9028TIP3    H148575   5.921   0.156  11.783 -0.6282  0.9820 -0.1289
 9028TIP3    H248576   5.976   0.283  11.722  0.1977  0.0569 -1.3802
 9029TIP3   OH248577   1.271   4.235   0.374 -0.1217  0.6393  0.6336
 9029TIP3    H148578   1.307   4.279   0.297 -0.6967  0.2695  0.1460
 9029TIP3    H248579   1.331   4.163   0.391  0.3764  1.1216  0.9433
 9030TIP3   OH248580   2.418   1.216   2.885 -0.3116  0.5353 -0.2625
 9030TIP3    H148581   2.373   1.254   2.961  0.2133  2.3921 -0.8471
 9030TIP3    H248582   2.372   1.133   2.870 -0.1804 -0.0913  2.2998
 9031TIP3   OH248583   4.901   0.555   1.301  0.1071 -0.6710  0.1860
 9031TIP3    H148584   4.817   0.509   1.298 -0.3794  0.2235 -0.3306
 9031TIP3    H248585   4.902   0.608   1.221  0.1349  1.0908  1.3114
 9032TIP3   OH248586   4.585   2.103  14.848  0.0368 -0.3925  0.5875
 9032TIP3    H148587   4.553   2.101  14.938 -0.7417  1.3308  0.3838
 9032TIP3    H248588   4.674   2.138  14.855 -0.7093  1.6403  0.5676
 9033TIP3   OH248589   0.500   6.485   2.114 -0.2831 -0.3422 -0.2488
 9033TIP3    H148590   0.586   6.526   2.120 -0.2773 -0.4875  0.6900
 9033TIP3    H248591   0.457   6.531   2.042  1.0864 -1.2146 -1.7103
 9034TIP3   OH248592   0.908   1.475   4.974 -0.3988  0.6168  0.5525
 9034TIP3    H148593   0.975   1.450   5.037 -1.8553  0.7396  2.2003
 9034TIP3    H248594   0.925   1.418   4.898  0.2778 -0.8265  1.7319
 9035TIP3   OH248595   2.289   0.666  13.553  0.1110  0.1328 -0.1298
 9035TIP3    H148596   2.217   0.607  13.573  0.8676 -0.5645  0.6519
 9035TIP3    H248597   2.361   0.608  13.526  0.3441  0.8166 -1.0352
 9036TIP3   OH248598   1.808   2.055   4.741 -0.7555 -0.0893 -0.0073
 9036TIP3    H148599   1.713   2.049   4.731 -0.7480  0.5329 -0.5221
 9036TIP3    H248600   1.822   2.060   4.836 -1.0388 -3.0472  0.3026
 9037TIP3   OH248601   0.352   2.208   2.348 -0.6290 -0.3663 -0.1083
 9037TIP3    H148602   0.336   2.130   2.402  0.1898  1.0517  2.3630
 9037TIP3    H248603   0.444   2.200   2.321 -0.7959 -0.6671 -0.5949
 9038TIP3   OH248604   3.014   4.469   6.005  0.1451  0.3177 -0.0603
 9038TIP3    H148605   2.989   4.412   5.932  0.7788  1.0052 -0.8361
 9038TIP3    H248606   2.940   4.529   6.015 -0.9805 -1.2196  1.4272
 9039TIP3   OH248607   2.264   5.134   2.032 -0.3005  0.3116 -0.1168
 9039TIP3    H148608   2.309   5.209   2.072 -0.7173  0.3265  0.3385
 9039TIP3    H248609   2.181   5.129   2.079 -0.3412 -0.3394 -0.2548
 9040TIP3   OH248610   3.857   6.683  14.563  0.5800  0.2953  0.5422
 9040TIP3    H148611   3.829   6.771  14.589 -0.5620 -0.1771  0.9947
 9040TIP3    H248612   3.934   6.697  14.509 -0.9167  1.7438 -1.3804
 9041TIP3   OH248613   1.744   3.052   1.332  0.1723 -0.1887 -0.5980
 9041TIP3    H148614   1.832   3.071   1.366  0.4185 -0.9073 -0.8248
 9041TIP3    H248615   1.685   3.094   1.395  0.6398 -1.0773  0.4769
 9042TIP3   OH248616   1.753   5.758   4.273 -0.0756  0.1812 -0.5586
 9042TIP3    H148617   1.802   5.802   4.205  2.9356 -1.4859  0.3361
 9042TIP3    H248618   1.756   5.817   4.348  1.0882 -0.1095 -0.3593
 9043TIP3   OH248619   0.377   0.680   5.212  0.3310 -0.2000 -0.4529
 9043TIP3    H148620   0.413   0.763   5.243 -0.2120  0.2480 -0.9787
 9043TIP3    H248621   0.427   0.613   5.258 -0.3015  0.4194  1.2502
 9044TIP3   OH248622   6.008   2.829   4.066 -0.2989 -0.7551 -0.2912
 9044TIP3    H148623   5.937   2.829   4.002 -0.4714 -0.8429 -0.1000
 9044TIP3    H248624   5.964   2.837   4.150  0.0023  0.7873 -0.2609
 9045TIP3   OH248625   2.861   3.317   0.539 -0.1526 -0.1322  0.3245
 9045TIP3    H148626   2.862   3.249   0.606  1.2259  0.1756  0.6525
 9045TIP3    H248627   2.922   3.286   0.472 -1.0424 -0.1457 -0.5067
 9046TIP3   OH248628   0.924   4.191   2.397 -0.2199 -0.4602  0.7806
 9046TIP3    H148629   0.895   4.275   2.432 -0.3898 -1.0972  2.2318
 9046TIP3    H248630   0.847   4.135   2.404 -0.3910 -0.5146 -1.0548
 9047TIP3   OH248631   4.198   4.422  14.294  0.4824 -0.3269 -0.4264
 9047TIP3    H148632   4.126   4.427  14.232 -0.7167 -1.1194  0.8469
 9047TIP3    H248633   4.238   4.336  14.278  0.0725 -0.5982  0.0026
 9048TIP3   OH248634   4.815   3.438   0.383 -0.1140  0.0839  0.3287
 9048TIP3    H148635   4.780   3.497   0.450  0.6070  2.1166 -0.9764
 9048TIP3    H248636   4.738   3.398   0.343 -0.5508 -1.3762  2.4490
 9049TIP3   OH248637   0.162   6.452   6.435 -0.2964  0.3049  0.9513
 9049TIP3    H148638   0.217   6.527   6.459  0.1610  0.2373  0.1535
 9049TIP3    H248639   0.214   6.375   6.459 -0.3363  0.2413  0.8354
 9050TIP3   OH248640   4.603   3.774  14.167  0.0746 -0.1056  0.3624
 9050TIP3    H148641   4.597   3.689  14.123  0.1111  0.8140 -1.5190
 9050TIP3    H248642   4.663   3.759  14.241  0.8474 -1.4802 -0.5086
 9051TIP3   OH248643   4.287   4.609  11.845 -0.3376  0.1691 -0.8744
 9051TIP3    H148644   4.233   4.688  11.857  1.4301  1.1889  0.9264
 9051TIP3    H248645   4.377   4.640  11.854  0.3951 -2.1486  0.5340
 9052TIP3   OH248646   2.828   1.602   4.615 -0.0831  0.3136 -0.1879
 9052TIP3    H148647   2.893   1.611   4.685  0.5294  0.1026 -0.7205
 9052TIP3    H248648   2.879   1.610   4.534  0.0116 -3.6768 -0.7532
 9053TIP3   OH248649   5.238   2.169  14.369 -0.2280  0.0594 -0.1919
 9053TIP3    H148650   5.230   2.077  14.344 -2.1044  0.0781  0.1799
 9053TIP3    H248651   5.236   2.216  14.285 -0.5669 -0.1707 -0.3139
 9054TIP3   OH248652   2.088   3.248   0.957  0.0048 -0.7819  0.0114
 9054TIP3    H148653   2.021   3.250   1.025  0.3919  1.9027  0.4014
 9054TIP3    H248654   2.163   3.206   0.999 -0.7386 -2.0275  0.1741
 9055TIP3   OH248655   0.311   5.705   0.399  0.7740 -0.1024 -0.3494
 9055TIP3    H148656   0.365   5.780   0.375  1.3950 -0.7059 -0.8706
 9055TIP3    H248657   0.363   5.658   0.464  0.5767 -0.3083 -0.3393
 9056TIP3   OH248658   1.141   6.672  12.788  0.2751 -0.0934  0.6862
 9056TIP3    H148659   1.217   6.680  12.846  1.9134 -0.7844 -1.2302
 9056TIP3    H248660   1.159   6.734  12.717 -0.4506 -0.9781 -0.2994
 9057TIP3   OH248661   1.260   2.902  12.891  0.0110 -0.3928  0.1884
 9057TIP3    H148662   1.166   2.915  12.897 -0.4618 -2.0873 -1.9756
 9057TIP3    H248663   1.289   2.888  12.981 -2.1572 -1.8056  0.7362
 9058TIP3   OH248664   1.488   0.866  16.805 -0.3498 -0.3939 -0.4665
 9058TIP3    H148665   1.490   0.773  16.782 -3.6091 -0.6970  0.0819
 9058TIP3    H248666   1.479   0.911  16.721  0.6569 -0.5737 -0.6865
 9059TIP3   OH248667   3.601   4.242   2.762 -0.4988  0.2219  0.4817
 9059TIP3    H148668   3.599   4.174   2.695  1.9511  1.0708 -0.5970
 9059TIP3    H248669   3.681   4.225   2.811  0.3933  2.4858 -0.0737
 9060TIP3   OH248670   6.058   2.847   1.000 -0.9362 -0.0529 -0.4156
 9060TIP3    H148671   5.969   2.875   0.979 -0.4184  1.4863 -0.6304
 9060TIP3    H248672   6.061   2.846   1.095 -1.6120 -1.6083 -0.3762
 9061TIP3   OH248673   6.501   4.283   2.348 -0.1312 -0.2198  0.2109
 9061TIP3    H148674   6.518   4.244   2.262  0.5775 -1.5374  0.9127
 9061TIP3    H248675   6.411   4.256   2.369 -0.8551  1.3435 -0.7219
 9062TIP3   OH248676   1.864   4.588   5.942  0.0635 -0.3150  0.1219
 9062TIP3    H148677   1.795   4.571   5.878  0.1553  0.6196 -0.2432
 9062TIP3    H248678   1.915   4.659   5.903  1.4138 -1.1888  0.2467
 9063TIP3   OH248679   3.537   4.916   2.131 -0.0467  0.1446  0.0971
 9063TIP3    H148680   3.464   4.856   2.114 -0.2686  0.3791  0.2109
 9063TIP3    H248681   3.597   4.903   2.057 -0.6333  0.5895 -0.4716
 9064TIP3   OH248682   3.481   0.466  14.200 -0.0442  0.5968 -0.8316
 9064TIP3    H148683   3.394   0.455  14.162 -1.0239  1.6434  1.0038
 9064TIP3    H248684   3.487   0.559  14.222  0.5391  0.1187  1.3030
 9065TIP3   OH248685   0.156   1.351  16.964 -0.1903 -0.2590  0.0415
 9065TIP3    H148686   0.206   1.290  17.018  0.1481 -0.4795 -0.5066
 9065TIP3    H248687   0.080   1.300  16.934 -1.3102  0.3734  1.6925
 9066TIP3   OH248688   5.599   3.038  11.157  0.7847  0.1380 -0.2159
 9066TIP3    H148689   5.581   3.011  11.247  0.6564 -0.8979 -0.5413
 9066TIP3    H248690   5.668   3.103  11.165  0.7040  0.1302  0.6377
 9067TIP3   OH248691   6.482   5.329  14.204  0.3671  0.1776  0.6276
 9067TIP3    H148692   6.546   5.266  14.173 -1.3758 -0.9433 -0.9253
 9067TIP3    H248693   6.533   5.400  14.241  2.4363 -1.6314  1.4462
 9068TIP3   OH248694   4.125   3.326   4.978  0.9393 -0.2583 -0.1678
 9068TIP3    H148695   4.103   3.305   5.069 -0.3417  0.1773 -0.3610
 9068TIP3    H248696   4.041   3.331   4.933  1.5435 -0.2801 -1.3513
 9069TIP3   OH248697   6.477   3.491   0.726  0.0573  0.2384  0.1857
 9069TIP3    H148698   6.402   3.514   0.780 -0.8535  1.8222 -1.6559
 9069TIP3    H248699   6.444   3.422   0.667  1.0257 -1.4407  1.5235
 9070TIP3   OH248700   4.737   0.745   1.532 -0.0307  0.1388  0.4232
 9070TIP3    H148701   4.778   0.794   1.460  0.4699 -0.3224  0.3948
 9070TIP3    H248702   4.643   0.760   1.520  0.1323  1.8859  0.9647
 9071TIP3   OH248703   3.569   1.972  16.321  0.3937  0.1645  0.3477
 9071TIP3    H148704   3.570   1.887  16.277 -3.7907  1.1974 -2.3660
 9071TIP3    H248705   3.642   2.020  16.283  1.4510 -1.4501  0.2588
 9072TIP3   OH248706   3.614   4.283   3.919 -0.1124  0.7906 -0.0942
 9072TIP3    H148707   3.641   4.200   3.958  0.0776  0.3217 -1.1689
 9072TIP3    H248708   3.520   4.289   3.938 -0.1598  0.2503 -0.1357
 9073TIP3   OH248709   5.203   1.068  15.954 -0.0973  0.3789  0.2692
 9073TIP3    H148710   5.219   1.156  15.922  0.8651 -0.0433 -0.4781
 9073TIP3    H248711   5.125   1.076  16.010  0.2165  1.7540  0.5416
 9074TIP3   OH248712   0.195   1.247   3.083  0.4985  0.0475  0.0644
 9074TIP3    H148713   0.240   1.293   3.012  0.0019  0.4609  0.0101
 9074TIP3    H248714   0.259   1.183   3.114  1.4121  1.1235  0.4954
 9075TIP3   OH248715   4.053   3.503   1.943 -0.7273 -0.2647  0.4834
 9075TIP3    H148716   4.100   3.586   1.935  0.3615 -0.9977 -1.3614
 9075TIP3    H248717   4.027   3.499   2.035  1.8983  0.7099  1.3577
 9076TIP3   OH248718   1.253   3.081  16.371 -0.1209  0.1344  0.5827
 9076TIP3    H148719   1.211   3.150  16.422 -0.1378  0.5109  0.0732
 9076TIP3    H248720   1.277   3.014  16.435 -1.7417 -0.2201  0.8464
 9077TIP3   OH248721   5.582   3.731   5.519  0.2064 -0.2274 -0.3232
 9077TIP3    H148722   5.506   3.741   5.462  1.0153 -0.2147 -1.4263
 9077TIP3    H248723   5.656   3.755   5.465  1.2584 -2.5425 -0.0434
 9078TIP3   OH248724   2.298   1.888   4.831  0.2964  0.0072 -0.0989
 9078TIP3    H148725   2.348   1.903   4.750 -1.3482 -1.9094 -1.5516
 9078TIP3    H248726   2.262   1.974   4.852  0.7127  0.5451 -1.4200
 9079TIP3   OH248727   0.996   2.574   1.060  0.0214  0.0782 -0.7277
 9079TIP3    H148728   1.076   2.582   1.112  0.2482 -0.5108 -0.9739
 9079TIP3    H248729   0.965   2.485   1.077 -1.7982  0.9834  1.0734
 9080TIP3   OH248730   2.135   4.995  10.835 -0.0232  0.0292  0.1583
 9080TIP3    H148731   2.214   5.048  10.831 -0.0008 -0.0951 -1.4334
 9080TIP3    H248732   2.144   4.946  10.917  0.9903  0.8430  0.5641
 9081TIP3   OH248733   4.019   4.775   6.333  0.5550  0.9227 -0.2114
 9081TIP3    H148734   3.970   4.824   6.400 -0.3831 -0.4207  0.1101
 9081TIP3    H248735   3.953   4.724   6.287  1.7066 -1.8837  1.0167
 9082TIP3   OH248736   0.733   2.611  13.449 -0.5665 -0.2414 -0.4118
 9082TIP3    H148737   0.658   2.651  13.406 -0.7094 -0.5066 -0.4142
 9082TIP3    H248738   0.726   2.638  13.541  0.1181  0.8824 -0.6777
 9083TIP3   OH248739   0.780   0.238   0.429 -0.1757  0.3049 -0.5767
 9083TIP3    H148740   0.766   0.195   0.344  0.3963 -1.7415  0.2971
 9083TIP3    H248741   0.727   0.317   0.425 -0.9406 -0.2452 -2.4701
 9084TIP3   OH248742   2.394   1.256   2.474 -0.2150 -0.1327 -0.1503
 9084TIP3    H148743   2.317   1.286   2.524  0.0562  0.8305 -0.3028
 9084TIP3    H248744   2.436   1.336   2.443  0.3095 -0.6862 -0.9064
 9085TIP3   OH248745   6.259   1.141  13.254  0.4222  0.3632 -0.7023
 9085TIP3    H148746   6.266   1.050  13.224 -0.9728  0.3016 -0.9320
 9085TIP3    H248747   6.185   1.140  13.315  1.0145  1.1660  0.0397
 9086TIP3   OH248748   2.894   3.060   2.697 -0.4124  0.0949 -0.2688
 9086TIP3    H148749   2.873   3.152   2.715  0.2466  0.1391  0.2792
 9086TIP3    H248750   2.808   3.017   2.690 -0.7161  0.6540 -0.0213
 9087TIP3   OH248751   4.669   3.955  15.587 -0.0966  0.0200  0.0710
 9087TIP3    H148752   4.635   3.888  15.647  1.2336 -1.7642 -1.0483
 9087TIP3    H248753   4.749   3.987  15.629 -1.7299  2.4414  1.5445
 9088TIP3   OH248754   0.571   3.437   2.588  0.4010 -0.3779 -0.1298
 9088TIP3    H148755   0.477   3.453   2.589  0.5200  0.3173  1.0104
 9088TIP3    H248756   0.595   3.443   2.495 -0.2857  1.8633 -0.2138
 9089TIP3   OH248757   3.271   4.798  11.860  0.3428 -0.7276  0.2507
 9089TIP3    H148758   3.211   4.734  11.821  2.5116 -2.3835 -0.5552
 9089TIP3    H248759   3.302   4.756  11.940  0.9925 -0.2030  0.2816
 9090TIP3   OH248760   6.313   1.899   2.761 -0.1126  0.2727  0.1010
 9090TIP3    H148761   6.352   1.840   2.697  0.5129  1.4058 -0.5878
 9090TIP3    H248762   6.378   1.968   2.773 -1.6392  1.9425 -0.6933
 9091TIP3   OH248763   3.312   4.749   2.145  0.3285  0.0484 -0.4878
 9091TIP3    H148764   3.338   4.697   2.069 -0.2278 -0.0567 -0.6063
 9091TIP3    H248765   3.221   4.726   2.160  0.2059  0.6564 -0.2667
 9092TIP3   OH248766   1.427   1.266  11.159  0.0920 -0.0275 -0.7641
 9092TIP3    H148767   1.478   1.321  11.100  0.2730  0.3029 -0.3016
 9092TIP3    H248768   1.349   1.243  11.109  1.1514 -1.3972 -1.8831
 9093TIP3   OH248769   4.072   3.927   1.738 -0.4045  0.0285  0.2455
 9093TIP3    H148770   4.088   3.836   1.713 -0.1567  0.0133  0.4530
 9093TIP3    H248771   4.018   3.962   1.668 -0.8440 -0.3950  0.3620
 9094TIP3   OH248772   4.450   4.739   5.956 -0.2641 -0.1964 -0.6264
 9094TIP3    H148773   4.384   4.670   5.961 -0.0116 -0.4372 -0.6016
 9094TIP3    H248774   4.488   4.743   6.043 -0.2364 -0.0631 -0.6435
 9095TIP3   OH248775   6.098   4.763   4.088  0.3907  0.8399  0.0262
 9095TIP3    H148776   6.013   4.800   4.063  0.4510  1.6896  0.9970
 9095TIP3    H248777   6.120   4.704   4.016 -0.5263  1.4041 -0.7532
 9096TIP3   OH248778   4.911   6.255  16.783  0.9707  0.3875 -0.1036
 9096TIP3    H148779   4.976   6.186  16.796  1.9420  1.1716 -0.6926
 9096TIP3    H248780   4.943   6.328  16.836  0.1741  0.5343  0.1840
 9097TIP3   OH248781   1.619   4.718   0.295  0.1640  0.0327  0.2151
 9097TIP3    H148782   1.676   4.791   0.273 -0.4935  0.8623  1.1716
 9097TIP3    H248783   1.672   4.640   0.278  1.0671  0.7364 -0.2862
 9098TIP3   OH248784   2.195   5.729   1.524  0.2853 -0.7029 -0.0135
 9098TIP3    H148785   2.108   5.698   1.499 -1.1901  0.9704  2.5566
 9098TIP3    H248786   2.212   5.803   1.466 -1.6704  1.1481  1.5790
 9099TIP3   OH248787   0.652   0.673   5.700 -0.7232 -0.9939 -1.3067
 9099TIP3    H148788   0.723   0.647   5.759 -1.0151  0.2285 -0.3761
 9099TIP3    H248789   0.572   0.656   5.750 -0.9899 -0.2590 -1.4703
 9100TIP3   OH248790   1.579   1.159   3.146  0.6103 -0.0061 -0.2094
 9100TIP3    H148791   1.605   1.071   3.175  1.4274 -0.0515 -1.0427
 9100TIP3    H248792   1.494   1.147   3.105  0.2190 -0.2226  0.6608
 9101TIP3   OH248793   2.142   4.823   0.557 -1.0927  0.9556  0.7380
 9101TIP3    H148794   2.131   4.917   0.565 -0.7036  0.9224  1.9706
 9101TIP3    H248795   2.064   4.785   0.598 -1.2214  0.7489  0.3016
 9102TIP3   OH248796   5.079   2.211   1.405  0.0988 -0.3959  0.3646
 9102TIP3    H148797   5.007   2.203   1.467 -0.7060 -0.4962 -0.5502
 9102TIP3    H248798   5.087   2.124   1.366  1.2741 -0.6084  1.0395
 9103TIP3   OH248799   3.206   1.739  14.799 -0.2854 -0.2281 -0.7393
 9103TIP3    H148800   3.204   1.647  14.824  1.1035 -0.9854 -3.0361
 9103TIP3    H248801   3.117   1.757  14.770 -0.5420 -0.8843 -0.3957
 9104TIP3   OH248802   4.228   6.677  15.087  0.3771  0.3575 -0.6687
 9104TIP3    H148803   4.261   6.749  15.033  1.8381 -0.6926 -1.2381
 9104TIP3    H248804   4.270   6.690  15.172 -0.0477  0.6672 -0.5057
 9105TIP3   OH248805   1.127   5.416  12.061  0.5299  0.7780  0.3211
 9105TIP3    H148806   1.036   5.394  12.042  0.6817  0.1915  0.2764
 9105TIP3    H248807   1.122   5.499  12.109  0.0819  1.7707 -1.3837
 9106TIP3   OH248808   5.552   1.600   3.557  0.0460 -0.1049 -0.6521
 9106TIP3    H148809   5.638   1.640   3.570  0.4638 -1.0219 -0.5211
 9106TIP3    H248810   5.492   1.674   3.553  0.7414  0.5223  0.0281
 9107TIP3   OH248811   6.333   4.714   6.192  0.4428  0.9003  0.4993
 9107TIP3    H148812   6.313   4.621   6.180 -2.2211  0.9723  3.2308
 9107TIP3    H248813   6.409   4.716   6.249  3.1189  0.5845 -2.7238
 9108TIP3   OH248814   2.883   5.443   5.923  0.1705  0.0816  0.5996
 9108TIP3    H148815   2.970   5.430   5.961 -0.3755 -1.5209  1.3791
 9108TIP3    H248816   2.870   5.538   5.924  2.1227  0.3956 -0.0787
 9109TIP3   OH248817   0.983   1.777  12.612  0.4016  0.0893 -0.0206
 9109TIP3    H148818   0.956   1.715  12.545 -1.2088  0.4779  0.2280
 9109TIP3    H248819   1.067   1.811  12.581  0.9060 -1.5522 -0.5827
 9110TIP3   OH248820   1.782   0.034   2.761  0.2376 -0.4649  0.3263
 9110TIP3    H148821   1.855   0.039   2.700  2.1089  0.5519  2.5019
 9110TIP3    H248822   1.751   0.125   2.769  1.0332 -0.2892  1.9538
 9111TIP3   OH248823   3.488   2.421   2.325 -0.0652  0.9297 -0.2483
 9111TIP3    H148824   3.578   2.392   2.315 -0.2182  0.2408  0.2267
 9111TIP3    H248825   3.493   2.516   2.332  0.5533  0.9449 -0.9069
 9112TIP3   OH248826   0.270   1.680   3.543 -1.1026  0.0546 -0.3039
 9112TIP3    H148827   0.355   1.645   3.519 -1.1259 -0.5821  0.4967
 9112TIP3    H248828   0.246   1.738   3.471  0.4272  0.9843 -0.1178
 9113TIP3   OH248829   2.401   2.298   4.894 -0.3528 -0.7764  0.4156
 9113TIP3    H148830   2.394   2.391   4.918 -1.7125 -0.7389 -0.0158
 9113TIP3    H248831   2.480   2.268   4.938  1.2960  1.0768 -1.0949
 9114TIP3   OH248832   0.301   3.605   0.621  0.1566  0.9737 -0.1507
 9114TIP3    H148833   0.236   3.655   0.671 -0.3846 -0.5358  0.6918
 9114TIP3    H248834   0.273   3.514   0.629  1.8024  0.3926 -0.6616
 9115TIP3   OH248835   6.506   1.339   5.543  0.1653 -0.0888 -0.5568
 9115TIP3    H148836   6.414   1.335   5.519  0.0758 -0.6224 -0.1435
 9115TIP3    H248837   6.550   1.284   5.478  0.3032  0.7658 -1.2134
 9116TIP3   OH248838   6.804   1.454  15.629  0.3803 -0.6837 -0.1237
 9116TIP3    H148839   6.714   1.487  15.621  0.4746 -0.2997  0.3756
 9116TIP3    H248840   6.799   1.364  15.596  0.1185 -0.1941 -1.5271
 9117TIP3   OH248841   4.678   5.728  16.431 -0.0060 -0.7243  0.2119
 9117TIP3    H148842   4.769   5.703  16.416 -0.4334 -2.6477  0.5878
 9117TIP3    H248843   4.637   5.649  16.466 -1.8325  0.1049  0.0315
 9118TIP3   OH248844   6.470   2.825   3.433 -0.1251  0.1045 -0.4924
 9118TIP3    H148845   6.555   2.797   3.467 -0.4937 -1.8109 -1.0186
 9118TIP3    H248846   6.454   2.909   3.475  1.0062 -0.5423  1.3439
 9119TIP3   OH248847   1.378   4.389   4.906  0.5642 -0.3251 -0.5069
 9119TIP3    H148848   1.446   4.445   4.869 -0.6160  1.1497 -0.5441
 9119TIP3    H248849   1.317   4.375   4.834 -1.3197  1.8761  0.5546
 9120TIP3   OH248850   6.041   0.442  14.414 -0.1078  0.1065  0.1126
 9120TIP3    H148851   5.982   0.369  14.434  0.4277 -0.5297 -0.5624
 9120TIP3    H248852   6.021   0.465  14.324  3.0135 -2.4845 -1.4493
 9121TIP3   OH248853   1.119   3.772  11.383  0.5832  0.6207 -0.1340
 9121TIP3    H148854   1.082   3.837  11.323  0.5956  1.6555  0.9478
 9121TIP3    H248855   1.080   3.689  11.355 -0.0650  1.2046 -1.0352
 9122TIP3   OH248856   2.290   1.301  11.403  0.1103 -0.6712 -0.2931
 9122TIP3    H148857   2.385   1.308  11.412 -0.1163 -0.0227  2.3204
 9122TIP3    H248858   2.256   1.386  11.432 -1.3176 -1.3699  0.2057
 9123TIP3   OH248859   5.575   2.726   1.319  0.2026  0.8400  0.0789
 9123TIP3    H148860   5.498   2.751   1.370 -0.9775 -0.2549 -1.0836
 9123TIP3    H248861   5.571   2.630   1.315  1.6897  0.7535  0.0656
 9124TIP3   OH248862   2.646   0.294   2.166  0.3296 -0.1716  0.1543
 9124TIP3    H148863   2.631   0.254   2.251 -2.5619  0.8499  0.2298
 9124TIP3    H248864   2.608   0.233   2.103  2.0689 -0.7183 -0.4120
 9125TIP3   OH248865   5.877   6.532   5.525  0.4625 -0.0728 -0.1976
 9125TIP3    H148866   5.867   6.438   5.510  1.6126 -0.2272 -0.0642
 9125TIP3    H248867   5.789   6.562   5.546  0.1248 -1.1629  0.0026
 9126TIP3   OH248868   6.369   4.282   5.972  0.6241  0.2735  0.5610
 9126TIP3    H148869   6.425   4.212   6.006  0.6054 -0.2217 -0.3828
 9126TIP3    H248870   6.333   4.246   5.891 -0.1108  1.0416  0.5394
 9127TIP3   OH248871   3.338   6.619   4.674  0.3364  0.0953 -0.8742
 9127TIP3    H148872   3.317   6.574   4.592  1.0772  0.5066 -1.3091
 9127TIP3    H248873   3.379   6.552   4.729  2.1241  0.3543 -1.7965
 9128TIP3   OH248874   1.640   6.782   4.098 -0.3535 -0.0590  0.2141
 9128TIP3    H148875   1.657   6.804   4.189  0.8185  0.5854 -0.1385
 9128TIP3    H248876   1.719   6.736   4.069 -0.5883  0.0092 -0.5603
 9129TIP3   OH248877   4.426   5.289  14.012  0.4449  0.0680  0.6658
 9129TIP3    H148878   4.360   5.253  13.954  0.1051  0.2473  0.9355
 9129TIP3    H248879   4.384   5.291  14.098  1.0770 -0.5736  1.0006
 9130TIP3   OH248880   2.581   3.046  16.439 -0.3802 -0.2770 -0.0936
 9130TIP3    H148881   2.657   3.014  16.392  0.1135 -0.6579  0.9324
 9130TIP3    H248882   2.595   3.020  16.530 -1.8279 -0.5390  0.0904
 9131TIP3   OH248883   3.188   6.342   3.546 -0.2722 -0.5342 -0.3789
 9131TIP3    H148884   3.097   6.367   3.534 -0.6507 -1.2426  0.8880
 9131TIP3    H248885   3.199   6.335   3.640  2.0204  2.9656 -0.1978
 9132TIP3   OH248886   6.432   4.668  13.962  0.2634 -0.2597  0.4556
 9132TIP3    H148887   6.488   4.593  13.984  1.6222  0.5122 -0.2057
 9132TIP3    H248888   6.424   4.664  13.867  0.8981  0.7844  0.3448
 9133TIP3   OH248889   6.435   6.061  13.991  0.6094  0.3223  0.2951
 9133TIP3    H148890   6.404   6.140  14.036  0.6700  0.3982  0.2010
 9133TIP3    H248891   6.383   5.991  14.030  1.9219  0.1362  1.7886
 9134TIP3   OH248892   6.628   0.312   3.975 -0.5574 -0.0451 -0.3016
 9134TIP3    H148893   6.597   0.243   3.916 -1.6360  0.6065 -0.5417
 9134TIP3    H248894   6.677   0.266   4.042 -1.7813 -1.1396 -0.1073
 9135TIP3   OH248895   0.811   6.678   0.458  0.0367 -0.5353  0.2376
 9135TIP3    H148896   0.725   6.715   0.478 -0.3484 -0.9423 -0.6367
 9135TIP3    H248897   0.835   6.715   0.373  0.7681 -0.3797  0.4941
 9136TIP3   OH248898   1.191   1.081  15.076  0.0974 -0.7845  0.3827
 9136TIP3    H148899   1.170   1.092  14.983 -0.9487 -3.6691  0.1921
 9136TIP3    H248900   1.141   1.150  15.119 -0.9467 -0.5742 -1.0531
 9137TIP3   OH248901   3.029   5.968  13.992  0.4167  0.5981  0.2866
 9137TIP3    H148902   3.048   6.061  14.008  0.6618  1.2125 -2.9031
 9137TIP3    H248903   3.115   5.926  13.989  0.3181  0.2824  1.4768
 9138TIP3   OH248904   4.453   3.611  11.793 -0.0564 -0.2752  0.1060
 9138TIP3    H148905   4.456   3.652  11.707 -1.2985 -0.1752  0.0922
 9138TIP3    H248906   4.382   3.547  11.786  0.3268 -0.7836  0.8287
 9139TIP3   OH248907   2.537   4.791  10.944 -0.1160  0.1445  0.3455
 9139TIP3    H148908   2.582   4.734  10.881  1.0276  1.8246 -0.4467
 9139TIP3    H248909   2.541   4.878  10.904  0.4275  1.2464  2.6390
 9140TIP3   OH248910   1.736   6.844   4.347  0.3260  0.2718 -0.0796
 9140TIP3    H148911   1.704   6.818   4.433 -0.1602 -0.6806 -0.5291
 9140TIP3    H248912   1.756   6.937   4.355  0.1087  0.2294  1.0048
 9141TIP3   OH248913   4.918   2.518  13.218  0.2696  0.1298 -0.1302
 9141TIP3    H148914   4.833   2.537  13.180  0.8307  0.2269 -1.4074
 9141TIP3    H248915   4.901   2.449  13.283 -0.6087 -0.7627 -1.2704
 9142TIP3   OH248916   2.329   2.236  11.387  0.5759  0.0164 -0.6253
 9142TIP3    H148917   2.403   2.230  11.327 -0.4085  1.5903 -2.1059
 9142TIP3    H248918   2.258   2.189  11.342  0.6886 -1.7293  0.9043
 9143TIP3   OH248919   3.603   5.322  11.543 -0.3690 -0.3601 -0.0736
 9143TIP3    H148920   3.515   5.285  11.551 -0.8480  0.8859  0.8869
 9143TIP3    H248921   3.653   5.282  11.613 -0.4678 -0.3042  0.0292
 9144TIP3   OH248922   6.181   2.845   3.590  0.5039  0.2075 -0.8913
 9144TIP3    H148923   6.276   2.858   3.596  0.7999 -2.0984  0.8254
 9144TIP3    H248924   6.170   2.755   3.560 -0.9766 -0.8242  2.2384
 9145TIP3   OH248925   1.067   0.220   6.524  0.1154 -0.2664  0.0929
 9145TIP3    H148926   1.013   0.182   6.594  1.6788 -0.5394  1.2012
 9145TIP3    H248927   1.053   0.162   6.450  0.9576 -1.9411  1.1815
 9146TIP3   OH248928   5.998   1.096   4.894 -0.0024 -0.1497  0.5129
 9146TIP3    H148929   6.068   1.123   4.952  0.6011  0.2478 -0.3882
 9146TIP3    H248930   5.944   1.174   4.882 -0.1270 -0.2314  0.5317
 9147TIP3   OH248931   6.346   5.401   6.222  0.3136  0.7159  0.4205
 9147TIP3    H148932   6.375   5.469   6.282 -1.0028  1.3791  0.3287
 9147TIP3    H248933   6.306   5.334   6.278  0.7402  0.4636  0.4283
 9148TIP3   OH248934   2.988   0.258  16.612 -0.3362 -0.1637  0.0749
 9148TIP3    H148935   3.075   0.233  16.582 -0.7856 -0.0588 -1.4057
 9148TIP3    H248936   2.931   0.187  16.583 -0.5070 -1.2299  2.7707
 9149TIP3   OH248937   2.908   2.705  15.842  0.4234  0.5223 -0.1192
 9149TIP3    H148938   2.899   2.765  15.768 -1.2108  0.5712  0.0820
 9149TIP3    H248939   2.931   2.621  15.803  0.7610  0.8234 -0.5783
 9150TIP3   OH248940   4.330   4.323   3.994  0.5863  0.7540 -0.3203
 9150TIP3    H148941   4.284   4.378   3.931  0.5598  0.5404 -0.4878
 9150TIP3    H248942   4.397   4.278   3.943 -0.9567 -1.2458 -0.6783
 9151TIP3   OH248943   5.802   5.371   1.598  0.0320  0.2428  0.2361
 9151TIP3    H148944   5.866   5.312   1.639  0.8494  1.8284  1.3167
 9151TIP3    H248945   5.799   5.341   1.507  1.0742 -0.9100  0.5417
 9152TIP3   OH248946   0.006   3.160   0.492  0.0333  0.0243  0.2336
 9152TIP3    H148947   0.098   3.148   0.468  0.7930  1.0116  2.3754
 9152TIP3    H248948  -0.026   3.227   0.433  1.0149  0.4253  0.1394
 9153TIP3   OH248949   5.959   2.308   0.456  0.0093  0.3884  0.3292
 9153TIP3    H148950   5.874   2.274   0.484 -0.0551 -0.9826 -1.3206
 9153TIP3    H248951   5.953   2.402   0.469 -2.6365  0.6382 -1.7876
 9154TIP3   OH248952   2.080   4.651  14.476 -0.2089 -0.4970  0.1086
 9154TIP3    H148953   2.037   4.689  14.553 -2.4957 -1.7348 -0.4522
 9154TIP3    H248954   2.116   4.726  14.429  0.4917  0.3714  1.8969
 9155TIP3   OH248955   2.044   6.729  15.315 -0.8789  0.3387  0.0186
 9155TIP3    H148956   2.005   6.741  15.228 -1.9990 -0.9622  0.3149
 9155TIP3    H248957   2.052   6.634  15.325 -0.5966  0.4839  1.2700
 9156TIP3   OH248958   3.191   4.064  13.608  1.1012 -0.1654  0.5238
 9156TIP3    H148959   3.253   4.027  13.671  1.4957  1.8135  1.3727
 9156TIP3    H248960   3.219   4.155  13.598  0.0496 -0.0071 -1.2925
 9157TIP3   OH248961   4.315   1.662  13.720  0.4074 -0.2195 -0.2071
 9157TIP3    H148962   4.240   1.720  13.708  0.4747 -0.0334  0.2607
 9157TIP3    H248963   4.280   1.574  13.708  0.1101 -0.1359  0.0455
 9158TIP3   OH248964   5.697   5.511  15.461  0.2903 -0.1082  0.2199
 9158TIP3    H148965   5.662   5.430  15.496 -0.0221 -1.0064 -1.9680
 9158TIP3    H248966   5.619   5.565  15.442  0.0501 -1.2725 -2.6991
 9159TIP3   OH248967   5.941   2.960   3.682  0.1950  0.4524  0.3243
 9159TIP3    H148968   6.022   2.934   3.639  0.9457  1.8027  0.8580
 9159TIP3    H248969   5.944   3.055   3.684 -2.5197  0.7111 -1.7335
 9160TIP3   OH248970   1.474   2.486   3.743  0.4912 -0.0457  0.3390
 9160TIP3    H148971   1.514   2.547   3.680  0.7398 -0.9543 -0.4086
 9160TIP3    H248972   1.456   2.540   3.820 -0.3275  1.2250 -0.6896
 9161TIP3   OH248973   2.869   3.398  15.286  0.0910 -0.5547 -0.0358
 9161TIP3    H148974   2.800   3.442  15.334 -0.2778 -0.3892 -0.7016
 9161TIP3    H248975   2.951   3.433  15.322 -0.1461 -1.2635  1.2353
 9162TIP3   OH248976   0.968   4.095  12.456 -0.4786 -0.1241 -0.7377
 9162TIP3    H148977   1.015   4.155  12.514 -2.2538 -0.2472  0.9430
 9162TIP3    H248978   0.877   4.102  12.484 -1.1333 -1.5925 -2.3370
 9163TIP3   OH248979   2.089   3.722   2.932  0.4501 -0.5382 -0.2271
 9163TIP3    H148980   2.061   3.639   2.970 -0.0185  0.6376  2.1888
 9163TIP3    H248981   2.153   3.756   2.994 -1.4272  2.1919  0.3917
 9164TIP3   OH248982   1.813   6.007  16.491 -0.1797  0.0109 -0.2863
 9164TIP3    H148983   1.810   5.914  16.468  2.1437  0.1241 -1.2711
 9164TIP3    H248984   1.828   6.052  16.409  0.1913  1.1465  0.3823
 9165TIP3   OH248985   0.848   4.843   3.030  0.4199 -0.0677  0.0424
 9165TIP3    H148986   0.942   4.830   3.045  0.5179 -0.2927 -0.7375
 9165TIP3    H248987   0.820   4.896   3.104  0.8295 -1.3648  1.1796
 9166TIP3   OH248988   4.071   0.639   3.560  0.1066  0.1395  0.3681
 9166TIP3    H148989   4.078   0.548   3.529 -1.1561  0.4854 -1.0438
 9166TIP3    H248990   4.133   0.687   3.506  0.0094  0.2828  0.3841
 9167TIP3   OH248991   2.813   2.485   5.936 -0.1382 -0.5234 -0.8426
 9167TIP3    H148992   2.720   2.468   5.946  0.0319 -1.5832 -0.9594
 9167TIP3    H248993   2.852   2.453   6.018  0.0326  0.7082 -0.4251
 9168TIP3   OH248994   4.795   1.015  14.430  0.0100 -0.7233  0.2282
 9168TIP3    H148995   4.750   1.099  14.425  0.1137 -0.4883  2.3759
 9168TIP3    H248996   4.796   0.983  14.340  1.7748  2.4666 -1.0285
 9169TIP3   OH248997   4.067   1.644   2.302 -0.7040  0.4564 -0.0005
 9169TIP3    H148998   4.070   1.660   2.396 -1.3554  1.9103 -0.1992
 9169TIP3    H248999   4.153   1.609   2.281 -1.2685 -2.1151  1.4766
 9170TIP3   OH249000   1.229   2.701  12.307 -0.4880  0.5040  0.2579
 9170TIP3    H149001   1.324   2.696  12.318 -0.4411 -1.9994 -0.5591
 9170TIP3    H249002   1.201   2.768  12.370  1.9371  2.5687 -0.7082
 9171TIP3   OH249003   1.699   4.190   5.025 -0.5246  0.1000 -0.7787
 9171TIP3    H149004   1.612   4.208   5.061 -0.8841  0.3031 -1.7257
 9171TIP3    H249005   1.684   4.123   4.959 -0.1165  0.8669 -1.6651
 9172TIP3   OH249006   5.112   4.359  16.155  0.4385  0.8473  0.0382
 9172TIP3    H149007   5.162   4.352  16.074 -1.4447 -2.0537 -0.9952
 9172TIP3    H249008   5.165   4.313  16.220  1.1050  1.6216  0.0646
 9173TIP3   OH249009   1.332   4.554  14.742  0.0117 -0.2463 -0.2583
 9173TIP3    H149010   1.391   4.495  14.789  2.7512  1.6987 -1.0107
 9173TIP3    H249011   1.265   4.577  14.806  0.2189 -2.2915  0.7666
 9174TIP3   OH249012   6.660   0.082   2.721 -0.0530 -0.0209  0.7018
 9174TIP3    H149013   6.728   0.024   2.755 -0.2203  0.4665  1.9464
 9174TIP3    H249014   6.628   0.129   2.798 -1.4571  0.1267  0.0624
 9175TIP3   OH249015   6.130   4.394  11.755  0.3696 -0.4107  1.0112
 9175TIP3    H149016   6.127   4.434  11.842  0.7630 -1.0232  1.3182
 9175TIP3    H249017   6.063   4.326  11.757 -0.2620  0.1831  0.5090
 9176TIP3   OH249018   1.772   6.498   2.137  0.2028  0.6362  0.1597
 9176TIP3    H149019   1.696   6.459   2.179 -0.2070 -0.1091 -1.2124
 9176TIP3    H249020   1.754   6.592   2.137 -1.2056  0.4032 -0.9941
 9177TIP3   OH249021   0.164   0.574   0.997  0.0217 -0.4507 -0.1480
 9177TIP3    H149022   0.171   0.480   0.977  1.8271 -0.2958 -0.4402
 9177TIP3    H249023   0.164   0.578   1.093 -0.6634 -0.7755 -0.1312
 9178TIP3   OH249024   3.528   2.115   3.652 -0.2665  0.4890 -0.0025
 9178TIP3    H149025   3.572   2.163   3.723  0.0320 -0.3189  0.3722
 9178TIP3    H249026   3.592   2.049   3.625 -0.3330  0.8788 -1.1205
 9179TIP3   OH249027   3.184   0.746  16.269 -0.2308  0.1111 -0.0321
 9179TIP3    H149028   3.132   0.795  16.205  0.0311 -1.4673 -1.5526
 9179TIP3    H249029   3.119   0.706  16.327 -0.5320  0.8175  0.1187
 9180TIP3   OH249030   5.616   2.070  13.263 -0.8580 -0.7342 -0.3506
 9180TIP3    H149031   5.572   2.035  13.185  0.2188 -1.9252 -0.4623
 9180TIP3    H249032   5.708   2.079  13.236 -0.3153 -1.8983  0.9828
 9181TIP3   OH249033   2.182   5.065  16.763 -0.1255  0.0687  0.5266
 9181TIP3    H149034   2.247   5.047  16.695 -0.0106  0.9698  0.3817
 9181TIP3    H249035   2.124   5.130  16.724 -1.0737 -0.6684  0.6885
 9182TIP3   OH249036   2.165   1.058   5.317  0.2397  0.0504  0.0164
 9182TIP3    H149037   2.168   0.979   5.263 -2.0489  0.1753 -0.3978
 9182TIP3    H249038   2.149   1.129   5.254 -1.0885  0.3697  0.6748
 9183TIP3   OH249039   5.761   6.589   2.558  0.1298  0.3047 -0.4539
 9183TIP3    H149040   5.727   6.584   2.469 -0.2874  0.3687 -0.2990
 9183TIP3    H249041   5.757   6.499   2.590  1.2410  0.0995 -0.8499
 9184TIP3   OH249042   2.460   0.521   4.482  0.3878 -0.2409 -0.1333
 9184TIP3    H149043   2.458   0.462   4.407  0.4977 -0.1125 -0.2393
 9184TIP3    H249044   2.507   0.598   4.450 -1.8349  0.9421 -0.7677
 9185TIP3   OH249045   4.147   2.995  11.490 -0.0742 -0.5658 -0.2848
 9185TIP3    H149046   4.192   2.942  11.425  0.8010 -0.2039  0.0114
 9185TIP3    H249047   4.215   3.053  11.526 -0.1717 -1.7429  1.9969
 9186TIP3   OH249048   2.461   3.224   0.610  0.5571 -0.6807 -0.3768
 9186TIP3    H149049   2.445   3.137   0.572 -2.1688 -0.2571 -0.3954
 9186TIP3    H249050   2.483   3.206   0.701 -0.4839 -1.4003 -0.2464
 9187TIP3   OH249051   4.643   1.750   1.149  0.2485 -0.4938  0.2443
 9187TIP3    H149052   4.589   1.672   1.164 -1.9396  0.7696 -0.5141
 9187TIP3    H249053   4.585   1.823   1.171  1.3705  0.9767 -1.4154
 9188TIP3   OH249054   0.952   0.637  16.161  0.1069 -0.1851  0.8484
 9188TIP3    H149055   0.873   0.688  16.174 -0.2299 -0.6290  0.5651
 9188TIP3    H249056   1.001   0.648  16.242  0.7866  1.8515  0.2318
 9189TIP3   OH249057   3.161   6.408  11.882 -0.6900 -0.2419  0.5426
 9189TIP3    H149058   3.119   6.492  11.902  0.5371  1.0313 -1.7894
 9189TIP3    H249059   3.108   6.372  11.811  1.9398  1.4329 -2.5188
 9190TIP3   OH249060   1.510   2.697   0.979  0.0695  0.5960  0.5204
 9190TIP3    H149061   1.488   2.775   0.928  1.3161  1.2306  0.9098
 9190TIP3    H249062   1.443   2.632   0.955 -1.5123  2.0404  0.8151
 9191TIP3   OH249063   2.081   6.276  13.042 -0.2411  0.0467 -0.2045
 9191TIP3    H149064   2.105   6.204  12.983 -0.7428 -0.1432 -0.1815
 9191TIP3    H249065   1.998   6.308  13.007 -0.2428  0.3193  0.0535
 9192TIP3   OH249066   5.798   0.430  11.156 -0.1255  0.0285  0.8323
 9192TIP3    H149067   5.741   0.360  11.125  2.3035 -1.8487  0.2594
 9192TIP3    H249068   5.851   0.388  11.224 -1.6021  2.5895  3.8380
 9193TIP3   OH249069   0.531   1.484   2.609  0.0822  0.1858 -0.1126
 9193TIP3    H149070   0.586   1.492   2.531  0.4668  0.1765  0.1570
 9193TIP3    H249071   0.561   1.555   2.666 -0.8420  0.8000 -0.3630
 9194TIP3   OH249072   4.852   5.430   4.554 -0.8868  0.2571 -0.2494
 9194TIP3    H149073   4.768   5.445   4.509 -1.1850 -1.5621 -0.3857
 9194TIP3    H249074   4.915   5.420   4.483 -1.3389 -2.5077 -0.3733
 9195TIP3   OH249075   5.176   0.402   2.237  0.0034  0.1799 -0.1665
 9195TIP3    H149076   5.145   0.491   2.254  0.2078  0.1758  0.2309
 9195TIP3    H249077   5.246   0.412   2.173  0.4480  0.3704  0.3367
 9196TIP3   OH249078   1.519   4.770  11.685  0.4284  0.2585 -0.1005
 9196TIP3    H149079   1.521   4.681  11.720 -1.3444 -0.4921 -1.6655
 9196TIP3    H249080   1.572   4.822  11.745  1.4215 -1.8333  0.9151
 9197TIP3   OH249081   1.073   4.533   5.260 -0.2703  0.0055  0.2809
 9197TIP3    H149082   1.058   4.451   5.213 -0.3660  0.0487  0.2341
 9197TIP3    H249083   1.074   4.600   5.191  0.1519  0.0043  0.2822
 9198TIP3   OH249084   3.793   3.120  16.068  0.2556  0.5228  0.2703
 9198TIP3    H149085   3.758   3.167  15.993 -0.1162 -0.3665 -0.1138
 9198TIP3    H249086   3.888   3.127  16.058  0.2102 -0.0899 -0.5961
 9199TIP3   OH249087   4.926   0.801   4.658  0.1869  0.2847 -0.5713
 9199TIP3    H149088   4.876   0.725   4.688  0.2782 -0.6307 -2.5512
 9199TIP3    H249089   4.868   0.875   4.676 -0.3819 -0.3719  0.3972
 9200TIP3   OH249090   0.056   5.301   2.155 -0.3550  0.3492 -0.1171
 9200TIP3    H149091   0.145   5.334   2.149  1.2465 -3.6424 -1.3325
 9200TIP3    H249092   0.045   5.275   2.246 -0.1435  0.5170 -0.0442
 9201TIP3   OH249093   2.943   6.473   3.624 -0.3600  0.1988  0.0781
 9201TIP3    H149094   2.891   6.546   3.657 -1.3603 -0.3712 -0.1655
 9201TIP3    H249095   2.901   6.395   3.662  1.1697 -0.2201  0.9781
 9202TIP3   OH249096   4.507   3.641   5.328  0.4273  0.1086 -0.3331
 9202TIP3    H149097   4.485   3.717   5.274  2.3875  0.5877 -0.5571
 9202TIP3    H249098   4.426   3.619   5.374 -0.0512  2.7069  0.1939
 9203TIP3   OH249099   4.117   1.409  13.883 -0.0353 -0.6406  0.6227
 9203TIP3    H149100   4.026   1.386  13.867  0.1114  0.5545 -2.8996
 9203TIP3    H249101   4.165   1.371  13.809  1.8332  1.2388  0.7565
 9204TIP3   OH249102   2.075   0.062   5.035  0.2928 -0.7210  0.4642
 9204TIP3    H149103   2.100   0.154   5.030 -1.6489 -0.0592  1.6276
 9204TIP3    H249104   1.998   0.055   4.978  0.3955 -1.6148  0.4221
 9205TIP3   OH249105   1.094   4.965   2.868 -0.4540 -0.5850  0.5724
 9205TIP3    H149106   1.116   4.874   2.851  2.2298  0.0494  0.2286
 9205TIP3    H249107   1.070   5.000   2.782  0.8635 -0.4265  0.2464
 9206TIP3   OH249108   3.890   1.082  15.506 -0.4001 -0.2432  0.0849
 9206TIP3    H149109   3.819   1.140  15.535  0.6586 -0.1839  2.9095
 9206TIP3    H249110   3.969   1.124  15.540  0.8929 -1.0114 -1.8229
 9207TIP3   OH249111   0.585   1.397   4.197  0.2950 -0.5590 -0.1211
 9207TIP3    H149112   0.493   1.376   4.184 -0.1272  0.1654  1.5106
 9207TIP3    H249113   0.593   1.489   4.173  0.5014 -0.5108  0.1259
 9208TIP3   OH249114   5.706   0.133   0.723  0.2598  0.2449  0.1725
 9208TIP3    H149115   5.693   0.116   0.630 -0.2222  0.4714  0.1947
 9208TIP3    H249116   5.623   0.109   0.764  0.3232  0.5439  0.4863
 9209TIP3   OH249117   3.586   5.087   0.549 -0.0225  0.3923 -0.0280
 9209TIP3    H149118   3.496   5.075   0.517  0.4624 -1.0245 -0.9238
 9209TIP3    H249119   3.624   5.150   0.489 -0.3293  0.8129  0.2095
 9210TIP3   OH249120   1.080   2.875  10.773  0.4689  0.5994 -0.3912
 9210TIP3    H149121   1.162   2.924  10.771  0.3872  0.7457 -0.1623
 9210TIP3    H249122   1.064   2.858  10.865  0.3283  0.4224 -0.4469
 9211TIP3   OH249123   1.627   4.190  15.450  0.3676  0.1309  0.5251
 9211TIP3    H149124   1.630   4.096  15.467 -0.2851  0.1665  0.8264
 9211TIP3    H249125   1.567   4.226  15.515  2.9571  1.2365  2.5098
 9212TIP3   OH249126   1.031   4.690   1.120 -0.3003  0.4504  0.1284
 9212TIP3    H149127   1.112   4.664   1.163 -1.1995 -0.0325  1.5970
 9212TIP3    H249128   0.970   4.706   1.192 -1.6187  0.4257 -0.9538
 9213TIP3   OH249129   2.838   2.793  12.703  0.1489  0.0357 -0.1187
 9213TIP3    H149130   2.784   2.822  12.777  0.2261 -1.3311  0.4999
 9213TIP3    H249131   2.925   2.781  12.741  0.4715  0.4615 -0.7065
 9214TIP3   OH249132   2.118   0.704   5.954 -0.2931  0.4151  0.3240
 9214TIP3    H149133   2.140   0.764   6.025 -1.1145 -1.3615  2.1830
 9214TIP3    H249134   2.034   0.665   5.980 -1.3351  0.6596 -2.3119
 9215TIP3   OH249135   2.679   6.578  15.501  0.4964 -0.4330 -0.1837
 9215TIP3    H149136   2.771   6.602  15.512 -0.2636  2.5950  0.3260
 9215TIP3    H249137   2.653   6.620  15.420 -0.3673 -1.6765 -0.5808
 9216TIP3   OH249138   6.708   1.531  13.033  0.5337  0.0578 -0.1460
 9216TIP3    H149139   6.635   1.592  13.023  0.0520 -0.6622 -1.2493
 9216TIP3    H249140   6.726   1.530  13.127 -0.4055  0.7927  0.0572
 9217TIP3   OH249141   0.446   1.808   5.803 -0.0617 -0.2769  0.4556
 9217TIP3    H149142   0.450   1.901   5.781 -0.6317 -0.9515 -3.0641
 9217TIP3    H249143   0.538   1.781   5.809  0.1662 -0.0182 -1.3899
 9218TIP3   OH249144   5.166   4.419  15.219  0.5431 -0.4769 -0.2144
 9218TIP3    H149145   5.253   4.382  15.237 -0.1629 -2.4600 -0.5519
 9218TIP3    H249146   5.107   4.344  15.226 -1.2139  0.8825  0.3738
 9219TIP3   OH249147   5.870   4.638   2.337  0.1950 -0.2365 -0.1402
 9219TIP3    H149148   5.925   4.562   2.317 -1.0048 -1.7343  1.9005
 9219TIP3    H249149   5.912   4.710   2.290  1.0155 -2.2253 -2.7295
 9220TIP3   OH249150   6.266   3.281   2.424 -0.5290 -0.2971  0.0016
 9220TIP3    H149151   6.208   3.205   2.423 -3.5268  1.8112 -1.2581
 9220TIP3    H249152   6.253   3.319   2.511 -1.0376  0.1445 -0.2614
 9221TIP3   OH249153   4.968   0.394  14.114  0.1093 -0.0862 -0.7538
 9221TIP3    H149154   4.972   0.481  14.074 -0.7769  0.6268  0.6215
 9221TIP3    H249155   4.931   0.338  14.046  0.1809  0.7269 -1.4807
 9222TIP3   OH249156   5.414   4.644  15.162 -0.2691  0.2931 -0.3842
 9222TIP3    H149157   5.504   4.677  15.159 -0.7332  1.7463  0.7075
 9222TIP3    H249158   5.365   4.702  15.104 -0.8141  0.6030  0.3698
 9223TIP3   OH249159   0.269   5.903  14.895 -0.1895 -0.5973 -0.2341
 9223TIP3    H149160   0.363   5.902  14.873 -0.4838 -1.1602 -1.5141
 9223TIP3    H249161   0.242   5.994  14.880  0.2032 -0.3661  0.4131
 9224TIP3   OH249162   4.196   0.807  13.943  0.2803 -0.2213  0.4550
 9224TIP3    H149163   4.131   0.738  13.959  1.6525 -1.3425  1.4119
 9224TIP3    H249164   4.272   0.761  13.908  0.2766  1.1915 -1.6118
 9225TIP3   OH249165   5.785   5.142  12.229  0.8223  0.1362  0.2382
 9225TIP3    H149166   5.748   5.132  12.142  2.3749 -2.6762 -0.2502
 9225TIP3    H249167   5.772   5.056  12.270  0.2487  1.3389  2.7630
 9226TIP3   OH249168   4.538   2.994  16.725 -0.3686  0.3052  0.1351
 9226TIP3    H149169   4.606   3.036  16.673 -0.1589  1.6862  1.4470
 9226TIP3    H249170   4.584   2.925  16.774 -0.1719  0.3727  0.0447
 9227TIP3   OH249171   5.366   3.943   2.091  0.2051 -0.6276  0.3207
 9227TIP3    H149172   5.335   3.853   2.081 -0.8418 -0.5308  2.2231
 9227TIP3    H249173   5.373   3.956   2.185 -0.1825  1.4487  0.1122
 9228TIP3   OH249174   0.015   1.957  14.691  0.2295  0.0616 -0.7159
 9228TIP3    H149175  -0.074   1.990  14.692 -0.6914 -2.2391  0.0523
 9228TIP3    H249176   0.024   1.913  14.606  0.3804 -0.3100 -0.5125
 9229TIP3   OH249177   5.670   5.251  13.715 -0.8477 -0.2397  0.3850
 9229TIP3    H149178   5.670   5.339  13.676 -0.7928 -0.5164 -0.2460
 9229TIP3    H249179   5.717   5.197  13.652 -0.4830 -0.6315  0.9929
 9230TIP3   OH249180   6.698   4.915   3.009 -0.0603 -0.4079  0.0627
 9230TIP3    H149181   6.762   4.957   3.066 -0.7924  2.4681 -1.0521
 9230TIP3    H249182   6.709   4.958   2.924 -0.7731 -2.6979 -1.3062
 9231TIP3   OH249183   4.125   5.988  16.390  0.0811 -0.9568  0.2658
 9231TIP3    H149184   4.140   5.893  16.398  0.5814 -0.9769 -0.6617
 9231TIP3    H249185   4.107   6.001  16.297 -0.9515 -0.2568  0.5494
 9232TIP3   OH249186   1.545   2.440   0.810  0.0653  0.1999  0.0726
 9232TIP3    H149187   1.493   2.487   0.745  1.7921  0.5464 -1.1356
 9232TIP3    H249188   1.502   2.459   0.894 -0.8736  1.6518 -0.6941
 9233TIP3   OH249189   3.315   3.514   1.514 -0.0628 -0.5385  0.1177
 9233TIP3    H149190   3.260   3.592   1.516  1.4054  0.5652 -0.5784
 9233TIP3    H249191   3.375   3.525   1.588  0.4140 -0.8132 -0.2253
 9234TIP3   OH249192   4.674   4.847   1.026 -0.1908 -0.7421  0.7245
 9234TIP3    H149193   4.692   4.915   0.961  0.7084 -1.9152 -0.2951
 9234TIP3    H249194   4.647   4.895   1.104 -1.0680  0.7185 -0.4283
 9235TIP3   OH249195   1.808   5.297  15.221  0.5595  0.6227 -0.0960
 9235TIP3    H149196   1.754   5.339  15.154 -0.3025 -0.2463  0.0310
 9235TIP3    H249197   1.858   5.231  15.173 -2.3863 -2.2360  0.4663
 9236TIP3   OH249198   5.944   1.617  12.481 -0.2225 -0.2820 -0.0563
 9236TIP3    H149199   5.873   1.572  12.435  0.3963 -1.2043 -0.1330
 9236TIP3    H249200   6.013   1.628  12.415  0.3372 -0.8612  0.4101
 9237TIP3   OH249201   6.659   0.717   2.497  0.1347  0.3803 -0.0595
 9237TIP3    H149202   6.691   0.638   2.453  2.1672  0.2402  1.5179
 9237TIP3    H249203   6.708   0.788   2.455  1.3135  0.3449  1.1860
 9238TIP3   OH249204   3.791   1.727   1.165  0.3390 -0.2571 -0.2147
 9238TIP3    H149205   3.773   1.660   1.099  0.9709 -0.7003  0.0424
 9238TIP3    H249206   3.819   1.804   1.115 -0.6259 -0.1006 -0.5230
 9239TIP3   OH249207   0.264   1.138   6.346  0.0491  0.2255  0.0900
 9239TIP3    H149208   0.174   1.107   6.353 -0.3052  0.8165 -1.5258
 9239TIP3    H249209   0.317   1.060   6.361 -0.7645 -0.5213 -0.7732
 9240TIP3   OH249210   3.765   5.403   4.168 -0.4752  0.5099 -0.0908
 9240TIP3    H149211   3.848   5.359   4.187 -0.4031  0.8009  0.2683
 9240TIP3    H249212   3.789   5.488   4.133 -0.6164  0.7724  0.4287
 9241TIP3   OH249213   5.711   1.842   3.585  0.1336  0.4043 -0.0721
 9241TIP3    H149214   5.762   1.835   3.666 -0.6583  1.0553  0.5056
 9241TIP3    H249215   5.635   1.895   3.610 -0.5492 -0.1038 -1.0435
 9242TIP3   OH249216   0.354   4.228  17.130 -0.1942 -0.3170 -0.0065
 9242TIP3    H149217   0.325   4.143  17.165 -0.1885  0.0820  0.9970
 9242TIP3    H249218   0.307   4.293  17.182  0.0984  0.3094 -0.5080
 9243TIP3   OH249219   1.604   5.649   2.996  0.3473  0.2121 -0.2815
 9243TIP3    H149220   1.592   5.679   2.906  0.5625 -0.8162 -0.6763
 9243TIP3    H249221   1.698   5.636   3.005  0.3158  0.2022  0.0570
 9244TIP3   OH249222   3.615   1.246   2.993  0.4610 -0.1335 -0.1665
 9244TIP3    H149223   3.562   1.244   3.072 -0.5880  0.9621 -0.8141
 9244TIP3    H249224   3.571   1.186   2.932 -0.3300  1.0946 -0.8529
 9245TIP3   OH249225   1.612   2.984   5.568  0.1757 -0.6914  0.1386
 9245TIP3    H149226   1.656   2.922   5.510 -0.7148  0.6634 -2.1267
 9245TIP3    H249227   1.537   2.936   5.602  0.0841 -1.1871 -0.7452
 9246TIP3   OH249228   1.996   2.582   0.951 -0.0335 -0.2151  0.4889
 9246TIP3    H149229   1.956   2.630   0.879 -0.7674 -0.9829  0.3693
 9246TIP3    H249230   2.088   2.574   0.927 -0.1732 -0.0309 -0.1244
 9247TIP3   OH249231   6.033   1.611  13.357 -0.6566  0.0644  0.1920
 9247TIP3    H149232   6.007   1.544  13.420 -1.6734 -0.6415 -0.9339
 9247TIP3    H249233   6.069   1.682  13.411 -0.3024 -1.0425  1.4581
 9248TIP3   OH249234   3.474   0.089   4.589  0.2315 -0.8731 -0.3320
 9248TIP3    H149235   3.539   0.043   4.536  2.7832 -0.3506  2.0759
 9248TIP3    H249236   3.432   0.021   4.641  1.1058 -0.9464  0.3051
 9249TIP3   OH249237   3.828   0.172   1.788 -0.3898 -0.5481 -0.1484
 9249TIP3    H149238   3.763   0.155   1.719  1.4135 -2.1277 -1.5896
 9249TIP3    H249239   3.817   0.100   1.849 -0.6410 -0.2640  0.1443
 9250TIP3   OH249240   5.538   6.731   0.378 -0.3730  0.4430 -1.0061
 9250TIP3    H149241   5.600   6.767   0.315 -1.1543 -0.7592 -2.5516
 9250TIP3    H249242   5.592   6.696   0.449  0.7762 -0.7322 -2.3898
 9251TIP3   OH249243   3.070   5.617  13.055 -0.2117 -0.4791  0.0666
 9251TIP3    H149244   3.028   5.613  12.969  0.1597  0.6498 -0.1829
 9251TIP3    H249245   2.999   5.637  13.116 -0.0182  1.8530 -0.4073
 9252TIP3   OH249246   5.446   2.150  10.274 -0.0787  0.2614  0.1270
 9252TIP3    H149247   5.462   2.056  10.273  1.1378  0.3965  1.8495
 9252TIP3    H249248   5.363   2.160  10.320  0.9053  0.0948  2.0283
 9253TIP3   OH249249   5.525   0.634  13.200  0.3856  0.0846  0.0825
 9253TIP3    H149250   5.616   0.626  13.172  0.6748 -3.1812  1.5281
 9253TIP3    H249251   5.522   0.717  13.248  2.9997 -0.3951  1.2684
 9254TIP3   OH249252   1.220   2.447   2.481  0.1316 -0.3914  0.5510
 9254TIP3    H149253   1.256   2.363   2.452  1.3357 -0.0208  0.9009
 9254TIP3    H249254   1.282   2.479   2.546  0.3353  1.3024 -0.4019
 9255TIP3   OH249255   6.014   1.622  15.776 -0.1795  0.2345  0.2895
 9255TIP3    H149256   5.946   1.557  15.794  1.1512 -0.4676  3.4635
 9255TIP3    H249257   5.967   1.705  15.770 -1.5457 -0.5429 -0.1178
 9256TIP3   OH249258   1.908   0.628   2.479 -0.1238 -0.3615 -0.1388
 9256TIP3    H149259   1.952   0.601   2.559  1.3036  1.2339 -0.3374
 9256TIP3    H249260   1.920   0.554   2.419  1.6901 -0.2596  0.0651
 9257TIP3   OH249261   4.881   3.897   0.079  0.2126 -0.0717 -0.0529
 9257TIP3    H149262   4.915   3.938  -0.000  1.3668 -1.4954 -0.3506
 9257TIP3    H249263   4.790   3.924   0.083  0.3873  0.8002 -1.3430
 9258TIP3   OH249264   5.970   3.245  12.885  0.8171  0.1675 -0.2745
 9258TIP3    H149265   5.956   3.187  12.961  1.1035  0.4540  0.0000
 9258TIP3    H249266   5.886   3.243  12.839  0.4035  0.5243  0.4292
 9259TIP3   OH249267   5.611   4.872   3.694 -0.2807  0.4309 -0.0715
 9259TIP3    H149268   5.693   4.824   3.698 -0.7384 -0.3757 -0.2170
 9259TIP3    H249269   5.602   4.913   3.780  0.7194  1.2872 -0.3602
 9260TIP3   OH249270   0.673   6.035   6.111  0.2815  0.5078  0.3266
 9260TIP3    H149271   0.619   5.966   6.148 -0.7397  1.0235 -0.1612
 9260TIP3    H249272   0.705   6.084   6.187  0.3125  0.0174  0.6305
 9261TIP3   OH249273   3.508   1.455   4.837 -0.2397  0.0302  0.5814
 9261TIP3    H149274   3.544   1.467   4.749  1.9749  0.4572  1.4721
 9261TIP3    H249275   3.419   1.423   4.822  0.2104 -0.3430 -1.7973
 9262TIP3   OH249276   0.445   2.117  13.975  0.8847 -0.5627 -0.7995
 9262TIP3    H149277   0.371   2.155  14.021  1.9187 -2.3111  2.6677
 9262TIP3    H249278   0.412   2.034  13.941  1.0531 -1.1063  0.3106
 9263TIP3   OH249279   0.379   2.471   2.167  0.3601 -0.0782 -0.3133
 9263TIP3    H149280   0.387   2.439   2.077 -1.5118  0.1640 -0.6096
 9263TIP3    H249281   0.388   2.393   2.221  1.5199 -0.2240 -0.6856
 9264TIP3   OH249282   0.951   5.524   5.996 -0.0810  0.5895 -0.0923
 9264TIP3    H149283   1.028   5.522   6.053  1.1690 -1.2841 -1.7130
 9264TIP3    H249284   0.959   5.445   5.942 -2.9056  0.5864 -0.6596
 9265TIP3   OH249285   3.892   1.136   4.023 -0.1358 -0.0301 -0.4687
 9265TIP3    H149286   3.975   1.165   3.984 -0.6475  1.3015 -0.6211
 9265TIP3    H249287   3.860   1.213   4.070 -0.7444 -0.8695  0.5220
 9266TIP3   OH249288   0.284   3.076  14.202 -0.5264  0.5695 -0.1912
 9266TIP3    H149289   0.232   3.096  14.124 -1.2429 -1.4535 -0.2842
 9266TIP3    H249290   0.220   3.067  14.272  0.1196  2.3955  0.6893
 9267TIP3   OH249291   1.984   3.611  15.222  0.0687  0.7128 -0.0974
 9267TIP3    H149292   1.939   3.533  15.256 -0.3209  1.2231  0.6006
 9267TIP3    H249293   1.938   3.684  15.264  1.6655  1.2537  0.7806
 9268TIP3   OH249294   6.356   4.454   5.392  0.0214 -0.0939 -0.2133
 9268TIP3    H149295   6.452   4.456   5.389  0.0095  1.4226 -0.4118
 9268TIP3    H249296   6.331   4.545   5.407 -1.4776  0.0109 -2.7821
 9269TIP3   OH249297   5.674   1.783  16.295 -0.4369 -0.4662 -0.6245
 9269TIP3    H149298   5.766   1.758  16.282 -0.5135 -0.8589 -0.4214
 9269TIP3    H249299   5.678   1.871  16.333 -0.0953 -1.1338  0.9570
 9270TIP3   OH249300   0.282   6.505   4.582  0.0169 -0.5497 -0.5439
 9270TIP3    H149301   0.369   6.525   4.549 -0.3473  0.1079 -1.1347
 9270TIP3    H249302   0.237   6.589   4.585  0.2146 -0.4481  2.2560
 9271TIP3   OH249303   5.083   4.617  10.697 -0.1279  0.2501  0.7670
 9271TIP3    H149304   5.092   4.551  10.628 -0.2799  0.7755  0.2327
 9271TIP3    H249305   5.133   4.692  10.665  0.8018  0.0811  1.7859
 9272TIP3   OH249306   2.513   3.151   4.314 -0.3125 -0.1580  0.7795
 9272TIP3    H149307   2.559   3.117   4.391  0.1415 -2.0333 -0.2594
 9272TIP3    H249308   2.439   3.091   4.302 -1.1223  0.8808  0.4917
 9273TIP3   OH249309   1.361   3.117   0.656  0.4169  0.1481  0.1402
 9273TIP3    H149310   1.418   3.192   0.672 -0.7187  0.7266  1.7087
 9273TIP3    H249311   1.283   3.154   0.616 -0.7580  0.0770  2.2345
 9274TIP3   OH249312   6.632   0.877  15.308  0.0909 -0.4306  0.2963
 9274TIP3    H149313   6.554   0.887  15.363  0.3978 -2.9400  1.3187
 9274TIP3    H249314   6.607   0.913  15.223 -1.5153  0.5559  1.1509
 9275TIP3   OH249315   3.682   5.903   4.214 -0.6587  0.4567  0.3675
 9275TIP3    H149316   3.598   5.903   4.259 -0.5928  2.0239  0.5313
 9275TIP3    H249317   3.661   5.888   4.122 -0.9707 -0.5951  0.5953
 9276TIP3   OH249318   4.443   3.334   2.232  0.8293  0.5622  0.2641
 9276TIP3    H149319   4.364   3.365   2.275  0.0161 -0.6037 -0.3289
 9276TIP3    H249320   4.414   3.308   2.144  1.2776 -2.4301  0.8984
 9277TIP3   OH249321   3.768   5.542   5.481  0.4914  0.4760 -0.9926
 9277TIP3    H149322   3.766   5.553   5.386 -0.5539  1.7226 -0.8544
 9277TIP3    H249323   3.683   5.574   5.511  0.5485 -0.5150  0.3182
 9278TIP3   OH249324   3.736   2.302   5.763  0.0529  0.2091 -0.2290
 9278TIP3    H149325   3.721   2.369   5.829 -1.2877 -2.1697  2.1031
 9278TIP3    H249326   3.831   2.293   5.758  0.1957  0.6309  1.2406
 9279TIP3   OH249327   0.082   6.241  15.672  0.0518 -0.5352  0.1604
 9279TIP3    H149328   0.054   6.331  15.654  0.5502 -0.3281  0.4083
 9279TIP3    H249329   0.036   6.218  15.753 -0.9689 -0.9144 -0.5110
 9280TIP3   OH249330   5.443   5.124   4.924 -0.3129  0.3249 -0.6716
 9280TIP3    H149331   5.453   5.185   4.997  0.2745 -1.2297  0.5955
 9280TIP3    H249332   5.376   5.164   4.869 -0.3730  1.8102  0.4208
 9281TIP3   OH249333   0.290   3.311   0.973 -0.4788  0.1498  0.4323
 9281TIP3    H149334   0.298   3.239   1.036 -2.4727  1.2014  1.9896
 9281TIP3    H249335   0.374   3.357   0.978  0.0550 -0.8679  0.9446
 9282TIP3   OH249336   0.745   0.933  14.613 -0.0832  0.2771  0.6395
 9282TIP3    H149337   0.678   0.882  14.658  0.0695 -1.1213 -0.6435
 9282TIP3    H249338   0.724   0.924  14.520  0.4124  1.9432  0.3296
 9283TIP3   OH249339   0.989   3.404   2.298  0.0556 -0.0259 -0.6892
 9283TIP3    H149340   0.903   3.372   2.327 -0.2501 -0.6301 -2.1792
 9283TIP3    H249341   0.996   3.492   2.336 -0.6094 -0.5024  0.5916
 9284TIP3   OH249342   3.241   4.205   2.796  0.2059  0.1080 -0.0358
 9284TIP3    H149343   3.231   4.224   2.889 -0.4846  0.8103 -0.2426
 9284TIP3    H249344   3.153   4.180   2.767 -0.0455  1.8664 -0.9183
 9285TIP3   OH249345   3.086   2.025  13.293  0.1320  0.0493 -0.0405
 9285TIP3    H149346   3.090   2.119  13.274  1.1095 -0.1614 -1.0119
 9285TIP3    H249347   3.137   1.985  13.222  0.2249 -1.1638  0.6965
 9286TIP3   OH249348   1.658   2.470  12.642  0.2074  0.5363  0.6203
 9286TIP3    H149349   1.569   2.443  12.663  0.7171 -0.9929  0.9313
 9286TIP3    H249350   1.708   2.453  12.722  0.4141  3.3910  1.2057
 9287TIP3   OH249351   5.525   1.421  15.510  0.1585 -0.8596 -0.2516
 9287TIP3    H149352   5.446   1.447  15.461  0.0314 -0.9030 -0.0735
 9287TIP3    H249353   5.507   1.448  15.600  1.6659  2.0989 -0.7181
 9288TIP3   OH249354   3.975   0.286  16.950 -0.2788 -0.3166  0.0229
 9288TIP3    H149355   3.917   0.287  17.026 -0.2932 -3.2348  0.1687
 9288TIP3    H249356   4.003   0.195  16.942  1.1638  0.2340 -2.4227
 9289TIP3   OH249357   2.048   4.415   2.925  0.4705 -0.1426 -0.7106
 9289TIP3    H149358   2.105   4.487   2.953 -0.5961  0.4270  0.0537
 9289TIP3    H249359   1.970   4.424   2.979  1.2307 -3.2795  1.2084
 9290TIP3   OH249360   5.442   6.213  15.526  0.3775 -0.2690  0.0382
 9290TIP3    H149361   5.350   6.211  15.551  0.1747 -0.2843 -0.7026
 9290TIP3    H249362   5.467   6.305  15.532  0.7805 -0.4490  1.8570
 9291TIP3   OH249363   5.588   5.249   0.833  0.1277 -0.8300 -0.2886
 9291TIP3    H149364   5.520   5.278   0.772  0.8338 -0.2874 -0.8448
 9291TIP3    H249365   5.543   5.238   0.916 -1.0054 -2.3178 -1.0673
 9292TIP3   OH249366   5.496   1.377  15.167 -0.1626 -0.4527 -0.1899
 9292TIP3    H149367   5.453   1.358  15.250  0.5710 -1.0833  0.0545
 9292TIP3    H249368   5.589   1.383  15.188 -0.1077  0.9583 -0.7010
 9293TIP3   OH249369   1.672   0.708  12.875 -0.2594 -0.1080  0.2708
 9293TIP3    H149370   1.696   0.620  12.905  1.8472  0.2452 -0.2355
 9293TIP3    H249371   1.718   0.718  12.792  0.5386  1.9222  0.9115
 9294TIP3   OH249372   6.071   3.953  16.450 -0.6337 -0.1180  0.3496
 9294TIP3    H149373   5.991   3.993  16.415  0.3926  1.5978 -0.1831
 9294TIP3    H249374   6.101   3.895  16.381 -0.7399  0.2339  0.0024
 9295TIP3   OH249375   5.497   2.303  16.636  0.3214 -0.5267  0.0335
 9295TIP3    H149376   5.525   2.222  16.679  0.2994 -0.9667 -0.7578
 9295TIP3    H249377   5.401   2.301  16.644  0.1124 -1.7833 -2.0001
 9296TIP3   OH249378   1.235   3.415  11.098  0.0577  0.4004 -0.0805
 9296TIP3    H149379   1.328   3.433  11.085  1.7912 -4.7690  2.1921
 9296TIP3    H249380   1.198   3.413  11.010  2.5262  0.9244 -1.2191
 9297TIP3   OH249381   4.219   2.125  12.355 -0.3776  0.0833  0.5546
 9297TIP3    H149382   4.260   2.183  12.291 -0.8132  0.4585  0.6158
 9297TIP3    H249383   4.234   2.169  12.439  0.0798 -0.3428  0.6981
 9298TIP3   OH249384   0.791   1.435  12.662  0.4543  0.1942 -0.1047
 9298TIP3    H149385   0.768   1.399  12.577 -0.3923  0.1484  0.1322
 9298TIP3    H249386   0.723   1.501  12.679  1.2415  0.9760  0.0474
 9299TIP3   OH249387   0.493   0.420  14.173  0.0996  0.1496  0.0179
 9299TIP3    H149388   0.436   0.345  14.154 -2.0602  2.1101 -1.9505
 9299TIP3    H249389   0.565   0.383  14.224 -1.4772 -3.0069  0.2249
 9300TIP3   OH249390   1.728   2.370   0.059  0.1807  0.4627  0.1607
 9300TIP3    H149391   1.673   2.294   0.041  1.8983 -0.6652 -0.6168
 9300TIP3    H249392   1.681   2.419   0.127 -0.6920 -1.6110  1.1198
 9301TIP3   OH249393   1.108   6.351   4.880  0.1456 -0.2754  0.0079
 9301TIP3    H149394   1.101   6.298   4.801  1.0250 -1.1444  0.4965
 9301TIP3    H249395   1.091   6.441   4.850  2.6155 -0.2592 -1.6038
 9302TIP3   OH249396   5.740   5.246   0.215 -0.3362 -0.3514 -0.1195
 9302TIP3    H149397   5.682   5.298   0.271 -0.4856 -0.7688  0.1198
 9302TIP3    H249398   5.797   5.311   0.173 -0.1580 -0.0304  0.5904
 9303TIP3   OH249399   3.701   5.902   1.506  0.0059  0.3165 -0.2531
 9303TIP3    H149400   3.662   5.983   1.475  2.0189  0.4042 -2.9623
 9303TIP3    H249401   3.781   5.929   1.552  1.0326 -0.0725 -1.7295
 9304TIP3   OH249402   1.367   2.481  16.929  0.1809  1.0263 -0.3397
 9304TIP3    H149403   1.355   2.420  16.856 -0.2595 -0.1686  0.6998
 9304TIP3    H249404   1.377   2.425  17.005  0.2409  2.2643  0.5837
 9305TIP3   OH249405   0.762   2.387   4.408  0.5170  0.4617  0.2932
 9305TIP3    H149406   0.749   2.406   4.501 -0.0745 -3.3385  1.1519
 9305TIP3    H249407   0.845   2.429   4.387  1.9076 -0.5017  3.2408
 9306TIP3   OH249408   1.612   1.157   0.151  0.3179 -0.0607 -0.1824
 9306TIP3    H149409   1.592   1.067   0.177 -0.2452  1.0633  3.9035
 9306TIP3    H249410   1.703   1.170   0.179  0.1009  0.9031  0.0881
 9307TIP3   OH249411   2.007   6.064  15.425 -0.0881 -0.5070 -0.4668
 9307TIP3    H149412   2.075   6.116  15.382 -0.6195  0.2776 -0.3797
 9307TIP3    H249413   1.954   6.030  15.354  1.2778 -2.4167 -0.6334
 9308TIP3   OH249414   4.457   0.659   1.750  0.1212 -0.2373  0.3310
 9308TIP3    H149415   4.473   0.582   1.696  4.5839 -1.1461  2.4313
 9308TIP3    H249416   4.469   0.733   1.690  0.6449 -1.2019 -0.7975
 9309TIP3   OH249417   4.038   1.696  11.580  0.1414 -0.0365 -0.0126
 9309TIP3    H149418   4.106   1.762  11.593  0.3516 -0.6181  2.2321
 9309TIP3    H249419   4.075   1.615  11.616 -0.6209 -1.0760 -1.4877
 9310TIP3   OH249420   6.528   4.158   3.609 -0.0937  0.0049  0.2605
 9310TIP3    H149421   6.508   4.213   3.685  0.6247  0.7234 -0.0481
 9310TIP3    H249422   6.497   4.071   3.633 -0.6284  0.3995  1.0418
 9311TIP3   OH249423   6.146   4.821  11.285  0.2559 -1.0592 -0.1720
 9311TIP3    H149424   6.171   4.823  11.192  0.7302  1.1737 -0.0532
 9311TIP3    H249425   6.228   4.802  11.331  1.1843  2.5889 -0.0103
 9312TIP3   OH249426   6.629   2.638   0.624 -0.3126  0.2634 -0.4163
 9312TIP3    H149427   6.674   2.693   0.559 -0.4609 -0.2745 -0.9855
 9312TIP3    H249428   6.567   2.587   0.573  0.4795 -1.1261 -0.0361
 9313TIP3   OH249429   1.143   6.798   4.595 -0.0124 -0.0880 -0.2590
 9313TIP3    H149430   1.071   6.833   4.648 -0.8551 -2.1965  0.0839
 9313TIP3    H249431   1.223   6.826   4.641 -0.5673  2.2105 -0.5932
 9314TIP3   OH249432   1.685   1.959   2.913  0.0317  0.5647  0.2536
 9314TIP3    H149433   1.647   1.990   2.831 -0.0212 -1.1419 -0.4192
 9314TIP3    H249434   1.736   1.882   2.887  1.4645  1.0243  1.5789
 9315TIP3   OH249435   2.106   2.907  12.731 -0.1123  0.2041 -0.1033
 9315TIP3    H149436   2.131   2.858  12.653  0.0078 -0.1074  0.1261
 9315TIP3    H249437   2.054   2.980  12.698 -0.3587 -0.1229 -0.4471
 9316TIP3   OH249438   5.877   1.001  15.865 -0.3537  0.2743  0.5630
 9316TIP3    H149439   5.890   1.061  15.939  1.7205  0.9863 -0.2926
 9316TIP3    H249440   5.883   0.914  15.904 -1.7015  0.6063  1.5724
 9317TIP3   OH249441   4.966   1.864  14.218 -0.0459  1.1719 -0.1419
 9317TIP3    H149442   4.963   1.867  14.314 -0.6571  3.1946 -0.1668
 9317TIP3    H249443   4.878   1.838  14.192  0.6668 -1.4514 -0.1852
 9318TIP3   OH249444   6.748   5.306  13.499 -0.4306 -0.1638  0.4111
 9318TIP3    H149445   6.753   5.396  13.530 -0.8946  1.0078 -2.5153
 9318TIP3    H249446   6.828   5.264  13.532  1.1819  2.1305 -0.3307
 9319TIP3   OH249447   1.755   4.222   5.672 -0.6909 -0.3040 -0.3855
 9319TIP3    H149448   1.739   4.310   5.636 -0.6565 -0.1195  0.0411
 9319TIP3    H249449   1.739   4.163   5.599  0.4610  0.1328 -1.0079
 9320TIP3   OH249450   4.460   2.677   3.387  0.1839 -0.3825  0.1941
 9320TIP3    H149451   4.550   2.706   3.399  0.1252  0.1519 -0.5960
 9320TIP3    H249452   4.468   2.588   3.352  0.4658  0.3567 -1.7325
 9321TIP3   OH249453   4.489   5.826  13.899  0.2604  0.3643  0.0830
 9321TIP3    H149454   4.402   5.788  13.912  0.2971 -0.0720 -0.8296
 9321TIP3    H249455   4.542   5.789  13.969  0.2096 -1.0621 -0.5938
 9322TIP3   OH249456   6.193   3.075  14.998  0.1185  0.2921  0.2731
 9322TIP3    H149457   6.137   3.153  14.997 -0.0090  0.2106  0.7303
 9322TIP3    H249458   6.276   3.105  15.034  0.1437  0.2665  0.2366
 9323TIP3   OH249459   5.108   3.004  11.993  0.2274 -0.6264  0.1868
 9323TIP3    H149460   5.179   3.033  11.934  0.4398 -0.5821  0.4613
 9323TIP3    H249461   5.077   3.085  12.034  1.1329 -0.8274  1.3023
 9324TIP3   OH249462   0.596   4.299  12.861 -0.7526  0.5090  0.1638
 9324TIP3    H149463   0.642   4.324  12.781 -0.8410 -0.9166 -0.3584
 9324TIP3    H249464   0.504   4.319  12.844 -0.5409  1.9868  0.6526
 9325TIP3   OH249465   2.895   4.605   3.908 -0.0589  0.5393 -0.7124
 9325TIP3    H149466   2.850   4.569   3.984  0.1123 -0.3170 -0.9979
 9325TIP3    H249467   2.843   4.574   3.833  0.4367  0.3806 -0.9949
 9326TIP3   OH249468   2.791   2.284   2.207 -0.3005  0.6450  0.5106
 9326TIP3    H149469   2.826   2.197   2.188 -0.3733 -0.0039  2.9768
 9326TIP3    H249470   2.848   2.344   2.158 -0.3248 -0.7394 -1.3299
 9327TIP3   OH249471   6.408   2.526  11.270  1.3001  0.2809 -0.3267
 9327TIP3    H149472   6.408   2.431  11.260 -0.4989  0.4503 -2.9760
 9327TIP3    H249473   6.351   2.542  11.345  1.3304 -0.7071 -0.0774
 9328TIP3   OH249474   5.952   3.444   5.557  0.4142 -0.0726  0.1298
 9328TIP3    H149475   5.887   3.384   5.593 -0.5810  0.6076 -0.4970
 9328TIP3    H249476   5.954   3.518   5.618  0.6093 -0.0934  0.1503
 9329TIP3   OH249477   3.170   6.162  11.098 -0.3959  0.2735 -0.6177
 9329TIP3    H149478   3.170   6.252  11.066  0.0190  0.2996 -0.5508
 9329TIP3    H249479   3.144   6.169  11.190  0.7355  0.4485 -0.2971
 9330TIP3   OH249480   6.251   5.771   3.118  0.4742 -0.4790 -0.4334
 9330TIP3    H149481   6.186   5.705   3.096  1.1637 -1.6285  0.7900
 9330TIP3    H249482   6.213   5.817   3.194  0.6317 -0.4556 -0.3685
 9331TIP3   OH249483   6.206   0.403  11.433 -0.4608 -0.1851  0.3057
 9331TIP3    H149484   6.237   0.401  11.343  0.1752 -0.3343  0.5205
 9331TIP3    H249485   6.114   0.428  11.427 -0.9367 -1.9486 -0.5230
 9332TIP3   OH249486   6.240   0.316  12.286  0.2549  0.5720 -0.1249
 9332TIP3    H149487   6.250   0.230  12.247 -2.3692  0.1096  0.0466
 9332TIP3    H249488   6.228   0.375  12.212  0.2604  0.5001 -0.1829
 9333TIP3   OH249489   6.677   0.654  16.253  0.3661 -0.1051  0.2614
 9333TIP3    H149490   6.715   0.566  16.261 -0.1690 -0.5814 -1.8964
 9333TIP3    H249491   6.623   0.664  16.331  0.6842 -1.5538  0.6970
 9334TIP3   OH249492   4.947   4.368  12.055 -0.4281 -0.1819  0.3009
 9334TIP3    H149493   4.975   4.370  11.963  1.4807  0.5336  0.8625
 9334TIP3    H249494   4.887   4.442  12.063  2.7148  2.5572  0.5577
 9335TIP3   OH249495   0.333   4.982   2.005 -0.3467 -0.1439  0.0924
 9335TIP3    H149496   0.372   5.030   1.932  0.1645 -1.6768 -0.6827
 9335TIP3    H249497   0.282   5.048   2.052  2.3393  1.7716  0.5791
 9336TIP3   OH249498   3.037   2.698  13.697  0.1078 -0.0481 -0.1328
 9336TIP3    H149499   3.120   2.676  13.739 -0.4389 -1.0140  0.4865
 9336TIP3    H249500   3.013   2.618  13.650 -0.0679  0.5054 -1.0118
 9337TIP3   OH249501   0.405   6.520   5.019 -0.1970 -0.7089 -0.4729
 9337TIP3    H149502   0.408   6.607   5.059 -0.0082 -1.0372  0.2498
 9337TIP3    H249503   0.460   6.527   4.941  0.2218 -0.3178 -0.1460
 9338TIP3   OH249504   1.691   5.573  11.559 -0.0338  0.5020  0.2121
 9338TIP3    H149505   1.636   5.578  11.481  0.1179  2.6307  0.1771
 9338TIP3    H249506   1.777   5.600  11.530 -0.1002  1.8933  1.1796
 9339TIP3   OH249507   4.471   1.720   2.054 -0.0418  0.4765 -0.2853
 9339TIP3    H149508   4.545   1.724   1.994  1.8565 -1.8593  1.7147
 9339TIP3    H249509   4.508   1.740   2.140 -1.3928 -1.9962  0.9784
 9340TIP3   OH249510   5.692   0.638   3.882 -0.4088 -0.6431 -0.2301
 9340TIP3    H149511   5.746   0.576   3.931 -2.4172 -0.1532  2.9259
 9340TIP3    H249512   5.628   0.583   3.837  0.0091 -0.9944 -0.4089
 9341TIP3   OH249513   5.809   5.618   2.675 -0.1097 -0.8574 -0.1605
 9341TIP3    H149514   5.716   5.608   2.654  0.3090 -2.4213 -1.4265
 9341TIP3    H249515   5.833   5.701   2.635 -0.6855 -1.0226 -0.8654
 9342TIP3   OH249516   0.172   4.723  13.699 -0.4884 -0.2717  0.6394
 9342TIP3    H149517   0.090   4.773  13.703 -0.9102 -0.8574 -0.2458
 9342TIP3    H249518   0.182   4.687  13.787 -0.6246  0.6552  1.0481
 9343TIP3   OH249519   3.991   4.863  14.859 -0.3415  0.7590  0.7026
 9343TIP3    H149520   3.936   4.938  14.881  1.4965  2.5670 -0.4650
 9343TIP3    H249521   4.080   4.899  14.857  0.6672 -1.5724  0.5466
 9344TIP3   OH249522   6.767   6.063   4.202  0.2101  0.4164 -0.4077
 9344TIP3    H149523   6.753   6.059   4.297 -0.5251  0.6192 -0.5013
 9344TIP3    H249524   6.829   6.136   4.190  0.4572  0.2633 -0.0708
 9345TIP3   OH249525   6.520   4.427   6.502  0.0592  0.1366  0.0855
 9345TIP3    H149526   6.546   4.363   6.435 -1.6089  0.5139 -0.9752
 9345TIP3    H249527   6.560   4.509   6.474 -0.3148  0.2069 -0.2584
 9346TIP3   OH249528   3.710   2.490  14.048  0.6218  0.7866 -0.1875
 9346TIP3    H149529   3.637   2.508  13.989  0.6676 -2.0871 -1.2500
 9346TIP3    H249530   3.675   2.507  14.136 -2.0220 -2.1846 -0.5023
 9347TIP3   OH249531   4.791   2.028  16.885 -0.0635 -0.3574 -0.1064
 9347TIP3    H149532   4.746   2.093  16.830 -0.0017 -1.8197 -1.9880
 9347TIP3    H249533   4.721   1.970  16.916  0.2772 -2.0855 -2.2822
 9348TIP3   OH249534   1.773   0.463   1.506 -0.4908  0.0068 -0.2547
 9348TIP3    H149535   1.708   0.412   1.457 -2.8239  0.5474  2.0601
 9348TIP3    H249536   1.808   0.402   1.571 -0.6548  0.3985  0.2070
 9349TIP3   OH249537   6.429   2.783  12.819  0.5112  0.1335 -0.7769
 9349TIP3    H149538   6.492   2.719  12.787  0.7201 -0.4435  0.6695
 9349TIP3    H249539   6.482   2.854  12.856  0.3390 -0.2128  0.1741
 9350TIP3   OH249540   2.387   3.161  15.557 -0.5402  0.5118  0.3424
 9350TIP3    H149541   2.311   3.105  15.539 -0.2656 -0.0662  0.9126
 9350TIP3    H249542   2.463   3.108  15.531 -0.3473  1.2275 -0.5709
 9351TIP3   OH249543   2.558   0.391   4.247  0.3477  0.1654 -0.3124
 9351TIP3    H149544   2.502   0.424   4.177 -0.1095 -1.2030 -0.6375
 9351TIP3    H249545   2.642   0.434   4.232  0.1740  0.1337 -1.5354
 9352TIP3   OH249546   6.359   1.320   2.384 -0.3712  0.1146  0.4420
 9352TIP3    H149547   6.383   1.305   2.476 -0.1486  0.2744  0.4122
 9352TIP3    H249548   6.432   1.283   2.334 -0.2244  0.5330  0.3460
 9353TIP3   OH249549   5.573   0.026   2.986  0.5632  0.3587 -0.5835
 9353TIP3    H149550   5.609  -0.021   2.911  0.1562 -2.9542  1.0897
 9353TIP3    H249551   5.478   0.017   2.977  0.4392 -3.3425  1.8917
 9354TIP3   OH249552   0.902   3.039  14.780 -0.1080  0.2706  0.3144
 9354TIP3    H149553   0.850   3.025  14.700 -0.0102 -0.1230  0.3197
 9354TIP3    H249554   0.840   3.027  14.851 -0.1140  0.2646  0.3086
 9355TIP3   OH249555   5.204   4.503   2.002  0.1446  0.2592  0.7559
 9355TIP3    H149556   5.112   4.477   1.997  0.3412 -0.3414  0.0660
 9355TIP3    H249557   5.222   4.507   2.095 -0.6363  0.5946  0.9065
 9356TIP3   OH249558   6.459   3.345  16.940  0.6500 -0.4634 -0.4174
 9356TIP3    H149559   6.510   3.425  16.951 -0.1933  0.1801 -1.0796
 9356TIP3    H249560   6.464   3.326  16.846  1.4230 -1.5943 -0.1737
 9357TIP3   OH249561   6.745   2.505   4.946  0.5553  0.5938 -0.1956
 9357TIP3    H149562   6.761   2.544   5.032 -0.9373 -1.2469  0.9948
 9357TIP3    H249563   6.700   2.422   4.965 -0.0575  0.2513 -2.7733
 9358TIP3   OH249564   3.179   6.330   5.357 -0.5734  0.1344  0.1089
 9358TIP3    H149565   3.155   6.269   5.426  1.2096 -0.8319 -0.0688
 9358TIP3    H249566   3.196   6.275   5.280  2.0578  0.6569  0.2168
 9359TIP3   OH249567   4.797   4.050   3.821 -0.1713  0.1034 -0.3472
 9359TIP3    H149568   4.848   4.004   3.888  0.9222  0.2957 -1.0289
 9359TIP3    H249569   4.814   4.143   3.838 -0.4301  0.1782 -0.4868
 9360TIP3   OH249570   4.436   2.810   1.761  0.6214  0.6084 -0.2955
 9360TIP3    H149571   4.341   2.809   1.764  0.5722  2.2456 -0.4703
 9360TIP3    H249572   4.463   2.771   1.844 -0.2333  1.4238  0.3934
 9361TIP3   OH249573   0.824   1.168   1.943 -0.1473  0.1744  0.0209
 9361TIP3    H149574   0.804   1.151   1.851 -1.7088  0.8787  0.2076
 9361TIP3    H249575   0.756   1.227   1.972  1.3953  1.4850  1.1547
 9362TIP3   OH249576   0.344   3.306  15.058  0.7364  0.1273  0.3168
 9362TIP3    H149577   0.321   3.391  15.022  1.7122  0.8314  1.2875
 9362TIP3    H249578   0.338   3.246  14.984  2.3014  1.4476 -0.9508
 9363TIP3   OH249579   6.026   6.290  11.731  0.1369  0.1562 -0.1536
 9363TIP3    H149580   5.994   6.204  11.759  1.6027 -0.3641  0.0138
 9363TIP3    H249581   6.061   6.329  11.810 -0.3731  0.8494 -0.2666
 9364TIP3   OH249582   6.683   2.339   5.470  0.0963 -0.2171  0.1250
 9364TIP3    H149583   6.636   2.267   5.512 -1.3899 -0.0768 -1.1901
 9364TIP3    H249584   6.737   2.297   5.404  0.3699 -0.2399  0.3646
 9365TIP3   OH249585   2.242   4.812   0.289 -0.1466  0.1239 -0.0534
 9365TIP3    H149586   2.188   4.833   0.366 -0.7214  0.4136 -0.5235
 9365TIP3    H249587   2.331   4.806   0.323 -0.0041  2.7008  0.2543
 9366TIP3   OH249588   2.289   4.659  12.886 -0.3613  0.4191  0.2532
 9366TIP3    H149589   2.366   4.671  12.941 -0.0539 -2.2800  0.5606
 9366TIP3    H249590   2.229   4.607  12.940 -1.0612 -0.2225 -1.0870
 9367TIP3   OH249591   2.940   2.494   1.608 -0.0104 -0.3018  0.2309
 9367TIP3    H149592   3.015   2.545   1.577 -0.2585 -0.5913 -0.8809
 9367TIP3    H249593   2.914   2.442   1.532 -1.2621 -0.2932  0.6439
 9368TIP3   OH249594   2.776   3.751  11.063 -0.0537 -0.3055  0.6718
 9368TIP3    H149595   2.867   3.727  11.079 -0.2302 -1.8711 -0.3860
 9368TIP3    H249596   2.765   3.836  11.105  1.7813 -0.2712  1.1515
 9369TIP3   OH249597   0.351   1.279   4.136 -0.1819 -0.8768 -0.2610
 9369TIP3    H149598   0.367   1.193   4.098 -1.2634 -0.8177 -0.8916
 9369TIP3    H249599   0.271   1.268   4.187  0.2279 -0.4833  0.4829
 9370TIP3   OH249600   4.815   1.208   4.948 -0.1689  0.6600  0.8124
 9370TIP3    H149601   4.776   1.241   5.029 -2.2240  1.8576 -0.5665
 9370TIP3    H249602   4.845   1.287   4.902 -1.7736  0.3430 -0.8973
 9371TIP3   OH249603   1.799   3.090   1.060 -0.0744  0.2820 -0.1516
 9371TIP3    H149604   1.830   3.003   1.034  2.0892  0.5948  1.1053
 9371TIP3    H249605   1.800   3.088   1.156 -1.0246  1.3591 -0.0969
 9372TIP3   OH249606   3.524   0.309  12.935  0.3903 -0.1921  0.1800
 9372TIP3    H149607   3.522   0.256  12.855  2.1114 -0.4282  0.2616
 9372TIP3    H249608   3.432   0.313  12.963 -0.4418  0.8016 -2.3669
 9373TIP3   OH249609   4.834   4.908   2.215  0.0397 -0.2996  0.3372
 9373TIP3    H149610   4.844   4.984   2.272  2.2837 -1.6912  1.9438
 9373TIP3    H249611   4.758   4.862   2.250  1.0523 -0.8363  1.9076
 9374TIP3   OH249612   3.876   5.634  13.215  0.2540 -0.2281 -0.3965
 9374TIP3    H149613   3.814   5.561  13.211  0.3881 -0.3534 -0.2375
 9374TIP3    H249614   3.917   5.625  13.301  0.1459  0.1394 -0.3043
 9375TIP3   OH249615   0.730   6.485   5.262 -0.1160 -0.7103  0.0969
 9375TIP3    H149616   0.752   6.535   5.183  1.3310  0.8983  1.4369
 9375TIP3    H249617   0.807   6.495   5.318 -0.7278 -2.6120  1.3515
 9376TIP3   OH249618   5.395   3.578  12.869 -0.3801 -0.4051 -0.1557
 9376TIP3    H149619   5.407   3.566  12.774 -1.5907  0.2083 -0.3966
 9376TIP3    H249620   5.454   3.514  12.908 -0.1710 -0.9620 -1.3307
 9377TIP3   OH249621   3.965   2.521  13.362 -0.3903  0.3963 -0.3737
 9377TIP3    H149622   3.967   2.535  13.267  0.2158  1.3176 -0.2350
 9377TIP3    H249623   3.967   2.426  13.372  0.0783  0.3018 -1.2815
 9378TIP3   OH249624   4.972   0.530  13.277  0.8847  0.2707  0.2213
 9378TIP3    H149625   4.918   0.475  13.220  2.4650  1.2302 -2.4119
 9378TIP3    H249626   5.047   0.476  13.298  0.2674 -0.1066  1.5343
 9379TIP3   OH249627   6.089   4.097   1.381 -0.4743 -0.2086  0.2615
 9379TIP3    H149628   6.175   4.109   1.421 -0.1468 -0.2961 -0.4169
 9379TIP3    H249629   6.030   4.149   1.436 -0.1725 -0.9749  1.3562
 9380TIP3   OH249630   2.612   5.139  16.130 -0.3707  0.3290  0.5307
 9380TIP3    H149631   2.623   5.089  16.049 -0.9048  1.6864 -0.4196
 9380TIP3    H249632   2.698   5.178  16.145 -0.2006 -0.1312  0.7733
 9381TIP3   OH249633   4.563   0.674   2.029 -0.5678  0.8742  0.0884
 9381TIP3    H149634   4.528   0.763   2.032  0.8271  1.5310 -1.4801
 9381TIP3    H249635   4.555   0.648   1.937  1.5329  0.4572 -0.0194
 9382TIP3   OH249636   4.665   2.043   6.413 -0.6204  0.2637 -0.2842
 9382TIP3    H149637   4.622   1.958   6.408 -0.6022  0.2277  0.1130
 9382TIP3    H249638   4.698   2.047   6.503 -2.1202  1.4278  0.2441
 9383TIP3   OH249639   3.163   1.639   2.234 -1.0946 -0.4861 -0.1030
 9383TIP3    H149640   3.090   1.624   2.295 -2.6115 -1.0241 -1.9667
 9383TIP3    H249641   3.193   1.552   2.210  0.0774 -0.2673  0.5007
 9384TIP3   OH249642   6.518   2.179   2.539  0.3242  0.8769 -0.0059
 9384TIP3    H149643   6.537   2.116   2.470  1.6536  2.2919 -1.0126
 9384TIP3    H249644   6.423   2.190   2.536  0.3324  0.7830 -1.5253
 9385TIP3   OH249645   5.496   1.392  11.379  0.0810 -0.2828  0.4500
 9385TIP3    H149646   5.414   1.345  11.359  0.3986 -0.1266 -1.4323
 9385TIP3    H249647   5.470   1.484  11.387 -0.2185 -0.4751  2.0132
 9386TIP3   OH249648   3.600   1.710  15.387  0.1129  0.1377 -0.7332
 9386TIP3    H149649   3.505   1.699  15.379  0.1674 -1.0199 -0.0570
 9386TIP3    H249650   3.634   1.691  15.300 -0.2853  0.7670 -1.0322
 9387TIP3   OH249651   3.680   2.300  12.588  0.0403 -0.0366 -0.6386
 9387TIP3    H149652   3.694   2.349  12.507  0.7760 -0.2164 -0.6216
 9387TIP3    H249653   3.646   2.215  12.559 -0.2484  0.1037 -0.7209
 9388TIP3   OH249654   5.094   4.697  11.267 -0.4557 -0.1441  0.6076
 9388TIP3    H149655   5.139   4.771  11.225 -0.8718 -0.8474 -1.1767
 9388TIP3    H249656   5.037   4.663  11.198 -1.1331 -1.4110  1.7679
 9389TIP3   OH249657   4.412   3.484  16.818  0.2885 -0.3955  0.2996
 9389TIP3    H149658   4.471   3.525  16.755 -1.2211  0.4209 -0.6693
 9389TIP3    H249659   4.452   3.399  16.838  1.8066  0.1755 -0.2296
 9390TIP3   OH249660   5.587   1.109   0.764 -0.0944  0.1843 -0.2731
 9390TIP3    H149661   5.494   1.113   0.744 -0.4547  0.6527  1.3110
 9390TIP3    H249662   5.603   1.018   0.789  0.3608 -0.4051 -2.4926
 9391TIP3   OH249663   2.762   3.278  13.532  0.0650 -0.2452  0.2281
 9391TIP3    H149664   2.809   3.207  13.577 -1.6799 -0.6706  1.5035
 9391TIP3    H249665   2.671   3.250  13.534 -0.2498  0.3707 -2.4871
 9392TIP3   OH249666   0.084   3.722   0.742 -0.0551 -0.1914  0.7004
 9392TIP3    H149667   0.025   3.683   0.807 -1.7959  1.8436  0.4763
 9392TIP3    H249668   0.084   3.816   0.763  1.8489  0.0995 -0.3460
 9393TIP3   OH249669   5.367   5.032   5.274 -0.0509 -0.7913  0.0009
 9393TIP3    H149670   5.420   4.990   5.206 -2.9433 -2.1751 -1.5894
 9393TIP3    H249671   5.311   4.962   5.308 -1.7900  0.8045  0.6009
 9394TIP3   OH249672   4.247   5.661   0.324  0.5076  0.0470  0.2443
 9394TIP3    H149673   4.215   5.649   0.413  0.8091 -0.0815  0.3348
 9394TIP3    H249674   4.230   5.753   0.305  1.1266  0.2564  0.7009
 9395TIP3   OH249675   4.753   4.873  12.008 -0.1528 -0.4256 -0.1584
 9395TIP3    H149676   4.780   4.893  12.097 -0.4745  1.1017 -0.3821
 9395TIP3    H249677   4.717   4.955  11.975 -0.0034 -0.9605 -1.7099
 9396TIP3   OH249678   5.844   4.918  17.094  0.6693 -0.1169 -0.1170
 9396TIP3    H149679   5.846   4.897  17.188 -0.3315 -0.1817 -0.0953
 9396TIP3    H249680   5.782   4.856  17.057  0.6428  0.2667 -0.7249
 9397TIP3   OH249681   1.499   1.108   3.415 -0.2925 -0.1278  0.0263
 9397TIP3    H149682   1.548   1.133   3.337  0.2764  0.7537  0.6425
 9397TIP3    H249683   1.429   1.051   3.383  0.2814 -0.2466 -1.0405
 9398TIP3   OH249684   2.555   1.549   3.943 -0.1995 -0.4837 -0.3635
 9398TIP3    H149685   2.541   1.538   3.849  0.6265 -0.6151 -0.4744
 9398TIP3    H249686   2.541   1.643   3.958  1.0743 -0.2015 -0.8692
 9399TIP3   OH249687   4.796   2.514   4.220 -0.3483  0.0002  0.1314
 9399TIP3    H149688   4.715   2.497   4.172 -0.6665 -0.2652  0.7645
 9399TIP3    H249689   4.852   2.439   4.199 -0.6632 -0.3565  0.5500
 9400TIP3   OH249690   4.926   6.820   5.362 -0.5042 -0.3770 -0.1405
 9400TIP3    H149691   4.898   6.908   5.386  0.9941  0.6556 -1.8719
 9400TIP3    H249692   4.857   6.788   5.303 -0.7750 -0.1314  0.0437
 9401TIP3   OH249693   2.869   3.366  15.027 -0.0166 -0.1803 -0.1828
 9401TIP3    H149694   2.845   3.354  15.118 -0.3263  0.1674 -0.2158
 9401TIP3    H249695   2.837   3.288  14.983  0.3507 -0.4609  0.0457
 9402TIP3   OH249696   4.976   2.748  11.914 -0.8181  0.2187 -0.1430
 9402TIP3    H149697   4.941   2.770  11.828  0.2373 -0.2688 -0.7189
 9402TIP3    H249698   5.018   2.828  11.945  0.1750 -0.0197 -0.8018
 9403TIP3   OH249699   1.220   4.226   2.429  0.1213  1.0126  0.1801
 9403TIP3    H149700   1.137   4.179   2.418  0.2348  1.0291 -0.8058
 9403TIP3    H249701   1.275   4.167   2.479 -0.9445  1.5580  2.1077
 9404TIP3   OH249702   0.153   3.574  15.391  0.3255  0.5101 -0.0142
 9404TIP3    H149703   0.247   3.587  15.404  0.4174 -0.3508  0.3157
 9404TIP3    H249704   0.118   3.563  15.480  0.3359 -1.6422 -0.2149
 9405TIP3   OH249705   2.985   5.973  12.402 -0.4969  0.1562  0.0370
 9405TIP3    H149706   2.905   6.025  12.404 -0.7254 -0.0336 -1.7490
 9405TIP3    H249707   2.955   5.884  12.383  0.0233 -0.2647  1.1248
 9406TIP3   OH249708   5.144   4.202   1.839 -0.6854  0.5364 -0.3495
 9406TIP3    H149709   5.123   4.267   1.906 -0.0365 -0.0199  0.4127
 9406TIP3    H249710   5.240   4.196   1.841 -0.7849 -1.6996  0.8445
 9407TIP3   OH249711   4.175   3.814   4.525 -0.6889 -0.1486 -0.0265
 9407TIP3    H149712   4.185   3.752   4.597 -1.4030  1.4403  1.5243
 9407TIP3    H249713   4.149   3.760   4.450  1.4147 -2.0211  0.4849
 9408TIP3   OH249714   0.137   1.709  13.094  0.0950  0.7812  0.2573
 9408TIP3    H149715   0.224   1.748  13.099  1.8261 -2.7666  1.7813
 9408TIP3    H249716   0.081   1.769  13.142  2.0248  2.4641  0.5345
 9409TIP3   OH249717   2.987   5.964  16.542 -0.0740  0.0784  0.2548
 9409TIP3    H149718   2.940   5.991  16.621 -1.8015 -2.5619  0.2561
 9409TIP3    H249719   2.940   6.006  16.470 -0.7580 -0.3357  0.4468
 9410TIP3   OH249720   6.408   6.378   3.882 -0.6981  0.4495  0.2389
 9410TIP3    H149721   6.321   6.390   3.920 -0.7079  0.0349  0.3576
 9410TIP3    H249722   6.452   6.318   3.942 -1.7906 -2.8682 -1.9938
 9411TIP3   OH249723   0.160   0.408  14.371  0.0274 -0.2601  0.9971
 9411TIP3    H149724   0.073   0.420  14.410 -0.8975  1.6853 -1.4076
 9411TIP3    H249725   0.143   0.395  14.278  2.3293  0.1256  0.4641
 9412TIP3   OH249726   1.355   0.760   1.068 -0.1985  0.0901 -0.2162
 9412TIP3    H149727   1.360   0.696   0.996  0.2981  1.3251 -1.3103
 9412TIP3    H249728   1.425   0.734   1.128 -0.6265 -0.9639 -0.1417
 9413TIP3   OH249729   5.340   2.688  12.001  0.3689  0.0710  0.3579
 9413TIP3    H149730   5.268   2.633  12.034 -0.2652  1.1101  0.7537
 9413TIP3    H249731   5.357   2.751  12.072 -0.9225  2.2639 -1.1633
 9414TIP3   OH249732   1.668   3.918  13.800 -0.6158  0.2791  0.5984
 9414TIP3    H149733   1.689   4.012  13.799 -0.2406  0.2055 -0.6196
 9414TIP3    H249734   1.634   3.902  13.888 -1.2143  1.6692  0.6552
 9415TIP3   OH249735   1.108   0.037  16.752  0.1962 -0.3014  0.0862
 9415TIP3    H149736   1.071  -0.010  16.826 -2.7240  0.4107 -0.7726
 9415TIP3    H249737   1.189  -0.009  16.733  0.1934 -1.5459  2.6346
 9416TIP3   OH249738   3.846   0.973  11.143  0.1374 -0.1847  0.3726
 9416TIP3    H149739   3.805   0.921  11.074  0.7915  0.6193 -0.6523
 9416TIP3    H249740   3.789   0.961  11.219 -1.2261 -0.2149 -0.6114
 9417TIP3   OH249741   0.430   0.590  11.449 -0.1106  0.3431 -0.1618
 9417TIP3    H149742   0.497   0.548  11.502 -1.9463 -1.8647  0.5612
 9417TIP3    H249743   0.479   0.639  11.383  2.2154 -1.3737  0.1588
 9418TIP3   OH249744   5.710   4.032   2.026 -0.0571 -0.7099 -0.1958
 9418TIP3    H149745   5.743   4.011   2.114  0.0710  1.3315  0.2909
 9418TIP3    H249746   5.743   3.961   1.971  0.6387 -1.5515  1.2389
 9419TIP3   OH249747   5.414   1.296   5.990  0.0593 -0.5686  0.5270
 9419TIP3    H149748   5.409   1.287   6.085 -0.1502  0.9024  0.6770
 9419TIP3    H249749   5.323   1.306   5.963  0.1540 -0.5057  0.2303
 9420TIP3   OH249750   3.643   2.319   4.545 -0.1749 -0.4034 -0.7610
 9420TIP3    H149751   3.601   2.265   4.478 -1.9125 -2.9758  2.1050
 9420TIP3    H249752   3.580   2.389   4.562 -1.7373 -2.0918  0.8780
 9421TIP3   OH249753   0.488   1.926   2.061 -0.4089 -0.2798  0.0634
 9421TIP3    H149754   0.486   2.022   2.057 -1.3497 -0.3388 -1.5987
 9421TIP3    H249755   0.482   1.907   2.155 -0.9272  1.2795  0.3883
 9422TIP3   OH249756   3.549   4.583   4.607  0.3616 -0.1697  0.2844
 9422TIP3    H149757   3.581   4.501   4.646 -3.2862 -1.0043  1.9414
 9422TIP3    H249758   3.474   4.557   4.555  0.1402  1.9725 -0.5496
 9423TIP3   OH249759   5.019   3.899  12.538 -0.2184 -0.1713 -0.0535
 9423TIP3    H149760   4.927   3.905  12.561 -0.6138 -0.4629 -1.4688
 9423TIP3    H249761   5.055   3.833  12.597 -0.4471  1.2830  1.8099
 9424TIP3   OH249762   4.857   6.231   3.670 -0.2030 -0.2024 -0.2791
 9424TIP3    H149763   4.862   6.139   3.696 -0.1526 -0.4288 -1.0502
 9424TIP3    H249764   4.872   6.280   3.751 -1.3123 -0.8600  0.3473
 9425TIP3   OH249765   2.737   0.847  11.661 -0.1241  0.0454 -0.5304
 9425TIP3    H149766   2.799   0.783  11.625 -0.3655 -1.2224  1.1663
 9425TIP3    H249767   2.754   0.847  11.755 -2.4925 -0.1377 -0.0306
 9426TIP3   OH249768   4.603   3.374   5.241 -0.3568  1.0778 -0.1494
 9426TIP3    H149769   4.579   3.452   5.291  0.9647  1.4888 -0.1042
 9426TIP3    H249770   4.524   3.351   5.192 -1.7781  0.5514  2.2104
 9427TIP3   OH249771   1.465   5.011  15.164 -0.2251 -0.2589  0.1926
 9427TIP3    H149772   1.420   5.090  15.195  1.3691  1.2448 -1.0977
 9427TIP3    H249773   1.535   4.996  15.228 -1.4876 -1.6416  1.3168
 9428TIP3   OH249774   0.179   5.194   5.010  0.4119  0.0438 -0.5132
 9428TIP3    H149775   0.094   5.200   5.052  1.0991  0.4954  0.8728
 9428TIP3    H249776   0.203   5.285   4.991 -0.0972 -0.1711 -2.3923
 9429TIP3   OH249777   0.252   0.938   1.302 -0.2132  0.4613  0.2403
 9429TIP3    H149778   0.157   0.927   1.297 -0.7197  0.3376  5.1418
 9429TIP3    H249779   0.264   1.032   1.318  0.2563  0.2056  1.4945
 9430TIP3   OH249780   2.875   6.778  13.372  0.4117  0.5775  0.4519
 9430TIP3    H149781   2.835   6.752  13.455 -0.4072  0.4079  0.0177
 9430TIP3    H249782   2.950   6.719  13.363 -0.9250 -1.1263 -0.1063
 9431TIP3   OH249783   2.499   1.174  12.765  0.1617  0.0637  0.0188
 9431TIP3    H149784   2.504   1.156  12.671 -1.8308 -0.3950 -0.0466
 9431TIP3    H249785   2.493   1.087  12.806  0.7943  0.2692  0.5661
 9432TIP3   OH249786   3.022   1.752   0.152 -0.3975 -0.0107  0.0654
 9432TIP3    H149787   3.093   1.688   0.145 -1.4448 -1.2613  0.4954
 9432TIP3    H249788   3.043   1.818   0.086 -0.0439 -1.5648 -1.4597
 9433TIP3   OH249789   4.346   0.539  11.886 -0.3348  0.4408  0.0514
 9433TIP3    H149790   4.410   0.520  11.817 -0.8002 -1.1298 -0.0058
 9433TIP3    H249791   4.320   0.629  11.871  1.5182  0.9819 -0.1954
 9434TIP3   OH249792   4.787   5.528   5.701 -0.7397 -0.1554 -0.4457
 9434TIP3    H149793   4.740   5.513   5.619  0.0640 -0.7578 -0.8046
 9434TIP3    H249794   4.869   5.479   5.691 -0.9151 -0.7728  0.9730
 9435TIP3   OH249795   3.496   2.521  11.548 -0.5150 -0.1933  0.4113
 9435TIP3    H149796   3.543   2.584  11.603  0.4571 -0.5494  0.0090
 9435TIP3    H249797   3.541   2.437  11.564 -1.7771 -0.8070  0.9313
 9436TIP3   OH249798   6.782   0.741  14.997 -0.7164  0.1997  0.2070
 9436TIP3    H149799   6.876   0.735  15.012 -0.7492 -0.0125  0.3188
 9436TIP3    H249800   6.770   0.828  14.957 -0.7194  1.0716  2.0116
 9437TIP3   OH249801   6.440   6.268  16.264 -0.2288  0.5267  0.5199
 9437TIP3    H149802   6.387   6.264  16.184  0.4254 -0.7167  0.1204
 9437TIP3    H249803   6.411   6.348  16.308  0.7722  2.3484 -1.9131
 9438TIP3   OH249804   5.617   4.592   0.201 -0.0266 -0.2906  0.2063
 9438TIP3    H149805   5.619   4.537   0.123 -2.2303 -0.2727  0.0721
 9438TIP3    H249806   5.611   4.530   0.274  0.5522 -0.2748  0.2712
 9439TIP3   OH249807   5.611   0.217  11.017  0.5997 -0.3170  0.1770
 9439TIP3    H149808   5.527   0.260  11.034  0.0470 -0.9395 -0.8612
 9439TIP3    H249809   5.646   0.262  10.940  0.7756 -0.6624  0.0535
 9440TIP3   OH249810   3.764   5.002  15.929 -0.6557 -0.0191 -0.2267
 9440TIP3    H149811   3.804   4.937  15.987 -0.4618  0.3878  0.0988
 9440TIP3    H249812   3.696   5.043  15.982  0.3519  1.2361  0.1503
 9441TIP3   OH249813   1.767   3.594  11.209 -0.7275 -0.1066 -0.2868
 9441TIP3    H149814   1.813   3.677  11.194 -0.2420 -0.2409  0.4082
 9441TIP3    H249815   1.804   3.560  11.290  0.0703 -1.6698 -1.2340
 9442TIP3   OH249816   6.142   3.131  16.121 -0.1338 -0.3353  0.1022
 9442TIP3    H149817   6.057   3.116  16.079  0.4541  1.2432 -1.7966
 9442TIP3    H249818   6.124   3.197  16.188 -0.8054 -1.8164  1.4599
 9443TIP3   OH249819   4.589   1.292  16.075  0.0739  0.6115 -0.2569
 9443TIP3    H149820   4.526   1.363  16.078 -1.1761 -0.4080 -1.2888
 9443TIP3    H249821   4.545   1.218  16.118  1.2644  0.3660  0.6210
 9444TIP3   OH249822   2.024   2.111   1.536  0.4599  0.2243  0.1227
 9444TIP3    H149823   2.047   2.025   1.571  0.1600  0.6546  1.4302
 9444TIP3    H249824   2.104   2.163   1.546  0.5007  0.2366 -0.2407
 9445TIP3   OH249825   0.448   0.153  13.041 -0.0303 -0.1502  0.0455
 9445TIP3    H149826   0.380   0.086  13.031 -0.1749 -0.0036  0.0462
 9445TIP3    H249827   0.476   0.172  12.951 -0.4993  0.3126 -0.0053
 9446TIP3   OH249828   3.538   5.869   5.039  0.2476  0.0195  0.1355
 9446TIP3    H149829   3.558   5.842   4.950 -1.0584  0.5437 -0.3318
 9446TIP3    H249830   3.462   5.927   5.031 -0.2723 -0.3999  1.6422
 9447TIP3   OH249831   3.733   2.694   4.395 -0.4616  0.9706 -0.1979
 9447TIP3    H149832   3.778   2.713   4.477  1.0874  0.4001 -0.8753
 9447TIP3    H249833   3.798   2.648   4.342 -1.9212 -0.0954 -1.1548
 9448TIP3   OH249834   3.776   2.348  15.560 -0.4043 -0.2765  0.1372
 9448TIP3    H149835   3.776   2.296  15.480 -0.7111 -1.8567  1.1215
 9448TIP3    H249836   3.714   2.419  15.543  1.5900  1.0877 -1.9897
 9449TIP3   OH249837   1.392   1.829   1.036 -0.1937 -0.8585 -0.2191
 9449TIP3    H149838   1.444   1.909   1.038 -0.1669 -0.7172 -2.8393
 9449TIP3    H249839   1.425   1.777   1.108  1.1614  0.6715  0.3277
 9450TIP3   OH249840   4.843   4.541   0.432 -0.5213 -0.8275  0.5016
 9450TIP3    H149841   4.775   4.608   0.426 -0.7864 -1.1452 -0.1323
 9450TIP3    H249842   4.806   4.465   0.388 -0.9255 -2.0273  2.7884
 9451TIP3   OH249843   3.695   0.715   3.952 -0.0576  0.0766 -0.5816
 9451TIP3    H149844   3.739   0.689   3.871 -0.8714 -0.8802 -0.7322
 9451TIP3    H249845   3.748   0.787   3.986  0.4354  0.3302 -1.8373
 9452TIP3   OH249846   0.747   2.987  11.396 -0.1856  0.2162 -0.0516
 9452TIP3    H149847   0.686   2.967  11.467  2.1811 -1.7808  1.5701
 9452TIP3    H249848   0.819   3.034  11.438  0.1123  1.2584 -1.6451
 9453TIP3   OH249849   0.833   0.251   0.870 -0.7067 -0.5711 -0.1447
 9453TIP3    H149850   0.786   0.320   0.823  0.6149  1.7106  1.6861
 9453TIP3    H249851   0.923   0.256   0.836 -0.1036  0.0831  1.4826
 9454TIP3   OH249852   0.079   0.298  11.657  0.3190 -0.1854 -0.3389
 9454TIP3    H149853   0.001   0.243  11.666  0.3208 -0.2312 -0.5940
 9454TIP3    H249854   0.055   0.381  11.699  1.1730 -1.1924  2.3665
 9455TIP3   OH249855   4.991   4.852  14.407 -0.2403  0.2567  0.6643
 9455TIP3    H149856   5.000   4.926  14.467  2.6613  1.1341 -0.6615
 9455TIP3    H249857   4.900   4.855  14.378 -0.2276  3.3426  0.6223
 9456TIP3   OH249858   1.564   2.122   6.584  0.2428  0.0366  0.0072
 9456TIP3    H149859   1.635   2.179   6.554  0.4588  0.1019  0.6438
 9456TIP3    H249860   1.495   2.183   6.610  0.8764  0.0585  1.7179
 9457TIP3   OH249861   6.682   4.765  10.881 -0.9316 -0.2211  0.0953
 9457TIP3    H149862   6.608   4.724  10.836 -0.2616 -1.6589  0.2297
 9457TIP3    H249863   6.681   4.727  10.969 -0.5258  0.3836  0.3701
 9458TIP3   OH249864   1.127   6.355  12.331 -0.4230 -0.2388  0.2924
 9458TIP3    H149865   1.102   6.448  12.332 -1.0421 -0.4026  0.1574
 9458TIP3    H249866   1.129   6.331  12.424 -3.1487 -0.8409  0.2608
 9459TIP3   OH249867   0.602   2.037  10.633 -0.6263  0.4686 -0.4400
 9459TIP3    H149868   0.519   2.046  10.679 -0.1480  0.5071  0.4351
 9459TIP3    H249869   0.669   2.046  10.701  0.0865 -0.0472 -1.0500
 9460TIP3   OH249870   1.402   1.839   5.859 -1.0151  0.6955  0.2755
 9460TIP3    H149871   1.377   1.785   5.783  0.2727 -0.2575  0.4957
 9460TIP3    H249872   1.370   1.790   5.935  1.2749 -0.4720  0.5521
 9461TIP3   OH249873   6.427   0.395  11.618 -0.3266  0.3472  0.3977
 9461TIP3    H149874   6.464   0.482  11.634 -0.0636  0.1452  0.9209
 9461TIP3    H249875   6.377   0.405  11.538 -0.4470  1.0290  0.5494
 9462TIP3   OH249876   6.123   1.838  13.784  0.1830 -0.1050 -0.3267
 9462TIP3    H149877   6.031   1.866  13.792  0.2947 -0.0106  0.7520
 9462TIP3    H249878   6.172   1.920  13.776  0.2831 -0.1052  0.2996
 9463TIP3   OH249879   5.512   0.704  15.040 -0.1499  0.6630  0.0342
 9463TIP3    H149880   5.594   0.732  15.000  0.2575 -2.8781 -2.0508
 9463TIP3    H249881   5.448   0.706  14.969 -0.7827 -0.5617  0.5296
 9464TIP3   OH249882   1.479   1.114  13.114  0.1126 -0.2329 -0.3105
 9464TIP3    H149883   1.422   1.087  13.186 -0.2924  0.0666 -0.5155
 9464TIP3    H249884   1.478   1.040  13.054 -0.7153  0.0887 -0.7028
 9465TIP3   OH249885   3.616   3.628  16.808  0.5182  0.4456  0.0290
 9465TIP3    H149886   3.691   3.611  16.751  0.8083  0.5974  0.3624
 9465TIP3    H249887   3.650   3.615  16.897  0.5845  2.1046  0.2710
 9466TIP3   OH249888   3.322   1.029  16.580  1.0122 -0.0355 -0.1026
 9466TIP3    H149889   3.318   1.062  16.670  0.8041  0.1432 -0.1767
 9466TIP3    H249890   3.254   0.963  16.575  0.5369  0.4679 -0.3332
 9467TIP3   OH249891   3.099   4.606  16.201  0.3310 -0.2678  0.7738
 9467TIP3    H149892   3.037   4.677  16.186 -0.3219 -1.1468 -1.1265
 9467TIP3    H249893   3.051   4.543  16.256 -0.5841 -0.9823 -0.7528
 9468TIP3   OH249894   2.151   5.797  16.447  0.0971 -0.0830 -0.1616
 9468TIP3    H149895   2.113   5.843  16.372 -0.7745  0.3966  0.5443
 9468TIP3    H249896   2.218   5.858  16.480  1.1660 -0.7105 -1.1031
 9469TIP3   OH249897   4.623   4.806  14.587 -0.7389  0.2174  0.4375
 9469TIP3    H149898   4.648   4.808  14.494 -0.3555 -0.4118  0.5222
 9469TIP3    H249899   4.581   4.891  14.602  1.5504  1.4750  0.3278
 9470TIP3   OH249900   6.803   4.207  14.979 -0.1308 -0.6474  0.0009
 9470TIP3    H149901   6.770   4.119  15.000  3.2856 -2.2068 -0.5208
 9470TIP3    H249902   6.835   4.201  14.889  1.5705  0.6344  0.4559
 9471TIP3   OH249903   2.318   6.228   0.731  0.2414  0.2951  0.5040
 9471TIP3    H149904   2.260   6.155   0.709  1.6322 -0.3290 -1.4281
 9471TIP3    H249905   2.287   6.300   0.676  0.8852  0.1564 -0.0442
 9472TIP3   OH249906   3.618   6.749   2.330 -0.4913 -0.3348  0.5431
 9472TIP3    H149907   3.654   6.811   2.266 -0.1817  1.7656  2.6285
 9472TIP3    H249908   3.628   6.792   2.414 -3.3756 -1.7922  1.7938
 9473TIP3   OH249909   5.926   2.975   5.302  0.7012 -0.3664 -0.3761
 9473TIP3    H149910   5.967   2.896   5.338  0.7186 -0.1473  0.0971
 9473TIP3    H249911   5.957   3.045   5.359  1.5897  0.1574 -1.4613
 9474TIP3   OH249912   4.244   2.430  15.597  0.7119 -0.2185 -0.0198
 9474TIP3    H149913   4.285   2.381  15.668  0.0170  1.0709  1.3235
 9474TIP3    H249914   4.155   2.446  15.626  0.1872 -0.2472 -1.5101
 9475TIP3   OH249915   5.847   4.131  12.622 -0.0492 -0.2572  0.0530
 9475TIP3    H149916   5.873   4.040  12.633  1.0945 -0.1687 -1.5364
 9475TIP3    H249917   5.808   4.135  12.535  0.5037  0.8610 -0.1669
 9476TIP3   OH249918   3.247   6.328   2.981  0.3607  0.5671 -0.1539
 9476TIP3    H149919   3.218   6.354   2.894 -0.0907 -0.8141 -0.4338
 9476TIP3    H249920   3.265   6.411   3.026  2.6537  1.2902 -2.2064
 9477TIP3   OH249921   0.512   1.504  14.974  0.2962 -0.2631 -0.3578
 9477TIP3    H149922   0.471   1.426  15.012 -0.8368 -0.4883 -1.8872
 9477TIP3    H249923   0.499   1.573  15.039 -1.6000 -0.6107 -0.2942
 9478TIP3   OH249924   4.097   4.608  14.791  0.1858  0.3695  0.1325
 9478TIP3    H149925   4.079   4.595  14.698  1.1768 -0.5957  0.0559
 9478TIP3    H249926   4.038   4.679  14.817 -0.4762  0.3031 -1.1029
 9479TIP3   OH249927   0.256   4.621  11.153  0.4779  0.3086 -0.2458
 9479TIP3    H149928   0.194   4.685  11.118 -0.4765 -0.1818  0.5032
 9479TIP3    H249929   0.218   4.594  11.237  1.8118  0.1479  0.3265
 9480TIP3   OH249930   0.037   3.987   0.173 -0.1362  0.3931  0.5573
 9480TIP3    H149931  -0.023   3.996   0.099  0.6657 -0.3680 -0.1996
 9480TIP3    H249932   0.094   4.063   0.167  0.0092  0.2665  0.3134
 9481TIP3   OH249933   1.907   4.126  12.712 -0.0398  0.6749  0.4934
 9481TIP3    H149934   1.940   4.131  12.802  1.1951 -3.5611  0.4633
 9481TIP3    H249935   1.980   4.090  12.661 -2.0543 -1.1841 -1.2892
 9482TIP3   OH249936   0.759   2.215   3.252 -0.0861 -0.0326  0.1947
 9482TIP3    H149937   0.735   2.275   3.181 -0.1846  0.3105  0.5201
 9482TIP3    H249938   0.833   2.165   3.216 -0.6837 -0.4614 -0.4748
 9483TIP3   OH249939   0.159   5.261  12.836  0.3631 -0.0126  0.3055
 9483TIP3    H149940   0.207   5.344  12.845 -1.4065  0.9119  1.8778
 9483TIP3    H249941   0.171   5.237  12.744  1.6215  1.5526  0.0071
 9484TIP3   OH249942   5.963   3.507   2.932  0.3224 -0.2565  0.1741
 9484TIP3    H149943   5.884   3.560   2.920  0.0509 -0.3193  1.4551
 9484TIP3    H249944   5.954   3.435   2.869 -0.1983  0.2320 -0.3168
 9485TIP3   OH249945   6.673   4.609  15.133 -0.9768 -0.0130 -0.0537
 9485TIP3    H149946   6.738   4.553  15.091 -0.6621 -0.6138  1.1878
 9485TIP3    H249947   6.725   4.675  15.179 -1.2890  0.1748  0.0329
 9486TIP3   OH249948   4.219   0.014  11.658  0.0418  0.0862  0.4360
 9486TIP3    H149949   4.293   0.074  11.652  0.0936  0.1180  1.2714
 9486TIP3    H249950   4.256  -0.073  11.642  0.1480  0.1620  0.2681
 9487TIP3   OH249951   5.889   2.725  10.537 -0.4119  0.2239 -0.0984
 9487TIP3    H149952   5.955   2.739  10.469 -0.5627 -0.9587 -0.5189
 9487TIP3    H249953   5.861   2.813  10.563 -0.6589  0.6996 -1.8634
 9488TIP3   OH249954   4.560   6.423   0.445  0.1598 -0.2460 -0.7667
 9488TIP3    H149955   4.560   6.339   0.398  1.1985 -0.0996 -1.0536
 9488TIP3    H249956   4.623   6.411   0.516 -0.6848 -0.1401  0.0244
 9489TIP3   OH249957   4.809   2.713  10.761 -1.0327 -0.0030 -0.2906
 9489TIP3    H149958   4.765   2.636  10.726  0.6738 -1.1681  0.0167
 9489TIP3    H249959   4.900   2.686  10.773 -0.3017  2.1442 -0.4441
 9490TIP3   OH249960   3.155   5.033  16.599  0.7576  0.0790  0.0075
 9490TIP3    H149961   3.154   5.062  16.690 -1.5992 -0.0699  0.0726
 9490TIP3    H249962   3.064   5.010  16.580  1.3914 -0.8972 -2.0711
 9491TIP3   OH249963   4.351   4.940   1.735  0.3698  0.6175  0.2334
 9491TIP3    H149964   4.308   4.856   1.744  1.8299 -0.1494  0.3890
 9491TIP3    H249965   4.444   4.921   1.746  0.6855  2.3481  0.9757
 9492TIP3   OH249966   0.403   0.982   4.248  0.4207 -0.1267 -0.0414
 9492TIP3    H149967   0.350   0.959   4.172 -1.2990  0.0164  1.0630
 9492TIP3    H249968   0.424   0.898   4.289 -1.3169 -0.0814  1.0229
 9493TIP3   OH249969   3.977   4.878  15.236  0.6577  0.4150 -0.4213
 9493TIP3    H149970   3.980   4.929  15.316  1.2421 -0.4762  0.1424
 9493TIP3    H249971   3.884   4.871  15.215  0.3940 -0.5966  1.0043
 9494TIP3   OH249972   3.358   2.726  12.975  0.4715  0.0649  0.1754
 9494TIP3    H149973   3.451   2.722  12.955  0.2395  2.6947 -1.9495
 9494TIP3    H249974   3.343   2.817  13.001 -1.2456 -0.7202  2.1583
 9495TIP3   OH249975   5.198   5.695   1.426 -0.1886  0.0701 -0.6986
 9495TIP3    H149976   5.256   5.619   1.420 -0.2727  0.0255 -0.9737
 9495TIP3    H249977   5.134   5.671   1.493 -0.3126 -0.1713 -0.8993
 9496TIP3   OH249978   5.631   4.333  12.219  0.5455 -0.0934  0.0250
 9496TIP3    H149979   5.542   4.326  12.253  0.1587 -1.8167 -1.2232
 9496TIP3    H249980   5.648   4.249  12.177  2.9360  0.0311  0.5656
 9497TIP3   OH249981   4.141   2.468   3.021 -0.3298 -0.1478 -0.1410
 9497TIP3    H149982   4.085   2.524   2.967 -2.4090  0.2806  2.2939
 9497TIP3    H249983   4.181   2.527   3.085  2.2486 -0.6116 -1.1927
 9498TIP3   OH249984   5.323   6.325  14.597 -0.3014  0.4720  0.8545
 9498TIP3    H149985   5.342   6.409  14.639  1.2651  0.7323 -0.2852
 9498TIP3    H249986   5.244   6.341  14.546 -0.6520  0.9197  1.5181
 9499TIP3   OH249987   5.017   2.298  15.372 -0.6405  0.0423 -0.1319
 9499TIP3    H149988   5.013   2.388  15.341  0.7885  0.4726  0.8205
 9499TIP3    H249989   4.947   2.291  15.436 -0.8671  0.4149 -0.3370
 9500TIP3   OH249990   3.519   4.833  15.800 -0.6145  0.0397  0.1695
 9500TIP3    H149991   3.576   4.894  15.848 -0.1581  0.9655 -1.4567
 9500TIP3    H249992   3.577   4.789  15.739 -1.2639 -0.7524  0.1095
 9501TIP3   OH249993   0.708   4.170  16.440  0.5019  0.1234 -0.2435
 9501TIP3    H149994   0.615   4.192  16.450  0.1624 -0.3102 -2.0593
 9501TIP3    H249995   0.716   4.082  16.476  0.1867  0.1196 -0.1789
 9502TIP3   OH249996   1.551   2.662   2.489 -0.0246 -0.4150 -0.1474
 9502TIP3    H149997   1.619   2.723   2.521 -0.3554  0.5610 -1.2291
 9502TIP3    H249998   1.600   2.590   2.451  0.4880  0.7950 -1.9115
 9503TIP3   OH249999   6.372   4.339  11.572  0.8299  0.3352 -0.4390
 9503TIP3    H150000   6.404   4.408  11.514  1.6288 -0.5622 -1.0927
 9503TIP3    H250001   6.321   4.386  11.638  1.8204  1.6112 -0.5270
 9504TIP3   OH250002   4.804   6.369   1.996 -0.0973  0.2357 -0.0218
 9504TIP3    H150003   4.728   6.411   2.035 -0.8873  0.4222 -1.6890
 9504TIP3    H250004   4.841   6.436   1.938  0.6702 -0.2359 -0.0886
 9505TIP3   OH250005   4.893   2.918  17.147 -0.1484 -0.3657 -0.2659
 9505TIP3    H150006   4.873   2.966  17.066 -1.7913 -1.4055 -0.5289
 9505TIP3    H250007   4.951   2.976  17.196 -2.6334  2.2797 -0.2120
 9506TIP3   OH250008   1.042   4.771  15.849  0.5935  0.1450  0.1605
 9506TIP3    H150009   1.031   4.718  15.769  0.4259 -0.7744  0.7750
 9506TIP3    H250010   1.118   4.826  15.831 -0.3166  1.0199 -1.1966
 9507TIP3   OH250011   0.988   1.439  14.022 -0.7848 -0.1564 -0.0953
 9507TIP3    H150012   1.012   1.454  14.113 -0.0598  1.1558 -0.4774
 9507TIP3    H250013   0.965   1.525  13.988  0.3305 -0.3863 -1.5361
 9508TIP3   OH250014   6.739   5.807   4.532 -0.0436 -0.2256  0.4727
 9508TIP3    H150015   6.715   5.791   4.441  0.3758 -0.5331  0.4105
 9508TIP3    H250016   6.672   5.867   4.565 -0.5300 -0.5731  0.1317
 9509TIP3   OH250017   1.473   2.494   0.215 -0.1449 -0.2310 -0.0019
 9509TIP3    H150018   1.470   2.399   0.230  0.1777 -0.0558  1.2603
 9509TIP3    H250019   1.392   2.513   0.168 -0.8290 -0.9504  0.8404
 9510TIP3   OH250020   0.343   4.701   2.628 -0.1673  0.7431 -0.2784
 9510TIP3    H150021   0.402   4.626   2.642  0.8288  1.4831 -0.3702
 9510TIP3    H250022   0.303   4.685   2.543 -1.0479 -0.3850  0.3262
 9511TIP3   OH250023   3.333   1.485   0.499  0.1223  0.0391  0.2561
 9511TIP3    H150024   3.346   1.424   0.427 -0.4155  0.1991  0.0240
 9511TIP3    H250025   3.334   1.430   0.577 -0.9696 -0.3624  0.0092
 9512TIP3   OH250026   4.833   5.603  16.696 -0.1804 -0.1224 -0.1565
 9512TIP3    H150027   4.775   5.551  16.752  0.1253  0.2575  0.5233
 9512TIP3    H250028   4.846   5.685  16.744  1.4975 -0.4757  0.0801
 9513TIP3   OH250029   0.636   0.713   3.836  0.2627 -0.3581 -0.5358
 9513TIP3    H150030   0.718   0.712   3.886 -0.3083  0.7826  0.4983
 9513TIP3    H250031   0.569   0.687   3.900 -0.2409 -0.9073 -1.2680
 9514TIP3   OH250032   2.041   3.694  11.912 -0.1408 -0.2057 -0.1648
 9514TIP3    H150033   2.000   3.753  11.976  1.6470  1.8947 -0.8150
 9514TIP3    H250034   2.017   3.732  11.827  2.5424  0.7579 -0.5665
 9515TIP3   OH250035   3.162   1.910  11.734 -0.0369  0.1068  0.3881
 9515TIP3    H150036   3.186   1.978  11.796 -0.0172  0.8005 -0.3573
 9515TIP3    H250037   3.245   1.868  11.711 -0.0894 -0.3912  1.0948
 9516TIP3   OH250038   2.766   1.044   1.608 -0.1619 -0.4015  0.0943
 9516TIP3    H150039   2.788   0.964   1.655 -0.2830 -0.2258  0.4515
 9516TIP3    H250040   2.671   1.052   1.617  0.0748  0.9075  1.8911
 9517TIP3   OH250041   2.920   1.454   3.619  0.5935  0.0968 -0.3648
 9517TIP3    H150042   2.980   1.528   3.634 -1.1615  1.5519 -0.1472
 9517TIP3    H250043   2.907   1.416   3.706 -0.4681  1.1849 -0.0108
 9518TIP3   OH250044   6.601   0.124  15.535  0.3583  0.0402  0.8397
 9518TIP3    H150045   6.562   0.191  15.590  0.3793 -0.2687  1.2367
 9518TIP3    H250046   6.670   0.169  15.486 -0.8509  0.7254 -0.3080
 9519TIP3   OH250047   4.591   1.972  13.581  0.2020  0.0816  0.0285
 9519TIP3    H150048   4.502   1.961  13.549  0.6789  1.2287 -1.8668
 9519TIP3    H250049   4.643   1.988  13.502  2.0662 -0.3683  1.1009
 9520TIP3   OH250050   5.187   5.077   1.360 -0.1804 -0.2787 -0.0866
 9520TIP3    H150051   5.210   4.990   1.393 -0.9390 -0.3934  0.1550
 9520TIP3    H250052   5.140   5.119   1.432 -1.3702 -0.3298 -0.7993
 9521TIP3   OH250053   5.913   2.138  16.238 -0.4612  0.0013 -0.4020
 9521TIP3    H150054   5.887   2.222  16.200  0.3130  0.9661  1.0758
 9521TIP3    H250055   5.845   2.119  16.303  1.0782  1.2830  1.7105
 9522TIP3   OH250056   3.545   1.635  15.828  0.4701  0.3085  0.2305
 9522TIP3    H150057   3.510   1.675  15.908  0.0986 -0.1904  0.3213
 9522TIP3    H250058   3.584   1.708  15.780  0.0449  0.7318  0.5220
 9523TIP3   OH250059   6.791   6.195  16.350  0.2190 -0.3928 -0.0027
 9523TIP3    H150060   6.727   6.157  16.411  1.5147 -1.2975  0.8386
 9523TIP3    H250061   6.802   6.285  16.380 -0.7448 -0.1862 -0.2395
 9524TIP3   OH250062   0.130   1.777   0.824 -0.6583 -0.0531  0.0513
 9524TIP3    H150063   0.064   1.758   0.758  0.9904 -0.8681 -1.4337
 9524TIP3    H250064   0.132   1.699   0.879 -0.2909 -0.4281 -0.4822
 9525TIP3   OH250065   3.783   0.703  10.603 -0.4441  0.3621  0.1349
 9525TIP3    H150066   3.744   0.770  10.547  0.3164  0.0797 -0.7560
 9525TIP3    H250067   3.735   0.623  10.581 -0.9847  0.4905  0.8050
 9526TIP3   OH250068   2.724   1.981  14.427 -0.1922 -0.0456 -0.1402
 9526TIP3    H150069   2.819   1.981  14.414 -0.0464 -3.6139 -0.1518
 9526TIP3    H250070   2.688   1.956  14.342 -1.3316  2.2393 -0.4242
 9527TIP3   OH250071   6.589   1.990   0.291  0.7704  0.3624 -0.4555
 9527TIP3    H150072   6.551   1.980   0.204  1.2756  1.6478 -0.8429
 9527TIP3    H250073   6.682   2.004   0.276  1.3828 -2.2481  0.4613
 9528TIP3   OH250074   2.925   0.461   1.421 -0.0540 -0.1179 -0.2957
 9528TIP3    H150075   2.898   0.547   1.451  0.5880 -0.1973  0.5318
 9528TIP3    H250076   2.989   0.478   1.353  0.1197  0.0567 -0.0878
 9529TIP3   OH250077   2.048   2.111  16.867 -1.0286 -0.2945  0.4743
 9529TIP3    H150078   2.128   2.158  16.892 -2.0047  1.0956  1.0882
 9529TIP3    H250079   2.001   2.099  16.950 -2.9201  1.7386 -0.1951
 9530TIP3   OH250080   1.715   1.566  11.832  0.2452 -0.3090 -0.7907
 9530TIP3    H150081   1.743   1.649  11.872 -0.8439  0.2540 -1.1579
 9530TIP3    H250082   1.776   1.501  11.867 -0.5803  0.1584  1.7136
 9531TIP3   OH250083   4.604   0.460   2.457 -0.2200 -0.7184  0.3408
 9531TIP3    H150084   4.612   0.441   2.363  0.4561 -2.0618  0.6404
 9531TIP3    H250085   4.694   0.469   2.488 -0.4511  0.1574  0.7966
 9532TIP3   OH250086   4.559   2.648  16.851 -0.2889 -0.5187 -0.5436
 9532TIP3    H150087   4.591   2.600  16.927 -0.5360  1.7177  1.0734
 9532TIP3    H250088   4.617   2.622  16.779  1.5540 -0.8061  0.9897
 9533TIP3   OH250089   0.498   1.676  11.158 -0.1573  0.3179  0.0328
 9533TIP3    H150090   0.563   1.605  11.157  1.6565  1.9134 -0.3430
 9533TIP3    H250091   0.490   1.702  11.066  1.2066  2.2842  0.4060
 9534TIP3   OH250092   6.175   4.459   1.345 -0.1362  0.9328  0.5742
 9534TIP3    H150093   6.178   4.426   1.434  0.7010 -0.6721 -0.0120
 9534TIP3    H250094   6.253   4.514   1.337  2.4025 -2.4416 -0.3764
 9535TIP3   OH250095   2.475   6.539   5.038  0.0389  0.0072  0.2442
 9535TIP3    H150096   2.432   6.616   5.075  0.5432  1.2485 -1.6366
 9535TIP3    H250097   2.555   6.530   5.091 -0.5317  0.1204  1.1502
 9536TIP3   OH250098   2.610   3.866   1.166  0.1773  0.1789 -0.3759
 9536TIP3    H150099   2.652   3.896   1.086  0.1822  1.0148 -0.0705
 9536TIP3    H250100   2.610   3.942   1.224  1.9560 -0.8939  1.1697
 9537TIP3   OH250101   6.632   4.709  10.444 -0.1847 -0.3232  0.6172
 9537TIP3    H150102   6.609   4.792  10.485 -0.4536 -0.1317  0.0962
 9537TIP3    H250103   6.559   4.691  10.385  0.1105 -0.6785  0.3546
 9538TIP3   OH250104   6.699   4.891   6.214 -0.0746  0.0965 -0.4153
 9538TIP3    H150105   6.646   4.912   6.137  2.4185 -0.0591 -2.3174
 9538TIP3    H250106   6.780   4.941   6.202  0.0522  0.8435  2.6731
 9539TIP3   OH250107   0.183   2.357  11.905  0.3321 -0.0105 -0.2485
 9539TIP3    H150108   0.246   2.356  11.978  0.4873  0.6738 -0.3637
 9539TIP3    H250109   0.208   2.283  11.850  0.2138 -0.5367  0.3932
 9540TIP3   OH250110   2.235   6.238  14.225 -0.0815  0.0045 -0.0872
 9540TIP3    H150111   2.302   6.306  14.214 -0.6466  0.2908 -2.1494
 9540TIP3    H250112   2.279   6.158  14.196  0.5300 -0.5507  2.1831
 9541TIP3   OH250113   6.516   0.781  16.952 -0.3226  0.1354 -0.0036
 9541TIP3    H150114   6.458   0.838  17.003 -0.3604  0.5517 -0.5079
 9541TIP3    H250115   6.499   0.805  16.861 -2.0621 -2.3090 -0.4214
 9542TIP3   OH250116   2.877   6.685   3.355  0.2522 -0.5950  0.9890
 9542TIP3    H150117   2.818   6.648   3.420 -0.3728 -0.8036  0.3214
 9542TIP3    H250118   2.889   6.776   3.381 -1.0958 -0.3016  0.6358
 9543TIP3   OH250119   2.372   3.569   2.486 -0.4367 -0.2925  0.0689
 9543TIP3    H150120   2.330   3.639   2.536 -2.5822 -0.8070 -0.9277
 9543TIP3    H250121   2.414   3.614   2.412 -1.3725  0.0091 -0.2884
 9544TIP3   OH250122   3.364   2.886  16.991 -0.4328  0.2155 -0.0994
 9544TIP3    H150123   3.372   2.863  17.084  1.6927  0.3765 -0.1809
 9544TIP3    H250124   3.434   2.951  16.977 -0.5444 -0.0071 -1.8667
 9545TIP3   OH250125   0.527   6.085  11.281  0.6150  0.4452 -0.2242
 9545TIP3    H150126   0.480   6.039  11.350  1.0275  0.7194  0.2419
 9545TIP3    H250127   0.590   6.020  11.248 -0.1957  0.0139 -0.9807
 9546TIP3   OH250128   4.738   3.680   5.089  0.1594  0.8272  0.2242
 9546TIP3    H150129   4.783   3.595   5.084  0.8304  1.1125  1.0801
 9546TIP3    H250130   4.651   3.663   5.053  0.2086 -0.2816  0.5697
 9547TIP3   OH250131   4.692   4.702  15.410 -0.2122  0.3515 -0.4527
 9547TIP3    H150132   4.636   4.777  15.391  1.1858  1.5690  0.0348
 9547TIP3    H250133   4.697   4.654  15.328 -2.6025 -0.2906 -0.3075
 9548TIP3   OH250134   2.773   1.919   5.904 -0.0948 -0.0354  0.3178
 9548TIP3    H150135   2.786   1.892   5.995  0.4461 -3.0482 -0.5338
 9548TIP3    H250136   2.862   1.938   5.872 -0.0606 -0.8201 -0.0673
 9549TIP3   OH250137   0.074   1.311  13.830 -0.0368 -0.0669  0.7540
 9549TIP3    H150138   0.118   1.248  13.772 -2.5581 -0.8119 -0.4915
 9549TIP3    H250139   0.038   1.377  13.770  0.7033  1.4166  1.8724
 9550TIP3   OH250140   6.181   4.115  12.847 -0.3292  0.2998 -0.8037
 9550TIP3    H150141   6.091   4.095  12.871 -0.4868  2.7054  0.9313
 9550TIP3    H250142   6.185   4.210  12.844  2.4078  0.3298  0.4184
 9551TIP3   OH250143   6.325   2.125   1.085 -0.2590  0.1453  0.1922
 9551TIP3    H150144   6.350   2.062   1.152  1.4966 -1.9757 -2.2584
 9551TIP3    H250145   6.364   2.208   1.114  0.7360 -0.7709  1.5899
 9552TIP3   OH250146   6.561   2.473  11.731 -0.3058  0.2115  0.3756
 9552TIP3    H150147   6.554   2.558  11.775 -2.1264  0.9819 -1.2619
 9552TIP3    H250148   6.471   2.443  11.722 -0.1961  0.5935 -3.6097
 9553TIP3   OH250149   0.687   6.627   3.716  0.8174  0.2532  0.0992
 9553TIP3    H150150   0.659   6.590   3.633  1.0923 -1.2784  0.6555
 9553TIP3    H250151   0.778   6.655   3.701  0.6102  0.6966 -0.3270
 9554TIP3   OH250152   5.595   0.894  12.921  0.2485 -0.1455 -0.4465
 9554TIP3    H150153   5.599   0.955  12.994  0.1745  1.1187 -1.4567
 9554TIP3    H250154   5.511   0.912  12.879  0.2851 -0.8516 -0.8446
 9555TIP3   OH250155   3.624   4.966   4.378 -0.3084  0.0757 -0.0818
 9555TIP3    H150156   3.537   4.952   4.340 -0.1722 -0.7169 -0.1339
 9555TIP3    H250157   3.652   4.878   4.405  0.0430  0.4717  0.8868
 9556TIP3   OH250158   3.805   3.578  12.956  0.3930  0.1723 -0.2471
 9556TIP3    H150159   3.789   3.537  13.041 -0.6887  2.5437  0.7691
 9556TIP3    H250160   3.736   3.543  12.899  2.8046 -3.7387 -1.1975
 9557TIP3   OH250161   4.131   5.377   4.854  0.2377  0.2510 -0.2790
 9557TIP3    H150162   4.091   5.464   4.850  0.5874  0.4333  0.1069
 9557TIP3    H250163   4.213   5.386   4.806  0.5072  0.2681  0.1764
 9558TIP3   OH250164   6.142   1.439   2.740  0.1438 -0.0700 -0.2015
 9558TIP3    H150165   6.189   1.522   2.728  0.7516 -0.3416  0.3122
 9558TIP3    H250166   6.081   1.457   2.812  1.7362 -0.6801  1.3409
 9559TIP3   OH250167   1.772   1.022  12.812  0.2854  0.1893 -0.0623
 9559TIP3    H150168   1.820   1.064  12.883  1.6375 -0.7964 -0.3496
 9559TIP3    H250169   1.832   0.955  12.779 -0.8655 -0.3233 -1.2002
 9560TIP3   OH250170   5.195   6.058  14.982 -0.2191 -0.3687  0.2574
 9560TIP3    H150171   5.266   6.121  14.995 -0.3859 -0.1299  0.0147
 9560TIP3    H250172   5.164   6.075  14.893 -0.8462 -0.1982  0.5019
 9561TIP3   OH250173   5.070   2.029  12.093  0.1614  0.4044  0.2855
 9561TIP3    H150174   5.084   2.100  12.155  1.1860  0.8238 -0.3845
 9561TIP3    H250175   5.116   1.954  12.132 -1.1205  0.0226  1.1071
 9562TIP3   OH250176   4.610   5.820   1.822  0.0647  0.1756  0.2484
 9562TIP3    H150177   4.639   5.793   1.735  0.7620 -0.8199  0.7697
 9562TIP3    H250178   4.665   5.895   1.844  0.3427  0.0153  0.1006
 9563TIP3   OH250179   1.347   1.741  14.904 -0.5854 -0.0663 -0.2241
 9563TIP3    H150180   1.438   1.732  14.931 -0.8730 -0.3703  0.7001
 9563TIP3    H250181   1.308   1.655  14.923 -1.1083  0.1196 -0.4290
 9564TIP3   OH250182   0.142   0.725   1.522 -0.3414  0.1606 -0.4320
 9564TIP3    H150183   0.199   0.766   1.458  0.5541 -2.5619 -1.5113
 9564TIP3    H250184   0.173   0.758   1.607  0.8781  0.9742 -1.1720
 9565TIP3   OH250185   5.265   3.026  13.732  0.2302  0.5691  0.5365
 9565TIP3    H150186   5.255   2.932  13.749 -0.0783  0.5696  0.3688
 9565TIP3    H250187   5.359   3.043  13.743  0.4161  0.0809 -0.2024
 9566TIP3   OH250188   5.821   5.877  14.085 -0.5909 -0.9429 -0.0196
 9566TIP3    H150189   5.856   5.795  14.050  2.0455  0.8792 -2.1171
 9566TIP3    H250190   5.869   5.890  14.167 -1.4284 -1.7025  0.6146
 9567TIP3   OH250191   5.887   0.894  13.191  0.9321  0.1994  0.4128
 9567TIP3    H150192   5.895   0.976  13.143  0.7738  0.6692  1.1596
 9567TIP3    H250193   5.841   0.919  13.272 -0.4539 -0.8847 -0.0076
 9568TIP3   OH250194   2.890   6.442   2.858  0.5639  0.0975  0.2883
 9568TIP3    H150195   2.818   6.381   2.876 -0.6083  0.9541 -1.2456
 9568TIP3    H250196   2.879   6.512   2.922 -1.1474  1.1445 -1.0739
 9569TIP3   OH250197   2.314   3.980  12.706  0.4042 -0.4494  0.3414
 9569TIP3    H150198   2.377   4.039  12.665 -0.1462  0.5021  0.8283
 9569TIP3    H250199   2.335   3.893  12.670  0.5479  0.1972 -1.1924
 9570TIP3   OH250200   6.107   2.136   0.114  0.2542  0.2869  0.2307
 9570TIP3    H150201   6.138   2.160   0.201 -1.3245 -1.1639  1.2637
 9570TIP3    H250202   6.088   2.220   0.071  1.1864  1.0218  1.2149
 9571TIP3   OH250203   6.262   4.701  15.712 -0.4166  0.4541  0.0142
 9571TIP3    H150204   6.170   4.679  15.731  0.0250 -0.9840  0.6265
 9571TIP3    H250205   6.272   4.687  15.618 -0.6389 -0.1060  0.0738
 9572TIP3   OH250206   1.556   5.688  11.753  0.4116  0.3936  0.4229
 9572TIP3    H150207   1.608   5.635  11.692  0.4580 -2.4241  2.7046
 9572TIP3    H250208   1.466   5.670  11.729  0.4390 -0.0885  0.6716
 9573TIP3   OH250209   1.952   4.762  14.703  0.1629  0.0361 -0.3918
 9573TIP3    H150210   1.877   4.820  14.710  0.4804  0.4062 -0.0014
 9573TIP3    H250211   1.925   4.681  14.746 -0.3213 -0.1499 -1.0398
 9574TIP3   OH250212   3.758   0.204   4.232 -0.3335 -0.2554 -0.0648
 9574TIP3    H150213   3.689   0.162   4.180 -1.1738  0.4929  0.4078
 9574TIP3    H250214   3.839   0.185   4.184 -1.1024  0.7100 -1.8703
 9575TIP3   OH250215   3.537   2.074   2.803 -0.4634  0.5249  0.1916
 9575TIP3    H150216   3.446   2.054   2.781  0.1585  0.8316 -3.1307
 9575TIP3    H250217   3.580   1.988   2.806  0.0205  0.5480 -3.1321
 9576TIP3   OH250218   6.194   2.068  16.044 -0.1664  0.4270  0.5612
 9576TIP3    H150219   6.157   1.982  16.065 -0.3933  0.7358  1.4554
 9576TIP3    H250220   6.216   2.106  16.128 -0.7398  1.5449  0.2187
 9577TIP3   OH250221   3.013   4.664   2.147 -0.4497  0.8995  0.1041
 9577TIP3    H150222   2.939   4.655   2.206 -1.5226  0.7292 -1.2180
 9577TIP3    H250223   2.997   4.746   2.100 -0.1926  0.5123 -0.6942
 9578TIP3   OH250224   3.451   0.108  15.640  0.1491 -0.6278  0.3922
 9578TIP3    H150225   3.421   0.096  15.550  0.2295  4.1694 -0.5335
 9578TIP3    H250226   3.371   0.129  15.689  0.4822 -0.1798  0.7509
 9579TIP3   OH250227   2.220   2.539   2.438  0.8099  0.0189  0.2948
 9579TIP3    H150228   2.135   2.565   2.403  1.2834  0.5491 -0.4923
 9579TIP3    H250229   2.212   2.445   2.453  0.8824 -0.4786 -2.2250
 9580TIP3   OH250230   2.104   6.623   2.765  0.5494  0.6398 -0.5217
 9580TIP3    H150231   2.010   6.641   2.768  0.5349  0.6659 -1.1398
 9580TIP3    H250232   2.110   6.529   2.752  0.6178  0.5865 -0.1401
 9581TIP3   OH250233   1.555   5.334   1.155 -0.1109  0.0007 -0.2620
 9581TIP3    H150234   1.492   5.265   1.177 -0.5365  0.9942  1.8765
 9581TIP3    H250235   1.512   5.415   1.181  1.3260  0.8771 -0.5306
 9582TIP3   OH250236   5.614   3.481  15.701 -0.0900 -0.8286  0.2147
 9582TIP3    H150237   5.681   3.417  15.678 -1.0306 -1.9747  0.5886
 9582TIP3    H250238   5.543   3.430  15.739 -2.5276 -0.0734 -2.9201
 9583TIP3   OH250239   5.986   3.851   1.549  0.3484  0.2337  0.4781
 9583TIP3    H150240   6.058   3.793   1.570  0.4391 -0.5487 -1.7736
 9583TIP3    H250241   6.025   3.920   1.496 -0.3294  0.5963  0.4378
 9584TIP3   OH250242   4.511   0.415   6.577 -0.0395 -0.0154  0.1152
 9584TIP3    H150243   4.428   0.445   6.613  0.0838  1.9828 -1.1140
 9584TIP3    H250244   4.495   0.408   6.483  0.6101 -1.7152  0.0946
 9585TIP3   OH250245   1.905   1.012  16.007 -0.6219  0.5092 -0.3191
 9585TIP3    H150246   1.835   0.988  16.068  0.9082 -0.0763  1.2869
 9585TIP3    H250247   1.981   0.963  16.037  0.7567  1.8849 -1.3949
 9586TIP3   OH250248   2.424   5.946   0.765 -0.2664 -0.0238 -0.5440
 9586TIP3    H150249   2.468   5.861   0.760  1.7958  1.0527 -2.1662
 9586TIP3    H250250   2.334   5.928   0.736 -0.5363 -1.9950  1.2432
 9587TIP3   OH250251   3.219   1.874  14.263 -0.7894  0.1452  0.3176
 9587TIP3    H150252   3.281   1.803  14.249 -0.5635  0.1654  1.1684
 9587TIP3    H250253   3.258   1.949  14.216  1.2108  0.8882  2.9308
 9588TIP3   OH250254   6.220   5.344   1.672 -0.4506  0.3948 -0.0685
 9588TIP3    H150255   6.162   5.272   1.646  0.1949  0.1062 -0.7397
 9588TIP3    H250256   6.175   5.385   1.747 -0.9563 -0.5363  0.1556
 9589TIP3   OH250257   3.436   4.513   2.758 -0.1114  0.3676 -0.0492
 9589TIP3    H150258   3.507   4.567   2.791 -0.5826 -1.3493  4.3483
 9589TIP3    H250259   3.465   4.423   2.771 -1.6161 -0.4440 -1.7721
 9590TIP3   OH250260   0.751   3.281  11.629  0.5394  0.2519 -0.0606
 9590TIP3    H150261   0.845   3.278  11.648  0.5127 -1.0662 -0.0534
 9590TIP3    H250262   0.718   3.196  11.658 -0.7051  0.7810  0.1436
 9591TIP3   OH250263   3.192   1.296  16.617 -0.1698 -0.1478 -0.2444
 9591TIP3    H150264   3.257   1.334  16.677 -2.1670  2.5106  0.4290
 9591TIP3    H250265   3.130   1.250  16.675 -0.8165  0.4154 -0.4755
 9592TIP3   OH250266   2.666   2.884  14.165  0.2027 -0.7359 -0.1944
 9592TIP3    H150267   2.676   2.964  14.113 -0.7140 -0.7445 -0.4100
 9592TIP3    H250268   2.684   2.813  14.103  1.2178 -0.6984  0.0475
 9593TIP3   OH250269   3.621   4.452  15.981 -0.7493 -0.2211  0.7779
 9593TIP3    H150270   3.587   4.382  15.924 -0.0499 -0.5361  0.7396
 9593TIP3    H250271   3.543   4.500  16.008 -1.0916  0.0667 -0.6161
 9594TIP3   OH250272   5.399   3.491   4.971 -0.6238 -0.4740 -0.0966
 9594TIP3    H150273   5.357   3.574   4.950 -0.0736 -0.2736 -0.4472
 9594TIP3    H250274   5.392   3.483   5.066 -0.2510  0.2142 -0.0021
 9595TIP3   OH250275   3.889   4.738  12.017 -1.2314  0.2411 -0.1092
 9595TIP3    H150276   3.815   4.795  11.998 -1.9513 -0.9361 -0.9814
 9595TIP3    H250277   3.857   4.649  11.998 -0.2166 -0.4904  1.3867
 9596TIP3   OH250278   1.443   1.079   4.702  0.2897 -0.3322 -0.1839
 9596TIP3    H150279   1.363   1.047   4.743  0.5394 -1.0308 -0.2124
 9596TIP3    H250280   1.511   1.066   4.768  0.4912 -0.3687 -0.3968
 9597TIP3   OH250281   4.008   2.235  11.263 -0.1444 -0.3342 -0.0543
 9597TIP3    H150282   4.044   2.252  11.350 -2.7934 -0.6979  1.1958
 9597TIP3    H250283   3.971   2.319  11.235 -2.1893 -0.9566  0.6557
 9598TIP3   OH250284   6.278   2.328   5.331 -0.2255  0.2106 -0.0650
 9598TIP3    H150285   6.186   2.343   5.350 -0.5473  0.8045 -1.8756
 9598TIP3    H250286   6.279   2.250   5.276  0.3720  0.1262  0.0545
 9599TIP3   OH250287   6.320   5.947   3.772 -0.9059 -0.1113 -0.0389
 9599TIP3    H150288   6.282   5.861   3.750 -0.5343 -0.7256  1.5444
 9599TIP3    H250289   6.401   5.925   3.818 -0.3139  1.1293 -0.4720
 9600TIP3   OH250290   0.080   4.368   4.712  0.3278  0.0337  0.3202
 9600TIP3    H150291   0.001   4.414   4.741  0.3715  0.0423  0.4258
 9600TIP3    H250292   0.125   4.345   4.793  1.6189  2.0459  0.2237
 9601TIP3   OH250293   4.151   2.286  11.489  0.5174 -0.5602 -0.0326
 9601TIP3    H150294   4.094   2.357  11.517  0.6743  0.3530 -1.8915
 9601TIP3    H250295   4.231   2.329  11.459  0.9233 -1.5768 -0.4642
 9602TIP3   OH250296   6.074   3.470  15.365  0.7274 -0.5437  0.2945
 9602TIP3    H150297   6.005   3.415  15.328 -0.6449  0.8226  0.7330
 9602TIP3    H250298   6.107   3.421  15.440  1.0377 -1.7026 -0.5613
 9603TIP3   OH250299   0.174   4.507   3.225 -0.0256 -0.3683 -0.1486
 9603TIP3    H150300   0.199   4.547   3.309  0.2331 -0.8187 -0.0085
 9603TIP3    H250301   0.079   4.498   3.230 -0.1220  0.4733 -0.2919
 9604TIP3   OH250302   3.489   4.340  10.575  0.4336  0.5641  0.2370
 9604TIP3    H150303   3.578   4.363  10.600  0.4644  1.9203 -0.9576
 9604TIP3    H250304   3.437   4.354  10.654  1.4613 -1.7327  1.4007
 9605TIP3   OH250305   3.840   3.957  11.235  0.0658  0.0842  0.4250
 9605TIP3    H150306   3.767   3.917  11.187  0.1042  0.7770 -0.2257
 9605TIP3    H250307   3.878   4.019  11.173  1.0956 -0.1347  0.8233
 9606TIP3   OH250308   6.552   1.152   1.909 -0.5102 -0.5681 -0.1269
 9606TIP3    H150309   6.506   1.232   1.933 -0.8564 -0.9915  0.6319
 9606TIP3    H250310   6.622   1.143   1.974 -0.5558 -0.9605 -0.1311
 9607TIP3   OH250311   6.736   3.320   0.834  0.4553  0.5125  0.0130
 9607TIP3    H150312   6.731   3.411   0.806 -0.4589  1.1768  2.1518
 9607TIP3    H250313   6.646   3.288   0.829  0.7263 -0.2076 -0.4712
 9608TIP3   OH250314   0.932   2.899  11.064  0.1532 -0.6308  0.1491
 9608TIP3    H150315   0.952   2.840  11.137 -0.8661 -0.7057  0.3921
 9608TIP3    H250316   0.879   2.847  11.004  0.9224 -0.5445 -0.6219
 9609TIP3   OH250317   4.540   4.739  15.776 -0.4534 -0.6463  0.1565
 9609TIP3    H150318   4.498   4.688  15.706 -0.9860  0.8428 -0.6581
 9609TIP3    H250319   4.570   4.674  15.839  1.2541 -2.1813 -2.0852
 9610TIP3   OH250320   4.079   3.789   6.265 -0.0499 -0.0526  0.4061
 9610TIP3    H150321   4.142   3.718   6.256  0.3121  0.5096 -2.0955
 9610TIP3    H250322   3.999   3.746   6.296  0.4579 -1.3926 -0.0870
 9611TIP3   OH250323   6.370   1.904  14.339  0.2214  0.5484 -0.0319
 9611TIP3    H150324   6.455   1.945  14.357 -0.4521  1.4186  1.3420
 9611TIP3    H250325   6.336   1.952  14.264  1.2189 -0.2744 -1.0575
 9612TIP3   OH250326   3.204   1.996   5.028  0.7496 -0.0209 -0.2281
 9612TIP3    H150327   3.296   1.998   5.052  0.9342 -0.5478 -0.8749
 9612TIP3    H250328   3.180   2.088   5.016  0.8517  0.2138  1.1721
 9613TIP3   OH250329   6.642   0.779  14.050 -0.1353  0.1130 -0.2344
 9613TIP3    H150330   6.671   0.752  13.963  1.0258 -0.5866  0.3493
 9613TIP3    H250331   6.657   0.702  14.105 -1.4158  0.3365  0.4758
 9614TIP3   OH250332   1.047   5.056  12.643 -0.2931  0.0250 -0.2946
 9614TIP3    H150333   0.958   5.024  12.655 -0.6064  1.4936  1.8627
 9614TIP3    H250334   1.079   5.011  12.565 -2.9101 -0.5489 -1.1177
 9615TIP3   OH250335   1.687   2.895  14.038  0.6439 -0.0920 -0.3731
 9615TIP3    H150336   1.664   2.983  14.070  1.4251  0.3223 -0.9186
 9615TIP3    H250337   1.608   2.866  13.992  0.4211  0.3795 -0.3016
 9616TIP3   OH250338   3.712   2.235   0.483 -0.2871  0.2152  0.7334
 9616TIP3    H150339   3.630   2.282   0.500  0.1623  2.6953 -2.9567
 9616TIP3    H250340   3.684   2.154   0.439 -0.7995  0.2571  0.9711
 9617TIP3   OH250341   1.331   1.043   4.098  0.6875  0.8986 -0.4564
 9617TIP3    H150342   1.247   1.004   4.126  1.2130 -0.3989 -0.6144
 9617TIP3    H250343   1.345   1.115   4.159 -0.3030  0.8109 -0.1024
 9618TIP3   OH250344   6.814   4.700   2.579  0.0867 -0.1880  0.0627
 9618TIP3    H150345   6.886   4.667   2.524  0.7166  0.4340  0.4935
 9618TIP3    H250346   6.816   4.794   2.566 -1.0485 -0.2091 -0.3773
 9619TIP3   OH250347   6.045   4.862  14.021 -0.0120 -0.3656  0.3211
 9619TIP3    H150348   6.110   4.823  14.079  0.4476 -1.7263 -1.0199
 9619TIP3    H250349   6.090   4.870  13.937 -1.2739 -0.4372 -0.3911
 9620TIP3   OH250350   2.933   4.449   0.943 -0.3278 -0.3232  0.5151
 9620TIP3    H150351   2.992   4.375   0.928  2.4187  1.8233 -0.0260
 9620TIP3    H250352   2.853   4.426   0.895  0.3545 -2.9497  0.4915
 9621TIP3   OH250353   6.482   6.838  10.913 -0.5502  0.3175  0.2317
 9621TIP3    H150354   6.492   6.932  10.903 -0.5719  0.3063  0.0975
 9621TIP3    H250355   6.568   6.807  10.940 -0.4215  0.3166 -0.1764
 9622TIP3   OH250356   1.176   4.330  14.273 -0.0329  0.2284 -0.2745
 9622TIP3    H150357   1.168   4.300  14.363  1.9377  0.1336 -0.0879
 9622TIP3    H250358   1.227   4.410  14.278  0.0272  0.2765 -1.3008
 9623TIP3   OH250359   1.177   1.487  16.259  0.2158 -0.0356 -0.0755
 9623TIP3    H150360   1.223   1.567  16.234 -1.5808  1.2713  0.6068
 9623TIP3    H250361   1.151   1.502  16.351 -2.1615 -0.3523 -0.6269
 9624TIP3   OH250362   2.273   2.370   5.547  0.5748 -0.7375 -0.4554
 9624TIP3    H150363   2.312   2.363   5.460  0.2833  1.6439 -0.8487
 9624TIP3    H250364   2.196   2.425   5.534 -0.8184 -2.2482  0.9511
 9625TIP3   OH250365   5.785   2.007  14.517  0.5765 -0.3968  0.7529
 9625TIP3    H150366   5.705   1.985  14.471  0.4334  2.9129 -0.8916
 9625TIP3    H250367   5.759   2.075  14.580  1.9499  0.2640  0.6515
 9626TIP3   OH250368   4.216   3.943  13.350  0.5871 -0.2620  0.7042
 9626TIP3    H150369   4.269   4.022  13.362  0.8133 -0.4622  1.0270
 9626TIP3    H250370   4.206   3.908  13.438 -1.3928  0.6168  0.8911
 9627TIP3   OH250371   4.192   1.469   0.301  0.0730  0.1130 -0.4414
 9627TIP3    H150372   4.275   1.480   0.348  0.4484 -0.2413 -0.9952
 9627TIP3    H250373   4.124   1.480   0.367  0.5643  0.4437  0.0145
 9628TIP3   OH250374   3.489   5.363   3.583  0.0558 -0.8097  0.4665
 9628TIP3    H150375   3.584   5.351   3.583  0.9742  3.9660  2.4117
 9628TIP3    H250376   3.465   5.361   3.676 -1.8883 -2.3503 -0.0236
 9629TIP3   OH250377   0.433   0.385   3.847  0.2265  0.4819  1.2327
 9629TIP3    H150378   0.453   0.425   3.763  1.1087 -0.6024  0.9157
 9629TIP3    H250379   0.498   0.421   3.907  0.4321  0.2392  1.1555
 9630TIP3   OH250380   3.232   3.951   1.368 -0.2270  0.3556 -0.0652
 9630TIP3    H150381   3.226   3.902   1.286  0.4266 -1.1406  0.7258
 9630TIP3    H250382   3.315   3.997   1.363  0.3834 -0.6790  0.2178
 9631TIP3   OH250383   5.398   5.462  16.388  0.0226  0.0890  0.9871
 9631TIP3    H150384   5.368   5.500  16.470  1.0162  1.6200  0.6740
 9631TIP3    H250385   5.460   5.526  16.353  0.2741 -0.9378 -0.5303
 9632TIP3   OH250386   1.455   0.274   4.941 -0.6861  0.0351 -0.3394
 9632TIP3    H150387   1.518   0.262   5.012 -1.3423 -0.7716  0.1224
 9632TIP3    H250388   1.388   0.332   4.978 -1.6641 -1.3543  0.1411
 9633TIP3   OH250389   5.541   0.218  13.257  0.3213 -0.5087  0.8262
 9633TIP3    H150390   5.478   0.156  13.219  0.2518 -0.6244  1.1273
 9633TIP3    H250391   5.608   0.229  13.189 -0.4464  0.2497  0.1799
 9634TIP3   OH250392   1.406   5.104  15.529 -0.7315 -0.4399 -0.3479
 9634TIP3    H150393   1.452   5.037  15.479  0.6839  1.2604 -1.4477
 9634TIP3    H250394   1.396   5.177  15.468 -1.1068  0.8250  1.1512
 9635TIP3   OH250395   2.645   1.139  11.951  0.2299 -0.5434  0.3254
 9635TIP3    H150396   2.698   1.211  11.985  0.7268 -1.4092  1.4469
 9635TIP3    H250397   2.558   1.177  11.939  0.6535  0.4283  0.1937
 9636TIP3   OH250398   3.747   2.040   1.695  0.2157  0.0707 -0.1127
 9636TIP3    H150399   3.763   2.132   1.675 -0.3748  0.5390  1.4824
 9636TIP3    H250400   3.730   2.000   1.609 -0.3081  1.5977 -0.7558
 9637TIP3   OH250401   5.097   1.023   3.316 -0.6376 -0.0715  0.2695
 9637TIP3    H150402   5.160   1.084   3.278 -0.5330  0.2149  0.8828
 9637TIP3    H250403   5.095   0.949   3.255  1.0198 -0.5248  0.7177
 9638TIP3   OH250404   3.818   4.175  11.770  0.2856 -0.3364  0.1357
 9638TIP3    H150405   3.792   4.083  11.762 -1.3665  0.2158 -1.3518
 9638TIP3    H250406   3.866   4.193  11.689 -2.8676  1.1067 -1.5827
 9639TIP3   OH250407   2.935   5.688   6.199 -0.4879  0.1329 -0.2265
 9639TIP3    H150408   2.990   5.750   6.151  0.9762 -0.6033  0.4362
 9639TIP3    H250409   2.996   5.626   6.237 -1.8619 -1.3045 -0.2466
 9640TIP3   OH250410   3.419   0.825  13.535  0.2087  0.0328 -0.1346
 9640TIP3    H150411   3.508   0.857  13.523  0.5151 -0.9575 -0.6547
 9640TIP3    H250412   3.365   0.883  13.482  0.6334  0.2389 -0.3482
 9641TIP3   OH250413   3.054   0.240  15.689  0.3753 -0.1284 -0.5654
 9641TIP3    H150414   3.025   0.289  15.613 -1.7857  0.3083  0.4741
 9641TIP3    H250415   3.074   0.306  15.755 -3.5966 -0.4040  1.2236
 9642TIP3   OH250416   1.426   5.364  16.646  0.3156  0.1197  0.5703
 9642TIP3    H150417   1.485   5.338  16.575  0.3819  0.1310  0.6199
 9642TIP3    H250418   1.413   5.458  16.634  0.6748  0.2050  0.8258
 9643TIP3   OH250419   0.053   4.269  12.611  0.1681 -0.2287 -0.3700
 9643TIP3    H150420   0.071   4.356  12.646  1.3541 -0.3233 -0.7127
 9643TIP3    H250421   0.123   4.253  12.548 -0.9012 -0.8131 -1.4518
 9644TIP3   OH250422   0.897   2.878  13.343 -0.1609  0.3696 -0.0254
 9644TIP3    H150423   0.822   2.934  13.362 -0.5914 -0.4258  0.6988
 9644TIP3    H250424   0.859   2.794  13.318  0.4800  0.1038 -0.1308
 9645TIP3   OH250425   1.995   5.538  16.822 -0.1274 -0.0290 -0.0408
 9645TIP3    H150426   1.998   5.443  16.829 -0.4773  0.0750  2.5135
 9645TIP3    H250427   1.911   5.562  16.862  0.9792  1.4455  1.5492
 9646TIP3   OH250428   1.604   0.285   1.384 -0.0590  0.5742  0.2623
 9646TIP3    H150429   1.667   0.214   1.394  0.8558  1.4390  0.7730
 9646TIP3    H250430   1.519   0.241   1.380  0.6164 -0.6837 -1.3753
 9647TIP3   OH250431   0.319   6.385   5.637 -0.1289 -0.2365 -0.0740
 9647TIP3    H150432   0.239   6.360   5.591 -0.0867  0.0748 -0.3185
 9647TIP3    H250433   0.387   6.382   5.570  0.4198 -2.2872  0.5110
 9648TIP3   OH250434   6.253   0.650   4.567 -0.6158  0.3220 -0.4717
 9648TIP3    H150435   6.298   0.711   4.626  1.3105 -1.4530  0.0351
 9648TIP3    H250436   6.176   0.697   4.536  0.3565  2.6783  0.5219
 9649TIP3   OH250437   4.249   3.177  14.258  0.1615  0.1008  0.2861
 9649TIP3    H150438   4.178   3.181  14.194 -0.4881 -0.4428  0.9566
 9649TIP3    H250439   4.207   3.148  14.339  0.6479  2.3634  1.4330
 9650TIP3   OH250440   6.596   2.102  14.354 -0.8040  0.4803  0.0124
 9650TIP3    H150441   6.522   2.155  14.384 -0.0955  1.0740  0.7647
 9650TIP3    H250442   6.673   2.149  14.385 -0.0883  0.0559 -1.0670
 9651TIP3   OH250443   0.980   6.765  16.076  0.0184  0.4384 -0.2678
 9651TIP3    H150444   0.944   6.787  16.162  0.2054  1.0210 -0.3368
 9651TIP3    H250445   1.000   6.672  16.081  0.7579  0.6292  0.5934
 9652TIP3   OH250446   4.053   0.520  13.034  0.3552 -0.0608 -0.0291
 9652TIP3    H150447   4.076   0.431  13.008 -0.2001 -0.7352  1.6461
 9652TIP3    H250448   3.976   0.510  13.090  0.4124  1.4424  0.3788
 9653TIP3   OH250449   2.865   5.258  13.439 -0.2995 -0.3714  0.3161
 9653TIP3    H150450   2.941   5.214  13.477  0.0036  1.1697  1.5930
 9653TIP3    H250451   2.866   5.232  13.347  0.6992 -1.8232  0.7050
 9654TIP3   OH250452   4.124   2.652  15.213 -0.0163 -0.1797 -0.6103
 9654TIP3    H150453   4.127   2.693  15.299 -0.6646 -1.6554  0.1498
 9654TIP3    H250454   4.199   2.687  15.166  0.9755 -0.1679  0.9504
 9655TIP3   OH250455   5.192   1.406  13.927  0.4271  1.1475 -0.4485
 9655TIP3    H150456   5.221   1.319  13.898 -0.5095  1.1683 -1.5008
 9655TIP3    H250457   5.188   1.399  14.022  1.3613  0.3592 -0.4496
 9656TIP3   OH250458   1.432   1.607  13.173 -0.5036  0.9430 -0.3719
 9656TIP3    H150459   1.364   1.658  13.215 -1.3109 -0.0518 -0.4295
 9656TIP3    H250460   1.396   1.584  13.087 -1.6199 -2.4910  0.8524
 9657TIP3   OH250461   2.946   2.573  14.827 -0.6364  0.5629 -0.5990
 9657TIP3    H150462   3.037   2.542  14.835 -0.8191 -0.4023 -1.8570
 9657TIP3    H250463   2.954   2.657  14.782 -0.2993  1.2053  0.5972
 9658TIP3   OH250464   4.331   2.908   4.178 -0.3282  0.5915 -0.0198
 9658TIP3    H150465   4.391   2.975   4.212  0.0380 -0.1277  0.8083
 9658TIP3    H250466   4.381   2.827   4.185 -1.2265  0.0478  0.2187
 9659TIP3   OH250467   4.151   6.253  11.715  0.1872  0.4727  0.1232
 9659TIP3    H150468   4.140   6.255  11.810  1.1168 -0.7609  0.2880
 9659TIP3    H250469   4.246   6.255  11.702  0.0475  1.9222 -0.8461
 9660TIP3   OH250470   3.272   6.569   1.462 -0.1789 -1.2838 -0.0287
 9660TIP3    H150471   3.265   6.636   1.394  0.1508 -0.3545  0.8269
 9660TIP3    H250472   3.198   6.511   1.447 -0.6878 -0.5133 -0.5697
 9661TIP3   OH250473   2.066   1.342  13.932 -0.1151 -0.5823  0.0926
 9661TIP3    H150474   2.079   1.248  13.922  0.7566 -0.4235 -0.3469
 9661TIP3    H250475   2.099   1.362  14.020  2.5720 -0.2295 -0.9006
 9662TIP3   OH250476   1.833   3.002  16.020 -0.0405 -0.4181  0.5427
 9662TIP3    H150477   1.886   2.936  15.975  0.0871 -0.8686  1.3385
 9662TIP3    H250478   1.857   2.994  16.112 -1.5953 -0.7507  0.9530
 9663TIP3   OH250479   0.603   2.168  11.811 -0.2974 -0.1054 -0.3698
 9663TIP3    H150480   0.649   2.227  11.752 -2.3117 -0.3563 -2.3437
 9663TIP3    H250481   0.578   2.223  11.886  1.1767  0.5506 -0.3323
 9664TIP3   OH250482   2.595   3.640   3.317 -0.0325 -0.2640  0.1175
 9664TIP3    H150483   2.660   3.707   3.293 -0.0471  0.5983  2.2673
 9664TIP3    H250484   2.527   3.647   3.249  0.5426  1.0878 -0.3472
 9665TIP3   OH250485   3.487   0.509   5.267  0.4830 -0.0183  0.4023
 9665TIP3    H150486   3.477   0.539   5.177 -0.0217 -3.1109 -0.6932
 9665TIP3    H250487   3.410   0.543   5.313  0.7336  1.5591 -0.2852
 9666TIP3   OH250488   2.824   3.320  13.019 -0.0199 -0.0997  0.0957
 9666TIP3    H150489   2.878   3.318  13.098  1.0880 -1.0297 -0.6390
 9666TIP3    H250490   2.878   3.366  12.955 -0.0652 -1.0504 -0.6577
 9667TIP3   OH250491   4.209   5.985  12.355 -0.3241  0.5310  0.3785
 9667TIP3    H150492   4.138   5.925  12.330  0.8348 -0.3878 -0.8572
 9667TIP3    H250493   4.222   5.969  12.449  0.1222 -1.3702  0.0340
 9668TIP3   OH250494   1.361   0.051   4.784  0.3909 -0.7465  0.2428
 9668TIP3    H150495   1.368   0.128   4.841 -0.6351 -1.0479  0.7867
 9668TIP3    H250496   1.430  -0.008   4.815  0.5174 -0.4763  0.4860
 9669TIP3   OH250497   3.070   1.297   4.019 -0.8995 -0.0022 -0.6875
 9669TIP3    H150498   3.033   1.379   4.051  1.9482  2.1906 -2.5323
 9669TIP3    H250499   3.123   1.265   4.093 -2.1910 -0.3595  0.1136
 9670TIP3   OH250500   2.986   6.832  11.199 -0.4515 -0.3513 -0.5921
 9670TIP3    H150501   2.978   6.766  11.130 -0.0789  0.4362 -1.4250
 9670TIP3    H250502   3.069   6.876  11.180  1.4735 -2.3239  2.3999
 9671TIP3   OH250503   5.054   5.310  13.279  0.2974  0.2394 -0.5351
 9671TIP3    H150504   5.064   5.400  13.247 -2.1650  0.7959  0.0213
 9671TIP3    H250505   5.024   5.261  13.203  1.3422 -0.0765 -0.7607
 9672TIP3   OH250506   4.824   5.178   1.026 -0.7186  0.8623 -0.5177
 9672TIP3    H150507   4.842   5.086   1.004 -1.9104  0.1135  1.4479
 9672TIP3    H250508   4.738   5.195   0.989 -0.8405  0.9576 -0.1866
 9673TIP3   OH250509   6.440   4.424  15.678 -0.1148  0.0565 -0.1228
 9673TIP3    H150510   6.387   4.436  15.599 -2.3795  0.4594  1.3615
 9673TIP3    H250511   6.411   4.340  15.714  1.5047 -0.5317 -0.1326
 9674TIP3   OH250512   1.731   1.744   0.737  0.0098 -0.4044  0.4442
 9674TIP3    H150513   1.650   1.697   0.754 -0.3172 -0.1873 -0.4844
 9674TIP3    H250514   1.789   1.718   0.809 -0.2560 -1.9959  0.1295
 9675TIP3   OH250515   5.898   1.172   6.658  0.1068  0.6591 -0.1821
 9675TIP3    H150516   5.945   1.230   6.598  1.9009  1.2658  1.6976
 9675TIP3    H250517   5.966   1.129   6.709 -1.3099  1.3604  2.5131
 9676TIP3   OH250518   3.667   2.982   1.284  0.2884 -0.3839  0.3948
 9676TIP3    H150519   3.634   3.070   1.301 -0.9798 -0.3399 -1.9211
 9676TIP3    H250520   3.595   2.924   1.309 -0.0643 -0.5401 -0.9166
 9677TIP3   OH250521   6.187   0.768   3.760 -0.0585  0.3752 -0.3896
 9677TIP3    H150522   6.277   0.793   3.781 -0.3931  2.3407 -1.1164
 9677TIP3    H250523   6.135   0.800   3.834 -0.0376 -2.1739  0.8191
 9678TIP3   OH250524   2.418   0.172  12.683  0.2733  0.4688  0.5151
 9678TIP3    H150525   2.428   0.267  12.676 -0.7457  0.5612  0.2528
 9678TIP3    H250526   2.500   0.137  12.646 -0.6615  1.1792 -2.5370
 9679TIP3   OH250527   1.878   2.582   0.444 -0.1920 -0.3797  0.5471
 9679TIP3    H150528   1.804   2.525   0.464 -0.7506  0.0918 -0.1375
 9679TIP3    H250529   1.882   2.585   0.348  0.6823 -0.3599  0.5694
 9680TIP3   OH250530   2.861   2.127  14.656 -0.2451  0.4471  0.7839
 9680TIP3    H150531   2.956   2.114  14.647 -0.2690  0.8435 -0.2087
 9680TIP3    H250532   2.850   2.158  14.746  0.1687 -2.8740  2.1192
 9681TIP3   OH250533   3.856   1.089  12.997 -0.2840  0.2994 -0.1553
 9681TIP3    H150534   3.950   1.087  12.977 -0.0667 -0.2336  0.8551
 9681TIP3    H250535   3.814   1.103  12.913  0.6463 -0.6529 -0.7989
 9682TIP3   OH250536   3.141   0.511  15.120 -0.0872  0.3357 -0.1872
 9682TIP3    H150537   3.050   0.537  15.136 -0.1011 -0.2182  0.6745
 9682TIP3    H250538   3.193   0.582  15.156 -0.1643  1.2808 -1.8175
 9683TIP3   OH250539   1.529   4.150   4.319 -0.3061 -0.3230  0.1329
 9683TIP3    H150540   1.520   4.056   4.306 -0.7353 -0.1622 -0.8514
 9683TIP3    H250541   1.623   4.166   4.323 -0.1642 -0.5986 -1.4061
 9684TIP3   OH250542   0.974   3.585   3.468  0.3134 -1.0823  0.1875
 9684TIP3    H150543   1.029   3.522   3.515 -0.1616 -1.3304  0.4110
 9684TIP3    H250544   1.035   3.630   3.409  0.7796 -1.2732  0.5175
 9685TIP3   OH250545   2.584   5.363   5.287 -0.0767 -0.3100  0.1920
 9685TIP3    H150546   2.560   5.270   5.282 -0.1190 -0.2406 -1.0986
 9685TIP3    H250547   2.680   5.362   5.291 -0.0989 -0.4229  0.8045
 9686TIP3   OH250548   5.848   4.749  12.236 -0.0087 -0.1067  0.2001
 9686TIP3    H150549   5.924   4.796  12.202  0.3370 -1.2292 -0.6478
 9686TIP3    H250550   5.884   4.691  12.303 -0.0714 -0.7893 -0.3460
 9687TIP3   OH250551   5.736   0.257   5.490  0.0286 -0.1328  0.3240
 9687TIP3    H150552   5.660   0.295   5.536 -0.6509  0.0221 -0.8917
 9687TIP3    H250553   5.779   0.203   5.557 -1.7895 -1.1215  0.7693
 9688TIP3   OH250554   2.381   1.201  16.939 -0.0861 -0.0616  0.3871
 9688TIP3    H150555   2.319   1.204  17.012 -1.5601 -0.8713 -0.7731
 9688TIP3    H250556   2.460   1.162  16.975 -0.5038  0.3079  1.7372
 9689TIP3   OH250557   0.760   5.154  12.562  0.3828 -0.5004  0.0433
 9689TIP3    H150558   0.759   5.234  12.510 -1.4955 -0.7184 -0.3495
 9689TIP3    H250559   0.729   5.181  12.648  2.4439 -0.3387  0.7781
 9690TIP3   OH250560   3.348   4.685   0.263  0.4822  0.5030  0.0183
 9690TIP3    H150561   3.431   4.730   0.275  1.6058 -0.9609 -1.7901
 9690TIP3    H250562   3.312   4.721   0.182  0.4707 -0.4733 -0.4209
 9691TIP3   OH250563   5.168   0.884  13.879 -0.2041 -0.0031 -0.1241
 9691TIP3    H150564   5.171   0.806  13.824  1.4437 -0.4808  0.5971
 9691TIP3    H250565   5.198   0.855  13.965 -2.4577  0.7798  1.0281
 9692TIP3   OH250566   6.366   1.422  12.325 -0.4783  0.2194 -0.6867
 9692TIP3    H150567   6.338   1.403  12.235  0.1786  0.1690 -0.8890
 9692TIP3    H250568   6.460   1.403  12.324 -0.6919 -0.9862  0.3368
 9693TIP3   OH250569   6.062   1.314  15.586 -0.0107 -0.4400  0.4189
 9693TIP3    H150570   5.973   1.312  15.549  0.3831 -1.5477 -0.5325
 9693TIP3    H250571   6.050   1.300  15.680 -1.0672  2.7074  0.8711
 9694TIP3   OH250572   6.374   1.103   0.658  0.1880  0.5031 -0.4482
 9694TIP3    H150573   6.321   1.049   0.600  1.9740 -2.5425  0.5567
 9694TIP3    H250574   6.463   1.096   0.623  1.2389 -1.0484  2.2428
 9695TIP3   OH250575   0.685   1.461  11.118  0.3272 -0.2605 -0.5663
 9695TIP3    H150576   0.654   1.419  11.038  1.4248 -0.2000 -1.0449
 9695TIP3    H250577   0.741   1.395  11.160  1.9478  0.6260 -1.2528
 9696TIP3   OH250578   6.211   1.663  13.129  0.6462  0.0018 -0.6277
 9696TIP3    H150579   6.130   1.667  13.179  1.4904 -2.2039  1.0919
 9696TIP3    H250580   6.219   1.571  13.104  3.8529 -0.5214  1.6167
 9697TIP3   OH250581   0.084   1.639   2.831  0.0456  0.1581 -0.0771
 9697TIP3    H150582  -0.007   1.667   2.846 -0.1957 -1.1595  1.1161
 9697TIP3    H250583   0.085   1.608   2.741 -0.9107 -0.5579  0.1391
 9698TIP3   OH250584   4.299   2.414   2.002  0.2726 -0.0322 -0.0997
 9698TIP3    H150585   4.327   2.364   1.925 -1.3259  1.9035 -2.0958
 9698TIP3    H250586   4.212   2.382   2.022 -0.9455  2.0613 -1.6639
 9699TIP3   OH250587   5.832   5.399   3.489  0.1378 -0.3042 -0.3944
 9699TIP3    H150588   5.763   5.340   3.522  1.8398 -0.8540  2.4321
 9699TIP3    H250589   5.785   5.480   3.468 -1.3804 -0.5442  1.7247
 9700TIP3   OH250590   1.094   2.382   0.844  0.2715  0.6547  0.3558
 9700TIP3    H150591   1.077   2.303   0.896 -0.5499  0.2281 -0.5432
 9700TIP3    H250592   1.066   2.454   0.901 -2.1729  0.1086 -0.0565
 9701TIP3   OH250593   3.901   0.218  14.275  0.4353 -0.6349 -0.8933
 9701TIP3    H150594   3.818   0.178  14.300  1.0308 -0.2089  2.0393
 9701TIP3    H250595   3.887   0.312  14.286  1.3144 -0.5671 -0.2615
 9702TIP3   OH250596   3.471   0.963  13.272  0.0156  0.1874  0.4232
 9702TIP3    H150597   3.554   0.989  13.313  0.5877 -0.7045 -0.1219
 9702TIP3    H250598   3.495   0.936  13.184 -0.7372 -0.7721  0.4926
 9703TIP3   OH250599   2.559   4.148   0.770 -0.0636 -0.0286 -0.1679
 9703TIP3    H150600   2.557   4.210   0.697 -0.7380 -1.1080 -1.0892
 9703TIP3    H250601   2.468   4.124   0.784  0.1584 -0.5465  0.4263
 9704TIP3   OH250602   1.617   0.476   3.250  0.1691  0.4543  0.0056
 9704TIP3    H150603   1.557   0.401   3.251  0.5357  0.1317 -0.7383
 9704TIP3    H250604   1.559   0.553   3.247 -0.2566  0.1248 -1.8078
 9705TIP3   OH250605   0.790   6.423   1.855  0.2067  0.0216 -0.5622
 9705TIP3    H150606   0.803   6.459   1.942  0.6225 -1.0320 -0.1848
 9705TIP3    H250607   0.699   6.394   1.854 -0.2815  1.4521 -1.0272
 9706TIP3   OH250608   5.897   2.304  13.020  0.4764 -0.2188  0.0384
 9706TIP3    H150609   5.807   2.335  13.031  0.2370 -0.3189 -1.4561
 9706TIP3    H250610   5.936   2.364  12.956  0.8544 -1.3386 -0.8228
 9707TIP3   OH250611   5.122   5.676  15.173  0.3241  0.5434 -0.2311
 9707TIP3    H150612   5.149   5.593  15.133  0.5042  0.6837 -0.4016
 9707TIP3    H250613   5.141   5.665  15.266  0.7301  0.5453 -0.3131
 9708TIP3   OH250614   3.785   0.160  11.876 -0.4344 -0.5627  0.0214
 9708TIP3    H150615   3.838   0.130  11.951 -2.2919 -2.0282  0.8196
 9708TIP3    H250616   3.794   0.090  11.811 -1.1160 -0.6749  0.0410
 9709TIP3   OH250617   4.900   2.108   5.363 -0.8303  0.1953 -1.2031
 9709TIP3    H150618   4.882   2.068   5.448  1.1313  2.1087  0.2065
 9709TIP3    H250619   4.876   2.200   5.374  1.8623  1.0455 -1.8384
 9710TIP3   OH250620   3.805   6.789   5.723  0.0630 -0.8761 -0.0963
 9710TIP3    H150621   3.825   6.880   5.700  1.2075 -0.9261  0.6672
 9710TIP3    H250622   3.872   6.737   5.680  0.0622 -1.2735  0.3730
 9711TIP3   OH250623   3.448   3.709  10.587  0.0509  0.3867  0.8724
 9711TIP3    H150624   3.530   3.737  10.548  0.4072 -0.6756  0.8308
 9711TIP3    H250625   3.459   3.615  10.602 -2.6173 -0.7694 -2.9756
 9712TIP3   OH250626   3.152   0.135  11.996  0.0356 -0.1436  0.2694
 9712TIP3    H150627   3.081   0.103  11.942 -1.1198  1.6825  0.6353
 9712TIP3    H250628   3.209   0.182  11.936  0.2777 -0.5264  0.1931
 9713TIP3   OH250629   2.396   0.236   3.869 -0.0040  0.6565 -0.3426
 9713TIP3    H150630   2.454   0.172   3.826 -1.1068 -0.6973  0.1003
 9713TIP3    H250631   2.378   0.197   3.955 -0.0354  1.9971  0.2729
 9714TIP3   OH250632   3.481   3.746   2.036  0.5713 -0.5898 -0.0236
 9714TIP3    H150633   3.480   3.683   1.964  1.1873 -1.0681  0.3802
 9714TIP3    H250634   3.570   3.782   2.036  0.1311  0.5696 -0.4810
 9715TIP3   OH250635   5.239   2.193   2.920 -0.3487 -0.4024 -0.6043
 9715TIP3    H150636   5.232   2.287   2.936  0.3524 -0.6998  1.7807
 9715TIP3    H250637   5.328   2.180   2.887 -0.6374 -0.1822 -1.4912
 9716TIP3   OH250638   5.486   5.111  12.266 -0.2467  0.0846 -0.3767
 9716TIP3    H150639   5.569   5.077  12.301 -0.8749  1.6080  3.0103
 9716TIP3    H250640   5.511   5.191  12.219  0.3652 -0.5506 -1.1610
 9717TIP3   OH250641   2.207   6.430   3.691  0.1055  0.2117 -0.1557
 9717TIP3    H150642   2.150   6.452   3.617 -2.4172 -2.4057  0.8172
 9717TIP3    H250643   2.183   6.493   3.759 -0.9065 -0.1753 -0.1282
 9718TIP3   OH250644   1.757   1.362  14.593 -0.0250  0.4529 -0.2878
 9718TIP3    H150645   1.688   1.426  14.575 -1.0537 -0.4287  0.4203
 9718TIP3    H250646   1.738   1.289  14.535  1.0085  0.6626 -0.9232
 9719TIP3   OH250647   3.094   1.569  16.714  0.2044 -0.1629  0.2169
 9719TIP3    H150648   3.095   1.615  16.630 -0.2558 -1.4514 -0.5263
 9719TIP3    H250649   3.141   1.487  16.697  1.5513  0.2614  1.6760
 9720TIP3   OH250650   4.203   5.693   0.601 -0.0860 -0.2987 -0.1337
 9720TIP3    H150651   4.201   5.783   0.633 -0.9457 -0.8754  1.5824
 9720TIP3    H250652   4.240   5.643   0.674 -2.6925 -1.7787  0.3030
 9721TIP3   OH250653   2.408   2.461   0.148  0.4587 -0.1947 -0.4657
 9721TIP3    H150654   2.427   2.488   0.058 -0.7923 -1.1637 -1.0645
 9721TIP3    H250655   2.464   2.386   0.163  0.2322 -0.4078 -0.6706
 9722TIP3   OH250656   6.389   4.869   6.486  0.4283 -0.2287 -0.4061
 9722TIP3    H150657   6.425   4.794   6.533  1.6976  1.4288  1.4203
 9722TIP3    H250658   6.305   4.886   6.529  1.1416  0.6771  0.7149
 9723TIP3   OH250659   4.653   1.672   2.770  0.4641  0.2977 -0.3190
 9723TIP3    H150660   4.584   1.623   2.726  0.8605 -0.7055  0.1356
 9723TIP3    H250661   4.711   1.701   2.700  0.1820  0.1802 -0.5989
 9724TIP3   OH250662   0.996   5.368  15.718  0.7578  0.8877  0.2215
 9724TIP3    H150663   0.912   5.383  15.761  1.2760  1.0705  1.1842
 9724TIP3    H250664   1.026   5.284  15.751 -0.3794 -0.6533 -2.3462
 9725TIP3   OH250665   5.389   1.686   2.073 -0.0643 -0.0956 -0.1742
 9725TIP3    H150666   5.331   1.613   2.097  0.0743 -0.5623 -1.1934
 9725TIP3    H250667   5.330   1.749   2.031 -0.0379 -0.0080 -0.0791
 9726TIP3   OH250668   4.938   5.649  15.595  0.0937 -0.3751  0.3222
 9726TIP3    H150669   4.909   5.720  15.537 -0.0843 -0.5308  0.2188
 9726TIP3    H250670   4.922   5.683  15.683  0.7292  0.0138  0.2892
 9727TIP3   OH250671   5.678   0.652  14.233 -0.2575  0.0494 -0.4139
 9727TIP3    H150672   5.661   0.572  14.283  0.0337 -0.2828 -0.8476
 9727TIP3    H250673   5.721   0.623  14.153 -0.9442  0.5645 -0.9807
 9728TIP3   OH250674   3.075   5.114  13.584 -0.6054  0.0912 -0.3413
 9728TIP3    H150675   3.163   5.096  13.616 -1.2444 -2.5726  0.1989
 9728TIP3    H250676   3.063   5.053  13.510 -2.5681 -0.9891  0.7720
 9729TIP3   OH250677   5.886   0.806  16.500 -0.0911 -0.3491 -0.0068
 9729TIP3    H150678   5.839   0.764  16.572 -0.1239  0.0090  0.1821
 9729TIP3    H250679   5.974   0.822  16.535 -1.0389  3.0689  1.2669
 9730TIP3   OH250680   3.745   6.116   2.256  0.0052 -0.0851  0.1628
 9730TIP3    H150681   3.707   6.181   2.197 -0.2077  0.8352  1.2772
 9730TIP3    H250682   3.677   6.101   2.322  0.7624 -0.0272  0.9760
 9731TIP3   OH250683   1.606   6.442  13.745  0.4664 -0.3566  0.0516
 9731TIP3    H150684   1.567   6.487  13.819 -0.1672  1.2780 -1.2216
 9731TIP3    H250685   1.582   6.495  13.669  1.1058 -1.9583 -1.3342
 9732TIP3   OH250686   1.403   1.567  15.722 -0.1206 -0.1297 -0.2355
 9732TIP3    H150687   1.367   1.519  15.796 -1.1249  2.2443  0.9107
 9732TIP3    H250688   1.394   1.659  15.746  1.4769  0.6835 -2.4204
 9733TIP3   OH250689   2.885   1.679   6.406 -0.0635 -0.1786  0.7643
 9733TIP3    H150690   2.961   1.625   6.385  0.5447 -0.0128  2.4189
 9733TIP3    H250691   2.917   1.769   6.400 -0.8098  0.0269 -0.9543
 9734TIP3   OH250692   2.972   3.349   5.792  0.5914  0.2463 -0.2512
 9734TIP3    H150693   2.951   3.275   5.850 -1.3689  0.8597 -0.1102
 9734TIP3    H250694   2.928   3.424   5.832 -0.4325  0.7860 -2.2684
 9735TIP3   OH250695   5.795   0.477   3.349  0.0023 -0.1232  0.7488
 9735TIP3    H150696   5.746   0.526   3.415 -2.2359  1.4091 -1.8456
 9735TIP3    H250697   5.806   0.389   3.387 -2.8257  0.1229  2.3914
 9736TIP3   OH250698   5.468   4.875   2.405 -0.1412  0.3821 -0.2318
 9736TIP3    H150699   5.397   4.899   2.346 -0.7405 -0.3261  0.1681
 9736TIP3    H250700   5.548   4.897   2.358 -0.5953 -0.4418 -1.4244
 9737TIP3   OH250701   6.350   2.016  13.729 -0.1384 -0.1372  0.0925
 9737TIP3    H150702   6.386   2.034  13.642  0.7715 -1.2153  0.2217
 9737TIP3    H250703   6.391   2.082  13.786 -0.8434  0.6610 -0.2906
 9738TIP3   OH250704   6.472   2.499   5.449  0.0390 -0.6248  0.0219
 9738TIP3    H150705   6.398   2.446   5.421 -0.4844 -1.4229  2.6352
 9738TIP3    H250706   6.543   2.436   5.462 -0.2114 -0.6002  1.8863
 9739TIP3   OH250707   2.129   5.894  15.074  0.3355 -0.1926  0.2731
 9739TIP3    H150708   2.195   5.934  15.131  1.0573  2.6918 -2.3328
 9739TIP3    H250709   2.071   5.966  15.051 -0.0170 -1.2479 -2.4292
 9740TIP3   OH250710   0.232   2.995   5.762  0.0148 -0.2802  0.4112
 9740TIP3    H150711   0.212   3.042   5.843 -0.3240 -2.3538  1.6125
 9740TIP3    H250712   0.153   2.943   5.745  0.5766 -0.8612 -0.5161
 9741TIP3   OH250713   2.760   5.739  11.286 -0.3181  0.1529  0.0453
 9741TIP3    H150714   2.683   5.686  11.265  0.5732 -1.1479 -0.0600
 9741TIP3    H250715   2.812   5.685  11.345  0.4757  1.0527  0.2074
 9742TIP3   OH250716   2.715   6.512  13.304  0.2889  0.1099 -0.0952
 9742TIP3    H150717   2.745   6.544  13.389 -1.8950 -0.8090  1.0859
 9742TIP3    H250718   2.697   6.419  13.318 -0.0980 -0.0738 -1.5897
 9743TIP3   OH250719   1.956   0.925  14.480 -0.2560  0.4419  0.2457
 9743TIP3    H150720   1.992   1.011  14.502  2.5348 -0.2045 -1.2851
 9743TIP3    H250721   2.010   0.863  14.529 -0.7519 -0.5288 -0.4014
 9744TIP3   OH250722   0.638   1.061   1.310 -0.2301  0.5249 -0.2700
 9744TIP3    H150723   0.704   1.029   1.372 -1.4218 -0.2967  0.6267
 9744TIP3    H250724   0.630   1.155   1.330  0.4509  0.5701 -0.1971
 9745TIP3   OH250725   2.555   5.795   1.604  0.1775  0.0118 -0.0737
 9745TIP3    H150726   2.602   5.715   1.626  1.0074 -0.1219 -2.1472
 9745TIP3    H250727   2.623   5.856   1.576 -0.5383  1.1202  0.5521
 9746TIP3   OH250728   3.531   6.629  16.258  0.3236 -0.8020  0.7526
 9746TIP3    H150729   3.502   6.717  16.236  1.8102 -0.4343  0.1257
 9746TIP3    H250730   3.466   6.597  16.321 -0.5779  0.4948  0.5192
 9747TIP3   OH250731   4.984   1.400  13.050 -0.1890 -0.7788  0.7213
 9747TIP3    H150732   5.014   1.316  13.015  1.4383  1.1497 -3.0383
 9747TIP3    H250733   4.897   1.412  13.010  0.4136  0.1323 -0.3579
 9748TIP3   OH250734   3.300   6.314  13.858 -0.5563  0.1902 -0.5163
 9748TIP3    H150735   3.279   6.233  13.811 -0.1760  0.0623 -0.4688
 9748TIP3    H250736   3.331   6.374  13.790 -0.0751  0.0293 -0.4436
 9749TIP3   OH250737   6.109   3.392  13.800  0.8245 -0.1021  0.1251
 9749TIP3    H150738   6.093   3.350  13.885  0.6647  0.1801  0.2358
 9749TIP3    H250739   6.139   3.480  13.822 -0.4271  0.4147 -0.1117
 9750TIP3   OH250740   5.026   3.134  12.825 -0.1061  0.1818  0.1480
 9750TIP3    H150741   4.938   3.140  12.788  0.2146 -0.9982 -0.8999
 9750TIP3    H250742   5.055   3.225  12.834 -1.7664  0.6433  1.4291
 9751TIP3   OH250743   6.646   5.290   3.636 -0.0194 -0.2527 -0.2875
 9751TIP3    H150744   6.581   5.237   3.682 -0.3405  0.7529  0.4544
 9751TIP3    H250745   6.595   5.353   3.586  0.3561  0.7982  0.6066
 9752TIP3   OH250746   3.064   2.144   5.508  0.5264  0.1081 -0.4151
 9752TIP3    H150747   3.011   2.183   5.577  1.6630 -1.2486  1.3342
 9752TIP3    H250748   3.134   2.207   5.492  0.2711  0.4175 -0.2999
 9753TIP3   OH250749   0.235   5.464  10.470  0.0607  0.4112  0.7738
 9753TIP3    H150750   0.216   5.555  10.493 -1.5791  0.6729 -1.2333
 9753TIP3    H250751   0.150   5.420  10.473  0.6734 -0.8337  0.7709
 9754TIP3   OH250752   1.646   1.514   5.751  0.0618 -0.1299 -0.1136
 9754TIP3    H150753   1.607   1.526   5.838  0.6083 -2.9864  0.6224
 9754TIP3    H250754   1.740   1.517   5.766  0.2874 -3.8778  0.1229
 9755TIP3   OH250755   4.053   0.097  12.765  0.5532  0.4448  0.1741
 9755TIP3    H150756   4.115   0.061  12.828  0.0362 -0.0799  0.4019
 9755TIP3    H250757   4.066   0.045  12.686  1.0028  0.9134 -0.0644
 9756TIP3   OH250758   2.173   0.519   4.484 -0.3834 -0.2903 -0.0644
 9756TIP3    H150759   2.171   0.496   4.577  1.6082 -1.6701 -0.3178
 9756TIP3    H250760   2.265   0.537   4.465 -1.0365  2.1446 -1.3088
 9757TIP3   OH250761   1.529   6.496  11.901  0.5146 -0.4012  0.2546
 9757TIP3    H150762   1.489   6.470  11.818  0.6320 -1.8668  0.6194
 9757TIP3    H250763   1.579   6.575  11.881  0.3497 -0.6055 -1.0186
 9758TIP3   OH250764   4.782   1.722   5.906  0.4510  0.4929  0.3563
 9758TIP3    H150765   4.783   1.636   5.865  2.6614  1.1494 -1.1308
 9758TIP3    H250766   4.841   1.715   5.981 -1.2369  0.1277  1.7218
 9759TIP3   OH250767   4.223   0.355   6.425  0.6863  0.3320  0.2266
 9759TIP3    H150768   4.209   0.404   6.344  0.2340  0.6805  0.5117
 9759TIP3    H250769   4.189   0.267   6.405  0.2536  0.5151  0.1516
 9760TIP3   OH250770   3.813   4.607   2.122 -0.5436  0.0487  0.3240
 9760TIP3    H150771   3.736   4.600   2.178  0.1101  1.5442  1.4849
 9760TIP3    H250772   3.797   4.684   2.068 -0.8348 -0.9514 -1.0568
 9761TIP3   OH250773   4.044   2.094   3.813  0.1835  0.1428 -0.4902
 9761TIP3    H150774   4.088   2.091   3.898 -1.7097 -2.4902  0.5067
 9761TIP3    H250775   4.081   2.021   3.764 -0.6192  0.0131 -0.9144
 9762TIP3   OH250776   2.525   6.443   1.706 -0.5118  0.7360 -0.0240
 9762TIP3    H150777   2.619   6.433   1.715 -0.2885  2.5385  0.0151
 9762TIP3    H250778   2.490   6.355   1.714  0.9913  0.2704  1.9550
 9763TIP3   OH250779   4.913   1.229   1.435 -0.0562 -0.5105 -0.2552
 9763TIP3    H150780   4.866   1.277   1.366  0.4291 -0.1098 -0.3146
 9763TIP3    H250781   4.988   1.285   1.455  0.4719 -1.2100 -0.2655
 9764TIP3   OH250782   5.937   1.714   1.582  0.6150  0.5923  0.2399
 9764TIP3    H150783   5.879   1.652   1.537  0.0784  0.1676  1.4716
 9764TIP3    H250784   5.880   1.788   1.604  0.2417 -0.2154  2.2650
 9765TIP3   OH250785   2.121   4.105   4.274  0.2614  0.3153 -0.1958
 9765TIP3    H150786   2.186   4.175   4.269  0.5582 -0.0095 -1.2450
 9765TIP3    H250787   2.133   4.055   4.193 -1.0142 -0.0007 -0.2165
 9766TIP3   OH250788   6.535   2.827   5.383 -0.0695  0.0104 -0.2424
 9766TIP3    H150789   6.441   2.815   5.378 -0.3716  2.0588 -0.2930
 9766TIP3    H250790   6.559   2.865   5.298  0.7115 -0.0096 -0.0389
 9767TIP3   OH250791   5.352   0.654  16.521 -0.1510 -0.0339 -1.0163
 9767TIP3    H150792   5.370   0.649  16.427  2.6543 -0.0587 -0.5614
 9767TIP3    H250793   5.292   0.728  16.530 -0.5881 -0.1152 -2.8018
 9768TIP3   OH250794   0.883   3.393   3.208 -0.1855  0.2692  0.7331
 9768TIP3    H150795   0.861   3.377   3.300 -0.1390 -2.0534  0.4164
 9768TIP3    H250796   0.978   3.390   3.205 -0.1940  0.1141  0.5822
 9769TIP3   OH250797   5.217   5.712   2.406  0.2918 -0.3479  0.4902
 9769TIP3    H150798   5.237   5.769   2.481  2.2429  0.0657 -0.2780
 9769TIP3    H250799   5.238   5.624   2.437  1.8017 -0.1008  0.2428
 9770TIP3   OH250800   2.622   6.733  16.390  0.8171  0.0278 -0.0282
 9770TIP3    H150801   2.530   6.733  16.418  0.9504  1.2015  0.4823
 9770TIP3    H250802   2.623   6.790  16.314  1.1443  0.1383  0.0586
 9771TIP3   OH250803   2.090   4.377  10.939 -0.1496 -0.8027 -0.1988
 9771TIP3    H150804   2.134   4.462  10.939 -0.3033 -0.6469  2.2620
 9771TIP3    H250805   2.102   4.343  11.028 -0.8402 -2.9815 -0.8550
 9772TIP3   OH250806   0.448   0.894   4.701  0.6645 -0.6601 -0.6917
 9772TIP3    H150807   0.414   0.805   4.691 -0.3861 -0.2646 -0.7138
 9772TIP3    H250808   0.463   0.903   4.795  0.9913 -0.9316 -0.7148
 9773TIP3   OH250809   2.596   4.328   4.825  0.0537  0.3745  0.3924
 9773TIP3    H150810   2.691   4.320   4.825  0.0247  0.0283  0.2435
 9773TIP3    H250811   2.568   4.282   4.904 -0.2219 -2.4337 -1.2171
 9774TIP3   OH250812   2.374   1.030  15.742 -0.5384  0.0554  0.0882
 9774TIP3    H150813   2.285   1.032  15.707 -0.5921  0.0931  0.2256
 9774TIP3    H250814   2.428   1.064  15.671 -0.7020  0.5650  0.2027
 9775TIP3   OH250815   6.259   5.988   6.328 -0.1483 -0.2860 -0.3160
 9775TIP3    H150816   6.266   5.945   6.414 -2.3105  0.2981  0.2225
 9775TIP3    H250817   6.223   6.074   6.348 -0.1514  0.0681 -1.7836
 9776TIP3   OH250818   6.747   1.798   1.071 -0.3145 -0.1645  0.7124
 9776TIP3    H150819   6.826   1.745   1.077 -0.2830 -0.3489 -0.9533
 9776TIP3    H250820   6.686   1.745   1.019 -0.1924  1.4880 -1.2022
 9777TIP3   OH250821   0.533   2.077   0.054 -0.1243 -0.0052 -0.1387
 9777TIP3    H150822   0.603   2.101   0.114 -0.8615  1.0508  0.3411
 9777TIP3    H250823   0.500   1.993   0.087  0.8234 -0.4432 -0.2979
 9778TIP3   OH250824   5.978   0.831   4.533  0.0922  0.1155  0.5349
 9778TIP3    H150825   5.943   0.876   4.610 -0.3037  1.0307 -0.1556
 9778TIP3    H250826   5.924   0.753   4.524  0.4281 -0.2427  1.4258
 9779TIP3   OH250827   0.940   3.029   3.389 -0.0940 -0.7691 -0.7073
 9779TIP3    H150828   0.998   2.953   3.391  1.7278  0.5573 -0.4422
 9779TIP3    H250829   0.907   3.032   3.299  2.0596 -0.3178 -1.5530
 9780TIP3   OH250830   3.446   4.632   5.162  0.2000 -0.6589 -0.2228
 9780TIP3    H150831   3.439   4.724   5.187 -2.6379 -0.9562  0.3976
 9780TIP3    H250832   3.383   4.587   5.219  0.7332 -2.8309 -1.2501
 9781TIP3   OH250833   1.426   0.243   0.476 -0.4201 -0.3020  0.7058
 9781TIP3    H150834   1.424   0.317   0.416 -1.5942 -1.6313 -0.9802
 9781TIP3    H250835   1.519   0.228   0.492 -0.1095  0.5586 -0.1714
 9782TIP3   OH250836   4.564   2.769  10.864  0.2972 -0.6852 -0.4855
 9782TIP3    H150837   4.636   2.770  10.801 -1.5592  0.7484 -2.7438
 9782TIP3    H250838   4.525   2.683  10.854  0.4508 -0.7265 -0.7399
 9783TIP3   OH250839   4.348   3.784   2.773 -0.5052  0.6916 -0.0021
 9783TIP3    H150840   4.341   3.877   2.794  0.5472  0.5005  1.3495
 9783TIP3    H250841   4.431   3.777   2.726 -0.8238  0.4854 -0.5491
 9784TIP3   OH250842   4.737   4.205   0.560 -0.1177 -0.0296 -0.1634
 9784TIP3    H150843   4.811   4.155   0.595  0.0366 -0.9555 -1.7104
 9784TIP3    H250844   4.767   4.235   0.474 -1.4008 -0.0788 -0.6489
 9785TIP3   OH250845   0.801   4.563  12.250 -0.1458 -0.5499 -0.3880
 9785TIP3    H150846   0.892   4.559  12.281 -0.5356 -5.8290  1.0575
 9785TIP3    H250847   0.750   4.580  12.329 -0.5553 -2.3928 -0.2118
 9786TIP3   OH250848   3.696   0.367   4.723 -0.1980  0.3233 -0.4280
 9786TIP3    H150849   3.739   0.353   4.807 -1.1868  1.8113  0.3805
 9786TIP3    H250850   3.748   0.434   4.679  0.1109 -0.1891 -0.8557
 9787TIP3   OH250851   3.401   2.288  16.106  0.1275  0.4409  0.0912
 9787TIP3    H150852   3.407   2.199  16.070 -2.2812 -0.0252  0.7041
 9787TIP3    H250853   3.489   2.307  16.138  0.6209 -1.8652  0.2518
 9788TIP3   OH250854   6.518   3.191   5.401 -0.2842 -0.0494  0.4610
 9788TIP3    H150855   6.602   3.162   5.365 -0.3076  1.8195 -1.2949
 9788TIP3    H250856   6.456   3.176   5.330 -0.6179  2.3927  0.1434
 9789TIP3   OH250857   1.597   1.153  17.063 -0.6581  0.3293 -0.0046
 9789TIP3    H150858   1.653   1.219  17.023 -0.9684  1.1611  0.8975
 9789TIP3    H250859   1.625   1.150  17.154 -1.4160  0.0479  0.2288
 9790TIP3   OH250860   1.363   6.452   2.501  0.2425  0.1564 -0.1862
 9790TIP3    H150861   1.283   6.420   2.459 -0.4988 -0.2723  1.4747
 9790TIP3    H250862   1.347   6.442   2.594  1.2460  2.4255  0.3086
 9791TIP3   OH250863   3.497   1.705   0.533 -0.1290  0.3713  0.1863
 9791TIP3    H150864   3.445   1.763   0.588 -0.4455 -1.4965  1.9856
 9791TIP3    H250865   3.443   1.626   0.523  1.0197 -0.3543 -0.6157
 9792TIP3   OH250866   5.280   5.124   2.345 -0.8295  0.3102 -0.4250
 9792TIP3    H150867   5.220   5.052   2.325 -2.2033  1.4984 -0.7414
 9792TIP3    H250868   5.223   5.199   2.363  0.5552  1.2869  0.0551
 9793TIP3   OH250869   3.710   3.544   0.448 -0.8363 -0.6763  0.6480
 9793TIP3    H150870   3.719   3.606   0.376 -1.1943 -1.6500 -0.2609
 9793TIP3    H250871   3.617   3.521   0.448 -0.5175 -2.0682  0.2130
 9794TIP3   OH250872   0.369   1.842   1.761 -0.2761 -0.1959  0.5260
 9794TIP3    H150873   0.372   1.867   1.669  2.7769  0.1040  0.5984
 9794TIP3    H250874   0.426   1.906   1.805  1.4356 -2.5547  1.9643
 9795TIP3   OH250875   6.301   1.611  11.169 -0.2836  0.8713  0.4738
 9795TIP3    H150876   6.341   1.695  11.146  0.4544  0.2333 -0.7083
 9795TIP3    H250877   6.208   1.631  11.181 -0.0495  1.9200  0.6317
 9796TIP3   OH250878   1.335   0.825   5.137 -0.2730  0.8334 -0.1979
 9796TIP3    H150879   1.261   0.785   5.183  0.0367 -0.4379 -0.7612
 9796TIP3    H250880   1.394   0.852   5.207  0.4409 -1.5578  0.2402
 9797TIP3   OH250881   6.692   4.737  15.426  0.2875  0.0346 -0.0620
 9797TIP3    H150882   6.621   4.800  15.408 -1.0183 -0.0587  3.8709
 9797TIP3    H250883   6.757   4.787  15.475  3.6836  0.3480 -4.2997
 9798TIP3   OH250884   5.287   6.314  15.948 -0.3960 -0.0019  0.2545
 9798TIP3    H150885   5.316   6.374  15.879  0.4793 -1.0150 -0.2905
 9798TIP3    H250886   5.350   6.324  16.018 -0.2458 -0.2639  0.1616
 9799TIP3   OH250887   2.084   4.209   4.000  0.0986  0.4039 -0.3919
 9799TIP3    H150888   2.081   4.175   3.911 -0.9824  0.5977 -0.4425
 9799TIP3    H250889   2.140   4.287   3.994  1.0785 -0.2886 -0.6301
 9800TIP3   OH250890   2.828   5.701   5.944  0.0280  0.2223 -0.1987
 9800TIP3    H150891   2.858   5.678   6.032  1.9535  0.9898 -0.5852
 9800TIP3    H250892   2.802   5.793   5.951 -0.8569 -0.0238 -0.2020
 9801TIP3   OH250893   3.729   3.257  17.009  0.2202 -0.4773  0.0176
 9801TIP3    H150894   3.703   3.342  16.976  0.9217 -0.1487  0.2908
 9801TIP3    H250895   3.809   3.235  16.960 -1.2865 -2.1311 -1.8751
 9802TIP3   OH250896   1.498   2.561   5.801  0.1720 -1.0135  1.0238
 9802TIP3    H150897   1.558   2.586   5.871  0.4642  1.9939 -0.1722
 9802TIP3    H250898   1.555   2.536   5.728  0.0076  0.2120  0.4442
 9803TIP3   OH250899   6.120   6.237   3.196 -0.2973  0.1127  0.2311
 9803TIP3    H150900   6.131   6.196   3.282  0.1496  0.3498  0.2894
 9803TIP3    H250901   6.035   6.206   3.166 -0.9413  0.8546  1.2124
 9804TIP3   OH250902   6.696   5.248  12.718  0.1944 -0.7868  0.3229
 9804TIP3    H150903   6.789   5.267  12.704 -0.1843  0.6850 -0.4070
 9804TIP3    H250904   6.687   5.155  12.698  1.2724 -0.6445 -0.9496
 9805TIP3   OH250905   3.824   0.536   4.169 -0.3562 -0.3205  0.4335
 9805TIP3    H150906   3.795   0.449   4.142 -0.3160 -0.4360  0.7636
 9805TIP3    H250907   3.783   0.595   4.106  1.1585 -0.7082 -0.9944
 9806TIP3   OH250908   1.538   3.018   0.437 -0.6682 -0.8364 -0.1876
 9806TIP3    H150909   1.493   3.055   0.513  0.3468 -2.8201  1.4692
 9806TIP3    H250910   1.615   3.073   0.426  0.4194 -1.8561  1.7568
 9807TIP3   OH250911   1.018   4.943   3.421 -0.6160  0.6574 -0.2927
 9807TIP3    H150912   0.949   4.880   3.439  1.6605 -1.7781  0.5598
 9807TIP3    H250913   1.058   4.913   3.339  1.7778 -0.3585  1.1343
 9808TIP3   OH250914   6.540   4.974  16.506 -1.0258 -0.2953 -0.3398
 9808TIP3    H150915   6.627   5.010  16.486 -0.6472 -0.3626  1.0477
 9808TIP3    H250916   6.500   5.039  16.563 -1.6433 -0.5613 -0.4641
 9809TIP3   OH250917   1.865   4.252   4.622 -0.3701 -0.4093  0.2171
 9809TIP3    H150918   1.943   4.277   4.672 -1.5679 -1.8266  3.0079
 9809TIP3    H250919   1.877   4.158   4.607 -1.3472 -0.5568  0.3212
 9810TIP3   OH250920   1.817   3.763   1.905  0.6466  0.0804 -0.4622
 9810TIP3    H150921   1.879   3.700   1.942 -0.0383  0.3865  1.3493
 9810TIP3    H250922   1.870   3.840   1.883  1.2062 -0.4358 -0.9572
 9811TIP3   OH250923   5.138   3.691  17.025 -0.0527 -0.6152 -0.1417
 9811TIP3    H150924   5.114   3.618  17.082 -0.3502  0.1128  0.6969
 9811TIP3    H250925   5.163   3.650  16.943 -1.7766 -1.5803 -0.2466
 9812TIP3   OH250926   1.196   4.521  11.926  0.0170 -1.0918  0.5110
 9812TIP3    H150927   1.113   4.567  11.919 -0.1869 -1.2030  1.9966
 9812TIP3    H250928   1.174   4.437  11.965  0.9143 -0.7620  1.7986
 9813TIP3   OH250929   6.707   3.354   4.212  0.4137  0.0158 -0.0029
 9813TIP3    H150930   6.727   3.440   4.248  1.3412 -0.5435  0.8518
 9813TIP3    H250931   6.786   3.329   4.163  1.0852 -1.3011  1.6447
 9814TIP3   OH250932   0.840   4.621  15.096  0.3591 -0.8108 -0.2582
 9814TIP3    H150933   0.761   4.673  15.082  0.3851 -0.7710 -0.2570
 9814TIP3    H250934   0.894   4.674  15.154 -0.0145 -1.2503  0.5038
 9815TIP3   OH250935   5.829   2.514  14.298  0.4753  0.0870  0.1788
 9815TIP3    H150936   5.801   2.428  14.328  0.1361 -0.0944 -0.6373
 9815TIP3    H250937   5.916   2.499  14.261  0.1749 -0.0179 -0.4902
 9816TIP3   OH250938   2.484   2.983   4.943 -0.2654  0.8928 -0.9639
 9816TIP3    H150939   2.515   2.892   4.937  0.6203  1.0869  0.3732
 9816TIP3    H250940   2.391   2.975   4.964 -0.3563  0.3144 -1.5266
 9817TIP3   OH250941   2.969   0.573  16.933  0.5456  0.3910 -0.1871
 9817TIP3    H150942   2.904   0.611  16.991 -0.3560 -0.1523 -0.8157
 9817TIP3    H250943   3.041   0.547  16.991  0.8009  2.1871  0.3586
 9818TIP3   OH250944   5.893   0.679  12.317 -0.0448 -0.6079 -0.0621
 9818TIP3    H150945   5.825   0.641  12.371  0.0245 -0.6706 -0.0181
 9818TIP3    H250946   5.938   0.741  12.375  1.3922 -2.1984  0.6163
 9819TIP3   OH250947   6.834   6.176   3.070 -0.8033  0.1922  0.2092
 9819TIP3    H150948   6.758   6.161   3.014 -0.4872 -1.3733  0.1403
 9819TIP3    H250949   6.840   6.097   3.124  1.0750  0.0042 -0.1822
 9820TIP3   OH250950   6.223   3.711  13.573  0.6295  0.0645 -0.0946
 9820TIP3    H150951   6.289   3.642  13.577 -0.7038 -1.2108  2.6987
 9820TIP3    H250952   6.238   3.764  13.652 -0.5469  0.8284 -0.3544
 9821TIP3   OH250953   6.112   5.962  12.994 -0.4548 -0.8713  1.1021
 9821TIP3    H150954   6.041   5.900  13.012  0.0711 -1.3196  1.6615
 9821TIP3    H250955   6.077   6.018  12.925 -0.5325 -2.4943 -0.2437
 9822TIP3   OH250956   1.337   4.050   5.627 -0.0428 -0.3846  0.1285
 9822TIP3    H150957   1.306   4.053   5.537 -0.3250 -1.4702  0.1737
 9822TIP3    H250958   1.367   4.139   5.646 -0.7151  0.0392 -0.7685
 9823TIP3   OH250959   0.553   2.327  16.231  0.4373  0.5774  0.3970
 9823TIP3    H150960   0.589   2.303  16.317 -1.8857 -0.9291  1.0686
 9823TIP3    H250961   0.535   2.243  16.189 -0.3448  1.2816 -0.7107
 9824TIP3   OH250962   1.371   6.085  16.511 -0.1217  0.1206 -0.3610
 9824TIP3    H150963   1.333   6.096  16.424  1.0380 -1.3272 -1.0994
 9824TIP3    H250964   1.440   6.020  16.499 -0.6601 -0.9701  1.8508
 9825TIP3   OH250965   1.830   0.629   3.164  0.2359 -0.5316  0.2861
 9825TIP3    H150966   1.762   0.574   3.125  1.4344 -0.6649 -1.7459
 9825TIP3    H250967   1.821   0.713   3.120 -1.4172  0.9862  3.1763
 9826TIP3   OH250968   1.037   3.816   4.379  0.3890 -0.7104  0.2940
 9826TIP3    H150969   1.101   3.753   4.344  0.4325  0.2223 -1.4078
 9826TIP3    H250970   1.038   3.888   4.316 -1.7229 -0.2863  0.6910
 9827TIP3   OH250971   4.701   6.529   1.268 -0.3799 -0.2629 -0.5267
 9827TIP3    H150972   4.638   6.507   1.338 -0.2513 -0.3987 -0.4531
 9827TIP3    H250973   4.775   6.568   1.314 -1.2003  1.7120 -0.7684
 9828TIP3   OH250974   6.387   4.621   3.112  0.2977 -0.3078  0.4795
 9828TIP3    H150975   6.406   4.603   3.205  0.1093  0.3948  0.6547
 9828TIP3    H250976   6.337   4.544   3.084  1.8202 -1.3404  0.4901
 9829TIP3   OH250977   1.401   1.653  11.518 -0.5158 -0.0051 -0.7236
 9829TIP3    H150978   1.367   1.725  11.572  0.4357 -0.8116  1.0334
 9829TIP3    H250979   1.406   1.579  11.577 -0.0022 -1.1214 -2.1072
 9830TIP3   OH250980   2.764   3.807  14.722  0.6861 -0.9132  1.4075
 9830TIP3    H150981   2.753   3.835  14.631  1.6741 -2.2367  0.8588
 9830TIP3    H250982   2.714   3.871  14.773 -0.3852 -0.4983 -0.1067
 9831TIP3   OH250983   4.420   5.655   4.529  0.2716 -0.1383  0.1623
 9831TIP3    H150984   4.380   5.735   4.494  0.8949  0.3240  0.4750
 9831TIP3    H250985   4.474   5.686   4.602  3.3639 -0.3529 -1.8753
 9832TIP3   OH250986   0.367   3.744  17.070  0.1017  0.6341 -0.0446
 9832TIP3    H150987   0.296   3.757  17.133 -1.2084 -0.1234 -1.3186
 9832TIP3    H250988   0.354   3.812  17.005  1.3262  1.2784  0.3533
 9833TIP3   OH250989   2.529   5.995   0.056 -0.4258 -0.0329  0.6084
 9833TIP3    H150990   2.557   5.914   0.099 -1.2045 -0.4890  0.2778
 9833TIP3    H250991   2.485   5.966  -0.023  1.6345  0.8090 -0.9365
 9834TIP3   OH250992   2.295   0.391  15.940 -0.4457  0.0549  0.4258
 9834TIP3    H150993   2.360   0.371  16.007 -1.7060 -0.4192  1.5470
 9834TIP3    H250994   2.256   0.474  15.969 -1.4584 -0.4873  0.6618
 9835TIP3   OH250995   3.227   4.681  17.153  0.1336 -0.3402  0.0252
 9835TIP3    H150996   3.210   4.763  17.200 -0.3393  0.7224 -1.8612
 9835TIP3    H250997   3.156   4.623  17.180  0.7674 -0.3605  1.7963
 9836TIP3   OH250998   4.845   0.558  12.841 -0.5087 -0.7817  0.0914
 9836TIP3    H150999   4.928   0.514  12.861  0.2504  0.3636 -0.4097
 9836TIP3    H251000   4.783   0.487  12.826 -0.0324 -1.6800  2.0660
 9837TIP3   OH251001   3.796   3.283   0.149  0.3506 -0.1180  0.3782
 9837TIP3    H151002   3.821   3.329   0.229 -2.1868 -0.3569  1.3841
 9837TIP3    H251003   3.723   3.334   0.114 -0.8520 -1.9149  0.1366
 9838TIP3   OH251004   2.063   6.829  13.465  0.0305 -0.0637  0.3287
 9838TIP3    H151005   2.118   6.826  13.386 -0.5390  0.1465 -0.0883
 9838TIP3    H251006   2.107   6.892  13.522  0.5394 -0.3422  0.2429
 9839TIP3   OH251007   1.366   1.320   5.593  0.3201  0.0682 -0.1079
 9839TIP3    H151008   1.438   1.366   5.550 -1.2663  1.3167 -1.5574
 9839TIP3    H251009   1.402   1.291   5.677  2.1684  1.5961 -0.3236
 9840TIP3   OH251010   1.912   5.022  11.168  0.0882 -0.2058 -0.1113
 9840TIP3    H151011   1.845   4.960  11.196 -0.8565  0.9856  0.3191
 9840TIP3    H251012   1.875   5.066  11.092  0.0532  0.9759  0.5621
 9841TIP3   OH251013   3.290   5.040  15.542  0.5183 -0.1979  0.1930
 9841TIP3    H151014   3.225   5.110  15.532 -0.1407 -0.7795  0.2671
 9841TIP3    H251015   3.272   5.003  15.629  1.1455 -0.1772  0.3342
 9842TIP3   OH251016   2.138   5.848   3.779  0.3131 -0.0901  0.5861
 9842TIP3    H151017   2.056   5.897   3.789  0.0779 -0.0589 -1.2864
 9842TIP3    H251018   2.166   5.864   3.689  0.4861 -3.0171  0.0248
 9843TIP3   OH251019   3.209   3.125  13.740 -0.6183 -0.3880 -0.3202
 9843TIP3    H151020   3.121   3.146  13.709 -0.2993  0.0043 -0.9821
 9843TIP3    H251021   3.263   3.197  13.708  0.0962 -1.0827 -0.6909
 9844TIP3   OH251022   6.224   4.103  14.897  0.1155 -0.0589  0.0594
 9844TIP3    H151023   6.164   4.033  14.922  0.2299  0.0138  0.5402
 9844TIP3    H251024   6.280   4.116  14.974  0.7845 -0.1629 -0.4053
 9845TIP3   OH251025   4.468   5.391   1.985 -0.0888 -0.8678  0.3502
 9845TIP3    H151026   4.453   5.310   2.034 -0.8742 -0.2013  1.2506
 9845TIP3    H251027   4.381   5.428   1.973  0.3074  0.1421  0.4789
 9846TIP3   OH251028   6.145   6.140   5.065  0.0979  0.0450  0.3205
 9846TIP3    H151029   6.196   6.211   5.026  0.9957  0.1196  1.5544
 9846TIP3    H251030   6.058   6.177   5.078  0.5869  0.9867  1.0574
 9847TIP3   OH251031   3.066   5.821   3.703 -0.3431 -0.5671  0.2046
 9847TIP3    H151032   3.055   5.819   3.798  0.7751 -0.6334  0.3472
 9847TIP3    H251033   2.985   5.860   3.670 -0.6298 -0.2940  1.2061
 9848TIP3   OH251034   2.849   0.197   4.367  0.2512  0.5491  0.4124
 9848TIP3    H151035   2.902   0.133   4.416 -1.3037 -1.3206 -0.1926
 9848TIP3    H251036   2.907   0.230   4.299  0.6700 -1.4979 -0.2924
 9849TIP3   OH251037   0.305   5.342  14.031 -0.0907  0.3656  0.2494
 9849TIP3    H151038   0.330   5.329  14.122 -0.7721  1.6393  0.6438
 9849TIP3    H251039   0.359   5.415  14.001 -0.5121  0.5545 -0.0749
 9850TIP3   OH251040   1.687   0.144   0.498 -0.2996 -0.3870  0.7740
 9850TIP3    H151041   1.691   0.085   0.573 -0.5044 -0.5058  0.6926
 9850TIP3    H251042   1.778   0.160   0.475 -0.2427 -1.4565  0.1799
 9851TIP3   OH251043   4.093   5.926  16.119 -0.0815 -0.0819 -0.0368
 9851TIP3    H151044   4.052   5.956  16.039 -0.1698  0.9488  0.3818
 9851TIP3    H251045   4.173   5.881  16.090 -0.6410 -0.6271 -0.7484
 9852TIP3   OH251046   3.883   3.608   2.565  0.7204  0.1009 -0.5508
 9852TIP3    H151047   3.950   3.647   2.622 -1.1756 -1.5899  3.1153
 9852TIP3    H251048   3.919   3.524   2.539  0.9244  0.1705 -0.4936
 9853TIP3   OH251049   5.787   5.465   5.746 -0.0649  0.2473 -0.4633
 9853TIP3    H151050   5.702   5.442   5.708 -0.6623  0.2966  0.8121
 9853TIP3    H251051   5.846   5.468   5.671 -1.0835 -0.2616 -1.3142
 9854TIP3   OH251052   3.310   3.744   0.545  0.1364 -0.9089 -0.3751
 9854TIP3    H151053   3.309   3.748   0.449  2.0203 -0.8880 -0.4301
 9854TIP3    H251054   3.362   3.666   0.565  0.4660 -0.4462  0.6186
 9855TIP3   OH251055   2.851   5.882  12.955  0.4395 -0.4188  0.3621
 9855TIP3    H151056   2.908   5.855  12.883 -0.3406 -0.4444 -0.2680
 9855TIP3    H251057   2.772   5.914  12.911  0.1094 -0.0695  1.2020
 9856TIP3   OH251058   2.320   3.822   2.246  0.2450 -0.3001 -0.4577
 9856TIP3    H151059   2.264   3.745   2.244  0.4687 -0.4743 -2.6166
 9856TIP3    H251060   2.408   3.787   2.260 -0.0376 -0.0767  2.3052
 9857TIP3   OH251061   0.783   3.899   0.554 -0.1851 -0.0013  0.4299
 9857TIP3    H151062   0.867   3.885   0.596  1.2719 -0.0881 -2.2628
 9857TIP3    H251063   0.763   3.992   0.568  1.1689  0.4049 -0.1951
 9858TIP3   OH251064   5.316   4.652   5.093  0.6406  0.9586 -0.1302
 9858TIP3    H151065   5.233   4.683   5.128  0.7909 -0.9653  2.1844
 9858TIP3    H251066   5.350   4.726   5.042 -1.1928  2.7570  1.1109
 9859TIP3   OH251067   6.819   2.099  11.810 -0.2899 -0.0386 -0.0145
 9859TIP3    H151068   6.914   2.086  11.820 -0.4640 -1.1045  0.4316
 9859TIP3    H251069   6.804   2.188  11.843  0.4539 -0.1419  0.6473
 9860TIP3   OH251070   2.137   0.763  14.615 -0.6520  0.2218 -0.0777
 9860TIP3    H151071   2.148   0.825  14.687 -1.2903 -0.4988  0.6574
 9860TIP3    H251072   2.224   0.726  14.602 -0.1897  1.4799 -0.7372
 9861TIP3   OH251073   6.166   2.870  12.811 -0.1519 -0.2330  0.1434
 9861TIP3    H151074   6.121   2.840  12.732  0.3003 -0.5533  0.0027
 9861TIP3    H251075   6.256   2.841  12.800  0.6860  2.3611 -0.6611
 9862TIP3   OH251076   0.234   0.164  14.874  0.2165 -0.3540 -0.2584
 9862TIP3    H151077   0.153   0.180  14.922 -0.4805 -0.7349 -1.2642
 9862TIP3    H251078   0.270   0.084  14.912  0.3005 -0.0061  0.4092
 9863TIP3   OH251079   3.960   1.974  15.659 -0.3157 -0.3221  0.2140
 9863TIP3    H151080   3.918   1.891  15.638 -0.4829 -0.0154 -0.6933
 9863TIP3    H251081   3.913   2.005  15.737  0.6766 -1.7328  1.4112
 9864TIP3   OH251082   1.426   5.171   1.492 -0.4998  0.8654 -0.1541
 9864TIP3    H151083   1.408   5.242   1.554 -2.5238 -1.0927  1.6546
 9864TIP3    H251084   1.365   5.185   1.420  0.8221  2.2814 -1.0753
 9865TIP3   OH251085   6.185   0.336  14.863 -0.6712  0.0518 -0.0863
 9865TIP3    H151086   6.107   0.384  14.833  1.1705  2.0984 -2.0019
 9865TIP3    H251087   6.237   0.403  14.908  0.6192 -0.9250 -0.0961
 9866TIP3   OH251088   4.505   5.214   0.398  0.5971  0.5020  0.1618
 9866TIP3    H151089   4.580   5.273   0.401  1.2403 -0.3038  0.8092
 9866TIP3    H251090   4.436   5.263   0.353  0.8877  1.9700  1.2520
 9867TIP3   OH251091   6.787   6.703   3.896  0.0064 -0.1877  0.1475
 9867TIP3    H151092   6.793   6.773   3.830  1.1078 -0.8814 -0.5147
 9867TIP3    H251093   6.846   6.635   3.864 -0.3348 -1.0341  1.2693
 9868TIP3   OH251094   4.234   5.709   1.336 -0.7535 -0.2517  0.2258
 9868TIP3    H151095   4.254   5.616   1.337  0.5013 -0.0273 -0.8012
 9868TIP3    H251096   4.238   5.736   1.428  0.6119 -0.8854  0.3779
 9869TIP3   OH251097   4.483   0.979  14.787  0.2490  0.4226  0.2812
 9869TIP3    H151098   4.451   0.933  14.709 -0.6851  0.2297  0.7678
 9869TIP3    H251099   4.460   1.070  14.773 -0.3051  0.3214  0.5208
 9870TIP3   OH251100   4.642   0.649   3.871 -0.7173  0.0120 -0.4973
 9870TIP3    H151101   4.731   0.675   3.848 -0.3559 -0.4256  0.3777
 9870TIP3    H251102   4.640   0.554   3.859 -1.1051  0.0338 -0.6418
 9871TIP3   OH251103   5.652   1.767   2.105 -0.3228  0.3475 -0.4020
 9871TIP3    H151104   5.685   1.725   2.184  1.9375  1.2100 -0.8037
 9871TIP3    H251105   5.561   1.740   2.099 -0.8251  0.9721  2.9495
 9872TIP3   OH251106   5.262   6.352  13.387  0.0343  0.3423  0.2289
 9872TIP3    H151107   5.313   6.273  13.368 -0.3506 -0.1661  1.2501
 9872TIP3    H251108   5.326   6.414  13.421  0.1765  0.1485  0.3161
 9873TIP3   OH251109   1.724   1.191  13.967 -0.3488  0.0929 -0.3878
 9873TIP3    H151110   1.645   1.231  14.001  0.3595 -0.8875  2.6971
 9873TIP3    H251111   1.784   1.187  14.042  1.7890 -1.2481 -2.0393
 9874TIP3   OH251112   3.469   4.753  16.481 -0.0342 -0.7593  0.0871
 9874TIP3    H151113   3.423   4.771  16.563 -1.0114  0.3539 -0.6671
 9874TIP3    H251114   3.475   4.657  16.478  0.5012 -0.8151  1.6840
 9875TIP3   OH251115   1.674   6.465   1.866  0.1429 -0.1204  0.1774
 9875TIP3    H151116   1.745   6.488   1.807 -0.1939  0.1054 -0.1443
 9875TIP3    H251117   1.707   6.487   1.953 -0.2110  1.7680 -0.1143
 9876TIP3   OH251118   4.640   5.649   2.119  0.8224 -0.2355 -0.1101
 9876TIP3    H151119   4.623   5.575   2.061  0.0490  0.7659 -1.2079
 9876TIP3    H251120   4.673   5.718   2.062 -1.0713  1.1746  0.3865
 9877TIP3   OH251121   1.594   3.211  11.262 -0.3140  0.6494 -0.0783
 9877TIP3    H151122   1.576   3.240  11.352 -0.8957  0.6749 -0.2036
 9877TIP3    H251123   1.623   3.120  11.273  0.4493  0.9142  0.2085
 9878TIP3   OH251124   3.821   5.464  12.739  0.1460  0.1258  0.3974
 9878TIP3    H151125   3.751   5.417  12.784 -1.0685 -0.6051 -2.0543
 9878TIP3    H251126   3.789   5.554  12.732  0.9134  0.5629  2.0168
 9879TIP3   OH251127   5.168   3.502  15.356 -0.0623 -0.2449  0.3314
 9879TIP3    H151128   5.259   3.480  15.377 -0.1338  0.9878  2.1414
 9879TIP3    H251129   5.121   3.495  15.439 -1.5626 -0.4625 -0.4919
 9880TIP3   OH251130   0.232   6.034  12.144 -0.4037  0.4649 -0.0860
 9880TIP3    H151131   0.210   6.002  12.232 -0.5793  1.5477  0.2715
 9880TIP3    H251132   0.328   6.040  12.145 -0.4258  0.8058  0.1521
 9881TIP3   OH251133   3.153   6.745   0.559  0.7644 -0.6122 -0.3392
 9881TIP3    H151134   3.202   6.827   0.555  0.2790 -0.3337 -0.5786
 9881TIP3    H251135   3.221   6.677   0.565  1.1667 -0.1302  1.2508
 9882TIP3   OH251136   3.333   0.344  11.540 -0.3203 -0.7529 -0.3517
 9882TIP3    H151137   3.420   0.351  11.501 -0.2531  0.7901  0.0317
 9882TIP3    H251138   3.304   0.434  11.553 -0.1323 -1.0947  3.6144
 9883TIP3   OH251139   0.226   3.822  14.075  0.3476  0.5525  0.0310
 9883TIP3    H151140   0.218   3.727  14.068  0.8753  0.1723  3.0697
 9883TIP3    H251141   0.136   3.853  14.085  0.2069  0.3393 -0.5345
 9884TIP3   OH251142   5.776   6.358  12.197 -1.0693 -0.1313  0.0895
 9884TIP3    H151143   5.694   6.406  12.198 -2.0277 -1.7173  1.0476
 9884TIP3    H251144   5.755   6.272  12.232  1.1952 -0.2756  1.3130
 9885TIP3   OH251145   1.525   1.776   0.272  0.4149 -0.2636 -0.7833
 9885TIP3    H151146   1.503   1.816   0.188  0.1467 -1.2158 -1.1734
 9885TIP3    H251147   1.447   1.727   0.297  0.3431  0.3187  0.2272
 9886TIP3   OH251148   3.097   3.254  11.152 -0.0075 -0.7868 -0.3049
 9886TIP3    H151149   3.065   3.257  11.242 -0.3582  0.4069 -0.4429
 9886TIP3    H251150   3.035   3.198  11.106  0.1153 -1.3192  0.1749
 9887TIP3   OH251151   2.560   5.514   3.632 -0.3123 -0.2272 -0.5447
 9887TIP3    H151152   2.611   5.479   3.559 -0.5134  0.2640 -0.9343
 9887TIP3    H251153   2.574   5.609   3.626  1.2481 -0.2998  1.2454
 9888TIP3   OH251154   3.890   0.402   5.129  0.5014 -0.1209 -0.2347
 9888TIP3    H151155   3.860   0.492   5.145  2.2819  0.4363  0.2347
 9888TIP3    H251156   3.877   0.358   5.213 -0.8630 -0.4906 -0.6089
 9889TIP3   OH251157   4.704   4.578  17.103 -0.1492 -0.1055  0.1915
 9889TIP3    H151158   4.682   4.567  17.195 -0.2631 -0.4761  0.1227
 9889TIP3    H251159   4.643   4.520  17.057  0.3945 -0.4871 -0.0598
 9890TIP3   OH251160   4.306   5.996   3.847  0.4866 -0.6174  0.1465
 9890TIP3    H151161   4.255   6.030   3.920  0.8367 -0.5351  0.3538
 9890TIP3    H251162   4.276   6.046   3.771 -0.4253 -1.2245  0.0880
 9891TIP3   OH251163   2.282   1.630   3.379 -0.3144 -0.5140 -0.4818
 9891TIP3    H151164   2.294   1.544   3.339  0.1370 -1.1955  1.0378
 9891TIP3    H251165   2.369   1.655   3.410  0.2984  2.0052 -3.6513
 9892TIP3   OH251166   6.087   5.612  12.579  0.1858  0.2855  0.7456
 9892TIP3    H151167   6.153   5.546  12.557 -1.0548 -0.9796  0.6435
 9892TIP3    H251168   6.050   5.583  12.662 -1.0674  0.2824  0.2111
 9893TIP3   OH251169   4.188   3.405   2.379 -0.6305 -0.0696  0.1727
 9893TIP3    H151170   4.191   3.480   2.319  2.9027 -1.2633 -1.4310
 9893TIP3    H251171   4.217   3.441   2.463  0.6353  0.4818 -0.4709
 9894TIP3   OH251172   6.586   1.491   2.593  0.5399 -0.3213 -0.3008
 9894TIP3    H151173   6.615   1.520   2.680  0.7718 -0.0844 -0.4547
 9894TIP3    H251174   6.574   1.397   2.601 -1.1818 -0.0656  0.4892
 9895TIP3   OH251175   4.070   5.552  15.060  0.1582  0.2427  0.9012
 9895TIP3    H151176   4.091   5.578  14.970 -0.3168 -0.4234  0.5875
 9895TIP3    H251177   4.154   5.554  15.106  0.8381 -1.6116 -0.1354
 9896TIP3   OH251178   6.185   3.839   3.621  0.0917  0.3342  0.0400
 9896TIP3    H151179   6.159   3.824   3.712 -0.7648  1.4250 -0.0133
 9896TIP3    H251180   6.153   3.761   3.575  1.2512 -0.6168  0.7856
 9897TIP3   OH251181   1.603   5.702   4.018  1.0047 -0.7592 -0.6637
 9897TIP3    H151182   1.525   5.647   4.028  0.4943 -0.1495 -1.2484
 9897TIP3    H251183   1.608   5.753   4.098  0.5242 -0.4533 -0.8255
 9898TIP3   OH251184   3.448   2.710  12.609  0.1853 -0.5061  0.4097
 9898TIP3    H151185   3.527   2.764  12.611 -0.4990  0.7172 -1.7611
 9898TIP3    H251186   3.376   2.772  12.623 -0.5031 -1.2778  0.4064
 9899TIP3   OH251187   5.385   2.164  14.600  0.8037  0.1838  0.2422
 9899TIP3    H151188   5.343   2.093  14.648 -1.7326  1.8119  0.6093
 9899TIP3    H251189   5.354   2.154  14.510  0.8380  0.5238  0.1899
 9900TIP3   OH251190   1.726   2.495   5.125 -0.6915  0.3344  0.2223
 9900TIP3    H151191   1.770   2.446   5.055  0.4042  0.3430  0.8838
 9900TIP3    H251192   1.633   2.487   5.105 -0.7185 -3.2660  1.0565
 9901TIP3   OH251193   4.210   1.160   2.028 -0.1669 -0.1824 -0.3238
 9901TIP3    H151194   4.146   1.232   2.032  0.7325  0.5802  1.3103
 9901TIP3    H251195   4.212   1.126   2.117  1.0379 -0.7963 -0.5819
 9902TIP3   OH251196   6.401   5.214   0.983  0.4659 -0.3886  0.1186
 9902TIP3    H151197   6.419   5.191   1.074  0.9244  0.0097  0.1308
 9902TIP3    H251198   6.451   5.150   0.932  1.6639  0.4914  0.1521
 9903TIP3   OH251199   3.117   3.522  14.902  0.4960  0.0914 -0.1811
 9903TIP3    H151200   3.193   3.517  14.960  0.7165  2.8075 -0.1174
 9903TIP3    H251201   3.045   3.485  14.953  1.5108 -1.5736  0.1321
 9904TIP3   OH251202   3.878   4.877  14.451  0.3516  0.4357 -0.6238
 9904TIP3    H151203   3.876   4.808  14.384 -1.7375 -0.2621  0.0723
 9904TIP3    H251204   3.834   4.838  14.526  2.4791  1.2591  1.1557
 9905TIP3   OH251205   5.672   5.802  14.922 -0.7529 -0.3264 -0.2388
 9905TIP3    H151206   5.612   5.865  14.881  0.1715  0.6503 -0.1260
 9905TIP3    H251207   5.665   5.820  15.015  0.0937  0.1326 -0.2632
 9906TIP3   OH251208   6.406   6.034   1.413  0.0855 -0.5596  0.1991
 9906TIP3    H151209   6.367   5.965   1.468  0.0016  0.1039  0.9870
 9906TIP3    H251210   6.420   5.991   1.329  1.2183 -1.9344  1.0310
 9907TIP3   OH251211   6.138   3.980  12.419 -0.3283  0.3413  0.5514
 9907TIP3    H151212   6.065   4.003  12.362  0.5499  0.2257 -0.6596
 9907TIP3    H251213   6.111   3.898  12.461  0.2346 -1.3349 -2.1268
 9908TIP3   OH251214   0.284   3.068  10.709 -0.8054  0.4696  0.4782
 9908TIP3    H151215   0.335   3.007  10.763 -1.5981 -0.3349  0.3517
 9908TIP3    H251216   0.217   3.013  10.668 -1.0108  1.2945 -0.3159
 9909TIP3   OH251217   6.195   4.365  11.147 -0.0540 -0.2667 -0.1466
 9909TIP3    H151218   6.149   4.376  11.064 -1.8794 -1.1814  0.6887
 9909TIP3    H251219   6.252   4.441  11.154 -0.0725 -0.0424 -2.0988
 9910TIP3   OH251220   1.476   0.088   0.024 -0.3585  0.1114 -0.2765
 9910TIP3    H151221   1.512   0.163   0.071 -1.6108  0.5937 -0.0296
 9910TIP3    H251222   1.392   0.120  -0.011 -0.3308 -0.8046 -1.2296
 9911TIP3   OH251223   2.492   3.956   2.583  0.5358 -0.0973 -0.0520
 9911TIP3    H151224   2.520   3.944   2.492  0.1727 -0.4326 -0.1231
 9911TIP3    H251225   2.419   3.894   2.594  0.3077  0.2397  0.3458
 9912TIP3   OH251226   2.940   6.069  13.132  0.3352  0.3461 -0.2635
 9912TIP3    H151227   2.862   6.122  13.114 -0.3081 -1.1628 -2.3760
 9912TIP3    H251228   2.927   5.990  13.080  2.0893 -1.1143  1.3807
 9913TIP3   OH251229   5.263   3.153   4.484 -0.4947  0.1403  0.1337
 9913TIP3    H151230   5.266   3.203   4.566  1.9395 -0.6394  0.6167
 9913TIP3    H251231   5.262   3.218   4.415 -1.3759  0.8095  0.7520
 9914TIP3   OH251232   1.453   5.822   0.106  0.8505 -0.0368 -0.9652
 9914TIP3    H151233   1.459   5.800   0.199 -0.6943 -1.0338 -1.0668
 9914TIP3    H251234   1.526   5.774   0.066  1.7430  0.6786 -0.2465
 9915TIP3   OH251235   0.302   3.842  11.924 -0.4615 -0.7807 -0.6043
 9915TIP3    H151236   0.392   3.810  11.919 -0.2327 -0.1583 -0.6183
 9915TIP3    H251237   0.304   3.907  11.995 -1.0664 -1.2907 -0.1109
 9916TIP3   OH251238   6.200   4.818  13.308  0.4751  0.3001 -0.7457
 9916TIP3    H151239   6.260   4.764  13.360  0.6751  1.9908  0.8594
 9916TIP3    H251240   6.223   4.797  13.217  0.3425 -2.4839 -0.2379
 9917TIP3   OH251241   6.643   0.755   4.186  0.0140 -0.2836  0.9195
 9917TIP3    H151242   6.578   0.765   4.255 -0.4395 -0.6270  0.5507
 9917TIP3    H251243   6.596   0.710   4.115  0.0546  1.3099 -0.1736
 9918TIP3   OH251244   5.314   5.652   5.274 -0.2589  0.4286  0.0106
 9918TIP3    H151245   5.310   5.732   5.327  1.0849  0.7513 -0.3249
 9918TIP3    H251246   5.300   5.682   5.185 -1.6817 -0.0001  0.0668
 9919TIP3   OH251247   4.440   2.550  12.598  0.5568  0.6242  0.2514
 9919TIP3    H151248   4.523   2.590  12.624  0.3437  0.5151  1.1602
 9919TIP3    H251249   4.384   2.559  12.676 -0.6013  1.5267 -0.6478
 9920TIP3   OH251250   4.828   0.722  11.309  0.1050  0.4249 -0.2795
 9920TIP3    H151251   4.774   0.746  11.384  0.0042 -1.8883  0.4734
 9920TIP3    H251252   4.837   0.803  11.258 -2.0597  1.4223  0.8167
 9921TIP3   OH251253   0.168   4.126  13.957 -0.5314  0.0621 -0.0398
 9921TIP3    H151254   0.244   4.075  13.931 -0.6284  0.3049 -0.8118
 9921TIP3    H251255   0.201   4.186  14.024  0.2371  0.9921 -1.2107
 9922TIP3   OH251256   2.588   3.035   4.559 -0.9036 -0.1282  0.2474
 9922TIP3    H151257   2.671   3.038   4.608 -0.2030 -1.9233 -0.7330
 9922TIP3    H251258   2.521   3.024   4.627 -0.0012 -2.0311  0.9234
 9923TIP3   OH251259   1.001   5.628   3.648  0.1284  0.2391 -0.3044
 9923TIP3    H151260   1.010   5.534   3.665  0.6265  0.2680 -0.4016
 9923TIP3    H251261   0.920   5.653   3.692  0.2717 -0.1295  0.1716
 9924TIP3   OH251262   6.267   6.322  16.055 -0.1451  0.0657 -0.1026
 9924TIP3    H151263   6.236   6.290  15.971  1.3454 -1.9596  0.0455
 9924TIP3    H251264   6.344   6.374  16.034  0.4602 -0.7718  0.0303
 9925TIP3   OH251265   1.354   0.603  11.831  0.2328 -0.1442  0.0834
 9925TIP3    H151266   1.415   0.670  11.799 -0.3258  0.1609 -0.3536
 9925TIP3    H251267   1.388   0.579  11.917  2.7041 -2.1132 -1.2837
 9926TIP3   OH251268   5.220   3.588  14.623  0.3554 -0.0132 -0.4860
 9926TIP3    H151269   5.160   3.546  14.560  0.2619 -0.5292 -0.0625
 9926TIP3    H251270   5.305   3.549  14.604  0.6058  0.8420 -1.1996
 9927TIP3   OH251271   4.571   0.146   4.703 -0.0051 -0.2045 -1.1560
 9927TIP3    H151272   4.559   0.065   4.653  0.2657  0.3012 -2.0516
 9927TIP3    H251273   4.521   0.212   4.656 -0.9497 -0.0175  0.0575
 9928TIP3   OH251274   5.983   6.238  16.166  0.0520  0.3456  0.3757
 9928TIP3    H151275   6.072   6.204  16.155  0.0257  0.0766  0.9796
 9928TIP3    H251276   5.937   6.209  16.087  0.9592  2.0510 -0.8559
 9929TIP3   OH251277   5.060   3.218   0.708  0.1877  0.1892  0.3157
 9929TIP3    H151278   5.073   3.160   0.783 -1.1056 -1.6958 -0.7999
 9929TIP3    H251279   5.141   3.212   0.658 -0.5062 -2.2259 -0.6954
 9930TIP3   OH251280   3.801   6.619  15.516 -0.3544 -0.3364 -0.0067
 9930TIP3    H151281   3.803   6.556  15.589 -1.1836 -1.6015 -1.0264
 9930TIP3    H251282   3.804   6.565  15.437 -2.6315  0.7750 -0.9543
 9931TIP3   OH251283   2.868   2.864  15.026 -0.0606 -0.0592 -0.0583
 9931TIP3    H151284   2.902   2.860  15.115 -1.5867  2.9067  0.7883
 9931TIP3    H251285   2.810   2.789  15.019  0.8893 -0.9377  1.0229
 9932TIP3   OH251286   5.455   0.241   0.410  0.4673 -0.7946 -0.3329
 9932TIP3    H151287   5.550   0.253   0.411  0.1356  3.1943 -0.8188
 9932TIP3    H251288   5.421   0.305   0.473 -1.9331 -2.9795  0.8106
 9933TIP3   OH251289   3.222   4.134  12.850  0.2394  0.5109  0.4908
 9933TIP3    H151290   3.166   4.127  12.928 -1.1602  0.2221 -0.5052
 9933TIP3    H251291   3.211   4.224  12.820  0.4006  0.4849  0.3482
 9934TIP3   OH251292   4.527   2.168   3.940  0.5251 -0.3138  0.2052
 9934TIP3    H151293   4.458   2.102   3.929  0.5846 -0.9209  2.8509
 9934TIP3    H251294   4.595   2.141   3.878 -0.4616 -1.2918 -0.4997
 9935TIP3   OH251295   0.450   5.413   3.480  0.1889  0.1469  0.0353
 9935TIP3    H151296   0.520   5.472   3.508  1.5665 -0.9062 -1.0384
 9935TIP3    H251297   0.461   5.405   3.385 -0.3427 -1.3233  0.0635
 9936TIP3   OH251298   3.578   1.689   3.616 -0.0136  0.0012  0.3306
 9936TIP3    H151299   3.494   1.684   3.569 -0.0640 -0.4574  0.4665
 9936TIP3    H251300   3.559   1.741   3.694 -0.1619 -0.0587  0.3351
 9937TIP3   OH251301   5.275   4.351  16.709 -0.4868 -0.0501 -0.3851
 9937TIP3    H151302   5.202   4.304  16.667 -1.5282  1.7788 -0.7079
 9937TIP3    H251303   5.287   4.429  16.655 -0.2444  1.1503  1.3318
 9938TIP3   OH251304   1.577   2.018   1.183  0.6161 -0.1936 -0.0868
 9938TIP3    H151305   1.657   2.070   1.195  1.3575 -1.1444 -0.8293
 9938TIP3    H251306   1.547   2.001   1.272  1.7836 -0.6556  0.2390
 9939TIP3   OH251307   0.253   2.789  13.993  0.3430  0.4529  0.3941
 9939TIP3    H151308   0.197   2.796  13.915 -1.0140 -0.1277  1.2749
 9939TIP3    H251309   0.271   2.879  14.018  0.2199  0.6458 -0.1976
 9940TIP3   OH251310   2.659   1.017  11.483  0.0541 -0.1903 -0.1835
 9940TIP3    H151311   2.686   0.930  11.512  0.4885  0.5229  1.7017
 9940TIP3    H251312   2.738   1.055  11.445  0.7305  0.4268  1.7079
 9941TIP3   OH251313   5.804   3.489  14.987 -0.3553  0.0689  0.3452
 9941TIP3    H151314   5.822   3.395  14.980 -0.2106  0.0644  0.7839
 9941TIP3    H251315   5.859   3.528  14.919 -1.2849 -0.2617 -0.6347
 9942TIP3   OH251316   5.831   5.429  15.925 -0.2191 -0.0160  0.5830
 9942TIP3    H151317   5.769   5.357  15.935  0.5766 -0.7995  0.0528
 9942TIP3    H251318   5.857   5.427  15.833 -0.1117  0.9031  0.5754
 9943TIP3   OH251319   6.823   5.170   0.381 -0.6049 -0.2942  0.5838
 9943TIP3    H151320   6.901   5.122   0.354 -0.4603  0.3620 -0.2017
 9943TIP3    H251321   6.791   5.212   0.301 -0.8046  0.8060  1.2195
 9944TIP3   OH251322   4.206   4.570   4.576 -0.5424 -0.1190 -0.3353
 9944TIP3    H151323   4.146   4.496   4.563  0.6647 -1.8745  2.9507
 9944TIP3    H251324   4.289   4.542   4.538 -0.2976 -0.1364  0.1994
 9945TIP3   OH251325   2.130   3.104   6.501 -0.1073 -0.1647  0.1645
 9945TIP3    H151326   2.201   3.048   6.532 -0.3560 -1.3094 -1.2107
 9945TIP3    H251327   2.157   3.192   6.524 -0.2823 -0.8465  3.5978
 9946TIP3   OH251328   4.820   1.178  16.353 -0.3795 -0.7085  0.2829
 9946TIP3    H151329   4.777   1.230  16.421 -2.2380  0.2161 -1.4727
 9946TIP3    H251330   4.868   1.241  16.300 -2.6935 -0.5926 -1.8982
 9947TIP3   OH251331   2.450   1.019   5.436 -0.2702  0.6311 -0.8967
 9947TIP3    H151332   2.475   0.990   5.524 -0.9634 -0.4943 -1.0422
 9947TIP3    H251333   2.356   0.998   5.430 -0.1029  0.1681 -2.1026
 9948TIP3   OH251334   2.203   6.683  13.783  0.5012  0.0521  0.7213
 9948TIP3    H151335   2.149   6.758  13.760  0.8246  0.7865  2.1842
 9948TIP3    H251336   2.153   6.636  13.849  1.2724  0.2850  1.4963
 9949TIP3   OH251337   1.440   6.031   2.949  0.0830  0.0433  0.1125
 9949TIP3    H151338   1.397   6.116   2.950 -0.6520 -0.3238 -0.1572
 9949TIP3    H251339   1.375   5.969   2.982  0.2590 -0.5763 -0.6631
 9950TIP3   OH251340   6.566   5.263   4.055  0.4078 -0.3786  0.4810
 9950TIP3    H151341   6.592   5.347   4.093 -0.3648 -0.0790  0.3840
 9950TIP3    H251342   6.648   5.217   4.037  0.8975  0.7920 -0.4458
 9951TIP3   OH251343   3.606   5.133  16.120  0.4670  0.0800  0.1183
 9951TIP3    H151344   3.604   5.057  16.178 -0.1419  0.9922  1.3367
 9951TIP3    H251345   3.515   5.154  16.104  0.6308  0.1535 -0.7836
 9952TIP3   OH251346   3.035   0.138   6.391 -0.5528  0.2861  0.2939
 9952TIP3    H151347   3.034   0.227   6.354 -0.7974 -0.5488 -1.8341
 9952TIP3    H251348   3.128   0.120   6.407 -0.6253  1.7378  3.0429
 9953TIP3   OH251349   3.094   3.729   1.450 -0.5375  0.4322  0.1938
 9953TIP3    H151350   3.057   3.750   1.536  0.4144 -0.0551  0.7392
 9953TIP3    H251351   3.134   3.811   1.421 -0.5970  0.5195  0.3556
 9954TIP3   OH251352   2.990   0.936   5.841 -0.3896 -0.2128 -0.4915
 9954TIP3    H151353   2.985   0.976   5.928 -1.1416  1.2786 -1.1905
 9954TIP3    H251354   2.903   0.900   5.826  0.4715 -2.8565  0.4228
 9955TIP3   OH251355   3.015   4.625   3.106 -0.1910  0.2053  0.4639
 9955TIP3    H151356   3.054   4.709   3.131 -0.4482  0.3262  0.4540
 9955TIP3    H251357   2.996   4.582   3.190  2.0521 -0.8358  0.5113
 9956TIP3   OH251358   4.589   1.939  11.700  0.3094 -0.3974  0.1843
 9956TIP3    H151359   4.563   1.862  11.649  0.0475 -2.0676  2.6811
 9956TIP3    H251360   4.510   1.964  11.747  0.3963  1.4738 -0.6087
 9957TIP3   OH251361   6.829   2.311   2.073 -0.1864 -0.0520 -0.0422
 9957TIP3    H151362   6.912   2.294   2.027 -1.6711  0.3432 -3.1057
 9957TIP3    H251363   6.841   2.396   2.115  0.6155  0.5223 -1.3853
 9958TIP3   OH251364   2.592   2.075  16.125 -0.3912 -0.0175  0.2702
 9958TIP3    H151365   2.587   1.986  16.159 -1.3369 -1.0068 -2.2384
 9958TIP3    H251366   2.667   2.073  16.064 -0.0206  1.0962  0.6630
 9959TIP3   OH251367   0.668   6.817   2.400 -0.1788  0.0027 -0.0510
 9959TIP3    H151368   0.588   6.854   2.438 -0.7902 -0.1432 -1.1604
 9959TIP3    H251369   0.677   6.732   2.442  0.9858  1.1473  2.1792
 9960TIP3   OH251370   4.119   4.928   3.136 -0.0002 -0.5039  0.5630
 9960TIP3    H151371   4.025   4.932   3.153  0.3911 -1.2646  3.4234
 9960TIP3    H251372   4.136   4.837   3.114  0.3375 -0.9699  2.5377
 9961TIP3   OH251373   6.438   2.255  13.842 -0.1112 -0.2323  0.1788
 9961TIP3    H151374   6.462   2.313  13.770  0.5186 -1.6278 -0.7701
 9961TIP3    H251375   6.498   2.280  13.913  0.2566  0.1668 -0.2641
 9962TIP3   OH251376   6.624   4.833   4.856  0.0668 -0.4288 -0.4907
 9962TIP3    H151377   6.703   4.825   4.802  0.8552 -1.8852  0.8112
 9962TIP3    H251378   6.568   4.762   4.828 -1.1267  0.9873 -1.8626
 9963TIP3   OH251379   0.221   0.052  15.895  0.3645 -0.3618 -0.3463
 9963TIP3    H151380   0.236  -0.017  15.959  0.0017 -0.6201 -0.5371
 9963TIP3    H251381   0.302   0.102  15.894 -0.5488  1.4308  2.4782
 9964TIP3   OH251382   5.235   3.104  13.178 -0.0853 -0.0392 -0.1321
 9964TIP3    H151383   5.140   3.105  13.186 -0.1904 -3.0581 -0.0137
 9964TIP3    H251384   5.267   3.093  13.267  0.3339 -0.2940 -0.3129
 9965TIP3   OH251385   4.820   2.372  15.591  0.9772  0.2330  0.1308
 9965TIP3    H151386   4.784   2.293  15.633 -2.7231  0.5308 -2.0812
 9965TIP3    H251387   4.809   2.441  15.657 -1.1108 -0.0619  0.1688
 9966TIP3   OH251388   2.528   0.483  12.510 -0.4005  0.1625 -0.5946
 9966TIP3    H151389   2.494   0.556  12.457  0.3789  0.8247 -0.2059
 9966TIP3    H251390   2.463   0.414  12.499 -0.7075  0.5998 -1.6937
 9967TIP3   OH251391   1.339   1.044   2.152 -0.0831  0.3074 -0.4644
 9967TIP3    H151392   1.339   0.992   2.232 -2.1731  2.4874  1.0868
 9967TIP3    H251393   1.274   1.002   2.096 -0.5737  0.3068  0.0985
 9968TIP3   OH251394   5.841   3.437   5.003  0.5022  0.1704  0.4349
 9968TIP3    H151395   5.929   3.461   4.976  0.1004  1.0769 -0.1414
 9968TIP3    H251396   5.852   3.395   5.088  1.4559  0.6152  0.5401
 9969TIP3   OH251397   0.133   0.391  13.336  0.5030 -0.1855  0.3258
 9969TIP3    H151398   0.214   0.383  13.285 -0.0508 -1.0680 -0.4517
 9969TIP3    H251399   0.082   0.458  13.290  0.7653  0.3676  0.8133
 9970TIP3   OH251400   6.768   6.468   3.494 -0.1229 -0.0728 -0.3401
 9970TIP3    H151401   6.806   6.555   3.485 -1.2131  0.4510 -0.0548
 9970TIP3    H251402   6.760   6.455   3.589  0.0086 -0.4790 -0.3808
 9971TIP3   OH251403   1.459   3.368   0.474  0.5623 -0.1379  0.1596
 9971TIP3    H151404   1.457   3.396   0.565 -0.5284  0.0008  0.1110
 9971TIP3    H251405   1.373   3.391   0.440 -0.0460 -2.5899 -0.1719
 9972TIP3   OH251406   3.061   6.827   2.270 -0.0493  0.0526  0.0462
 9972TIP3    H151407   3.139   6.868   2.234  0.0313  0.2148  0.4000
 9972TIP3    H251408   3.042   6.754   2.211  1.4047 -1.0956  0.9327
 9973TIP3   OH251409   3.869   6.039  16.494 -0.2510 -0.7249  0.9638
 9973TIP3    H151410   3.856   6.079  16.580  0.2980 -0.5061  0.9513
 9973TIP3    H251411   3.955   6.070  16.466 -0.8563  0.0896 -0.1331
 9974TIP3   OH251412   6.619   3.709   0.796  0.8939 -0.3709 -0.0249
 9974TIP3    H151413   6.594   3.703   0.888  3.0310 -1.5722  0.5460
 9974TIP3    H251414   6.567   3.641   0.752 -2.4320  2.1838 -0.3835
 9975TIP3   OH251415   6.701   3.996  12.192 -0.0001 -0.3592  0.0490
 9975TIP3    H151416   6.617   4.019  12.153  0.9345  0.7416 -1.4349
 9975TIP3    H251417   6.711   3.903  12.173  0.2604  0.0619 -2.1559
 9976TIP3   OH251418   0.315   5.757  15.394  0.0786  0.1194 -0.5185
 9976TIP3    H151419   0.283   5.847  15.398  0.0552  0.0614  1.3717
 9976TIP3    H251420   0.275   5.721  15.315  0.8520  2.0179 -1.8543
 9977TIP3   OH251421   6.760   5.055  12.171 -0.2593  0.4780 -0.0574
 9977TIP3    H151422   6.697   5.042  12.100  0.0993 -1.1072 -0.1183
 9977TIP3    H251423   6.816   5.127  12.141 -1.6354  1.5182 -0.2531
 9978TIP3   OH251424   6.520   3.460   0.033  0.2799  0.6162  0.3826
 9978TIP3    H151425   6.533   3.498  -0.053 -2.4614  1.5154  0.2746
 9978TIP3    H251426   6.568   3.517   0.093  1.2067  0.6776 -0.3997
 9979TIP3   OH251427   3.887   6.136  13.448 -0.3970 -0.1578  0.7153
 9979TIP3    H151428   3.927   6.049  13.446 -2.3955 -1.1510  1.2755
 9979TIP3    H251429   3.832   6.136  13.526  1.2929  2.4783  2.0343
 9980TIP3   OH251430   2.817   0.038  15.380 -0.3747 -0.3477  0.0527
 9980TIP3    H151431   2.794  -0.049  15.346 -0.7933 -0.2450  0.0717
 9980TIP3    H251432   2.881   0.072  15.318  0.2358 -0.9113  0.3592
 9981TIP3   OH251433   2.599   0.048   3.831  0.0081 -0.1604 -0.5087
 9981TIP3    H151434   2.667  -0.018   3.816  0.6951  0.7720 -1.7567
 9981TIP3    H251435   2.590   0.052   3.926  0.5693 -1.4137 -0.3777
 9982TIP3   OH251436   6.079   0.741   0.330 -0.2118 -0.0533  0.5944
 9982TIP3    H151437   6.086   0.747   0.425  1.0000 -0.8960  0.5768
 9982TIP3    H251438   5.985   0.748   0.312 -0.3930  0.7471  1.7922
 9983TIP3   OH251439   1.517   6.807  14.122 -0.1206 -0.1866  0.1986
 9983TIP3    H151440   1.491   6.715  14.111 -1.0054  0.0209  0.4884
 9983TIP3    H251441   1.586   6.804  14.188  0.9397 -0.7932 -0.8889
 9984TIP3   OH251442   4.424   6.484   2.672  0.3141  0.7122  0.2225
 9984TIP3    H151443   4.377   6.523   2.746 -0.0618 -0.6081  0.7056
 9984TIP3    H251444   4.458   6.559   2.623 -3.4148  1.8898 -0.9228
 9985TIP3   OH251445   5.431   2.809  12.279 -0.5334 -0.3783  0.1305
 9985TIP3    H151446   5.338   2.818  12.258  0.0120  1.0667 -2.0258
 9985TIP3    H251447   5.452   2.888  12.328 -0.3048 -0.3422 -0.0232
 9986TIP3   OH251448   5.023   4.090   2.805  0.0542  0.8179  0.2702
 9986TIP3    H151449   5.063   4.124   2.885  0.3709  0.1812  0.3838
 9986TIP3    H251450   5.058   4.002   2.795 -0.5527  0.6129 -0.1712
 9987TIP3   OH251451   1.347   1.471  14.070 -0.1757 -0.3564  0.1172
 9987TIP3    H151452   1.284   1.506  14.133  0.4439  0.1130  0.4986
 9987TIP3    H251453   1.295   1.439  13.997 -0.9192 -0.9441  0.8845
 9988TIP3   OH251454   4.149   1.011   4.800  0.0632  0.3169 -0.7771
 9988TIP3    H151455   4.198   0.929   4.803 -0.9437 -0.2932  2.5907
 9988TIP3    H251456   4.152   1.037   4.707  2.0065 -2.4839 -1.6354
 9989TIP3   OH251457   2.936   2.960   0.104 -0.1016  0.2276  0.0264
 9989TIP3    H151458   2.937   3.046   0.063  0.7291 -0.9105 -2.5801
 9989TIP3    H251459   2.906   2.901   0.035  1.1882 -1.8305  1.1138
 9990TIP3   OH251460   5.412   2.129  13.425  0.4812  0.4145 -0.2746
 9990TIP3    H151461   5.358   2.054  13.404  0.6529 -0.0880  0.9969
 9990TIP3    H251462   5.501   2.103  13.401  0.2545  1.1262 -2.0720
 9991TIP3   OH251463   3.524   6.283  16.620  0.2165 -0.9460  0.0538
 9991TIP3    H151464   3.555   6.289  16.529 -1.5053 -0.7007 -0.5607
 9991TIP3    H251465   3.440   6.238  16.613 -1.6513  2.0786  1.0811
 9992TIP3   OH251466   5.816   3.528   3.783  0.2376 -0.7004  0.0851
 9992TIP3    H151467   5.781   3.481   3.858 -2.0200  0.3942 -0.2094
 9992TIP3    H251468   5.763   3.499   3.709 -1.4389  2.3191 -0.0780
 9993TIP3   OH251469   4.525   1.053   3.325 -0.2578  0.0501 -0.3319
 9993TIP3    H151470   4.618   1.044   3.304  0.0907 -0.0566  1.1314
 9993TIP3    H251471   4.484   1.079   3.242  0.4720 -3.5374 -2.0216
 9994TIP3   OH251472   2.236   2.010   2.802 -0.3519  0.4157  0.5236
 9994TIP3    H151473   2.272   2.041   2.719  0.3268 -0.9928  0.2482
 9994TIP3    H251474   2.245   1.915   2.797  0.4690  0.3400  2.5506
 9995TIP3   OH251475   2.783   3.350  12.503  0.2980  0.1948  0.7109
 9995TIP3    H151476   2.872   3.335  12.535  0.4026 -0.7375  0.0132
 9995TIP3    H251477   2.729   3.291  12.554  0.2145  0.0370  0.4379
 9996TIP3   OH251478   0.150   3.865   1.944  0.1572 -0.2573  0.2011
 9996TIP3    H151479   0.240   3.849   1.971 -0.2883 -0.6294  1.5696
 9996TIP3    H251480   0.124   3.785   1.899  0.4318 -0.2490  0.0276
 9997TIP3   OH251481   3.856   6.228  12.419  0.0045 -0.4394 -0.0559
 9997TIP3    H151482   3.949   6.239  12.399 -0.2538  0.6850 -0.6953
 9997TIP3    H251483   3.812   6.297  12.370 -1.1846 -0.9873  0.1994
 9998TIP3   OH251484   0.995   3.657  14.199 -0.3366  0.8031 -0.7463
 9998TIP3    H151485   0.914   3.706  14.215 -0.8494 -0.7221  2.0001
 9998TIP3    H251486   1.063   3.723  14.198 -1.2598  1.8224  0.5012
 9999TIP3   OH251487   1.657   0.332   1.102 -0.1730 -0.4463 -0.7774
 9999TIP3    H151488   1.648   0.335   1.197 -3.2347  0.4016 -0.9755
 9999TIP3    H251489   1.708   0.253   1.085  2.1824  0.4322  1.5791
10000TIP3   OH251490   4.664   5.899  14.214 -0.7588 -0.1713 -0.5878
10000TIP3    H151491   4.652   5.812  14.177 -1.1580  0.5125 -2.1700
10000TIP3    H251492   4.704   5.950  14.143 -1.1843  1.1008  0.0513
10001TIP3   OH251493   4.785   3.486  10.686  0.0868  0.0533 -0.3549
10001TIP3    H151494   4.773   3.566  10.635  1.9827  0.5325 -0.1546
10001TIP3    H251495   4.783   3.516  10.777 -0.8742 -0.4080 -0.2172
10002TIP3   OH251496   0.679   3.147  15.396  0.0619  0.6165 -0.5202
10002TIP3    H151497   0.604   3.128  15.340 -0.8494  1.3117  0.4347
10002TIP3    H251498   0.673   3.083  15.467  1.1197 -0.1541 -1.0941
10003TIP3   OH251499   2.216   5.125  15.877  0.2436 -0.2941  0.1113
10003TIP3    H151500   2.180   5.160  15.958 -1.5764  0.0141 -0.7905
10003TIP3    H251501   2.140   5.100  15.825  1.2969  0.4735 -1.9330
10004TIP3   OH251502   5.829   4.503  12.710  0.0916 -0.6657 -0.4066
10004TIP3    H151503   5.791   4.493  12.622 -0.2300 -2.0098 -0.1313
10004TIP3    H251504   5.760   4.473  12.769  1.2367 -2.2965  0.1559
10005TIP3   OH251505   2.908   2.588   3.734  0.4258  0.1328 -0.0563
10005TIP3    H151506   2.838   2.535   3.694 -2.2250  2.3973  1.2244
10005TIP3    H251507   2.943   2.639   3.661 -1.0029  0.7075 -0.3850
10006TIP3   OH251508   2.327   0.878   0.553  0.1794  0.0587 -0.6047
10006TIP3    H151509   2.254   0.937   0.574 -1.3321 -0.9172 -2.7874
10006TIP3    H251510   2.386   0.931   0.499  0.8039  0.6358  0.5855
10007TIP3   OH251511   2.180   0.944  16.068  0.0646 -0.0595 -0.1896
10007TIP3    H151512   2.253   1.004  16.052 -0.6823  0.3679 -2.3978
10007TIP3    H251513   2.159   0.909  15.981 -1.5190 -1.1541  0.5933
10008TIP3   OH251514   5.841   4.052  16.284 -0.7382  0.2976  0.8579
10008TIP3    H151515   5.787   4.080  16.210 -1.0396  1.3795  1.4674
10008TIP3    H251516   5.797   3.974  16.318 -1.8045  1.0219  1.1969
10009TIP3   OH251517   2.397   4.612  16.443 -0.4597 -0.0475  0.9353
10009TIP3    H151518   2.349   4.680  16.491  0.9430  1.1890  0.6473
10009TIP3    H251519   2.486   4.646  16.434  0.6671 -2.4934  1.9063
10010TIP3   OH251520   2.880   1.185  13.460 -0.4203  0.2426 -0.0565
10010TIP3    H151521   2.886   1.207  13.553  1.2581 -0.1846 -0.0343
10010TIP3    H251522   2.946   1.117  13.447 -1.0442 -0.1330 -1.4466
10011TIP3   OH251523   6.038   2.950  12.502  0.1742  0.6724 -0.2089
10011TIP3    H151524   6.053   2.878  12.563  1.9479  1.9076  0.9229
10011TIP3    H251525   5.955   2.929  12.459  0.2453 -1.6138  0.6507
10012TIP3   OH251526   1.679   2.404   5.679  0.1371 -0.2513  0.6201
10012TIP3    H151527   1.771   2.394   5.704  0.2067 -0.7251  0.1915
10012TIP3    H251528   1.680   2.409   5.584 -0.1832  0.9434  0.6687
10013TIP3   OH251529   6.114   2.420  17.177  0.3796  0.4647  0.2506
10013TIP3    H151530   6.138   2.481  17.108 -1.3381  0.3059 -0.5360
10013TIP3    H251531   6.167   2.447  17.252  1.9569  0.9157 -0.9688
10014TIP3   OH251532   5.146   2.306   5.402  0.3831  0.1687 -0.6187
10014TIP3    H151533   5.192   2.308   5.486  0.9537  1.2224 -0.9344
10014TIP3    H251534   5.054   2.292   5.426  0.4178  1.2258  0.2533
10015TIP3   OH251535   0.928   2.222   0.009 -0.2676  0.1802 -0.0776
10015TIP3    H151536   0.981   2.295  -0.020  0.6285 -0.8392 -1.0951
10015TIP3    H251537   0.859   2.215  -0.057 -0.9260  0.6694  0.5313
10016TIP3   OH251538   1.652   1.901  15.568  0.2444 -0.5880  0.4712
10016TIP3    H151539   1.641   1.890  15.474  0.4336 -2.3606  0.6261
10016TIP3    H251540   1.706   1.827  15.595 -0.0349 -0.2641  2.0209
10017TIP3   OH251541   0.032   1.656  14.288  0.3330  0.0928  0.2836
10017TIP3    H151542   0.055   1.648  14.196  0.3349  0.2320  0.2710
10017TIP3    H251543   0.032   1.750  14.305  0.6468  0.0536  0.5067
10018TIP3   OH251544   3.990   5.814  12.806 -0.3329 -0.1268 -0.1667
10018TIP3    H151545   3.959   5.861  12.728  0.4581 -1.6155 -1.4268
10018TIP3    H251546   3.910   5.784  12.849 -0.7884  0.9840 -0.1971
10019TIP3   OH251547   0.820   1.698  14.576 -0.0466  0.4300  0.0019
10019TIP3    H151548   0.851   1.609  14.594  0.6014  0.6071 -0.2000
10019TIP3    H251549   0.755   1.715  14.644 -0.4833 -0.3491 -0.2084
10020TIP3   OH251550   0.399   4.634   3.903  0.3879 -0.8566 -0.1773
10020TIP3    H151551   0.415   4.539   3.896 -1.5163 -1.1305 -1.8377
10020TIP3    H251552   0.311   4.640   3.942 -0.5900  0.1006 -2.3938
10021TIP3   OH251553   6.575   0.531   2.286 -0.0276  0.4825 -0.1972
10021TIP3    H151554   6.578   0.435   2.278  4.6764  0.2083  1.5891
10021TIP3    H251555   6.656   0.561   2.245 -0.8339  3.6491  0.2699
10022TIP3   OH251556   2.126   3.075   6.237 -0.3617  0.8556 -0.2563
10022TIP3    H151557   2.144   3.096   6.328 -0.0077  2.2266 -0.6127
10022TIP3    H251558   2.045   3.124   6.217 -0.7716  0.0893 -0.5151
10023TIP3   OH251559   6.105   3.595   0.516 -0.3816 -0.5656 -0.8895
10023TIP3    H151560   6.052   3.675   0.509  1.6941  0.8250 -2.1357
10023TIP3    H251561   6.095   3.553   0.430  0.3776 -0.3573 -1.0898
10024TIP3   OH251562   1.413   1.311  16.400  0.2363 -0.0114  0.2392
10024TIP3    H151563   1.467   1.275  16.330  0.9404  0.1473  0.6892
10024TIP3    H251564   1.405   1.404  16.379 -0.2075 -0.1059 -0.0386
10025TIP3   OH251565   4.661   4.730  11.332  0.0326  0.0452  0.1050
10025TIP3    H151566   4.705   4.646  11.345  1.6035  0.6684 -0.8815
10025TIP3    H251567   4.676   4.750  11.239  0.2574  1.7044  0.4715
10026TIP3   OH251568   4.584   0.726   2.365 -0.2538  0.1979  0.1100
10026TIP3    H151569   4.614   0.636   2.358 -0.2529  0.1629  0.5293
10026TIP3    H251570   4.522   0.725   2.438 -0.5502  0.4584 -0.1330
10027TIP3   OH251571   5.423   3.144   1.463  0.4930 -0.4149 -0.7634
10027TIP3    H151572   5.413   3.052   1.440 -0.6802  0.0468 -2.2790
10027TIP3    H251573   5.511   3.167   1.433  0.5750 -0.9073 -0.9040
10028TIP3   OH251574   2.909   2.247   4.082 -0.3491  0.0934 -0.3666
10028TIP3    H151575   2.888   2.207   4.167 -0.5358  0.7405 -0.1055
10028TIP3    H251576   2.960   2.325   4.105  0.1107 -0.0500 -0.8812
10029TIP3   OH251577   6.092   1.423  12.039 -0.2145  0.1275  0.4106
10029TIP3    H151578   6.010   1.452  11.998  0.6217  1.1394 -0.6098
10029TIP3    H251579   6.066   1.393  12.126 -1.4449  1.9268  0.7167
10030TIP3   OH251580   0.451   6.484  14.695 -0.6788 -0.4718 -0.0567
10030TIP3    H151581   0.520   6.451  14.637  1.3092 -0.0613  1.9137
10030TIP3    H251582   0.407   6.552  14.644  1.3571  0.2694 -0.9338
10031TIP3   OH251583   5.108   1.963  13.972  0.4116  0.8320 -0.1628
10031TIP3    H151584   5.186   2.007  14.006  1.0296 -0.3466 -0.0277
10031TIP3    H251585   5.056   1.944  14.050  0.2948  1.0187 -0.1932
10032TIP3   OH251586   3.507   5.090   0.833  0.6271 -0.0797  0.1518
10032TIP3    H151587   3.548   5.094   0.747  1.7620  1.4366  0.7160
10032TIP3    H251588   3.561   5.028   0.883 -0.8769 -2.1028 -0.5839
10033TIP3   OH251589   3.374   6.773   5.497  0.1657 -0.2432 -0.1215
10033TIP3    H151590   3.435   6.844   5.475  1.7663 -1.7898 -0.9007
10033TIP3    H251591   3.396   6.750   5.587  0.6971 -0.7462 -0.3751
10034TIP3   OH251592   3.708   5.214   6.273  0.4280 -0.2256  0.2614
10034TIP3    H151593   3.642   5.155   6.235 -2.1635  0.6562  2.9341
10034TIP3    H251594   3.669   5.301   6.265  1.2559  0.3363  1.8950
10035TIP3   OH251595   4.368   0.900  16.229  0.0077 -0.1531 -0.2511
10035TIP3    H151596   4.362   0.964  16.300  0.3962  1.1030 -1.3071
10035TIP3    H251597   4.299   0.925  16.168  0.5683 -0.3579 -0.9812
10036TIP3   OH251598   0.654   0.723  11.328 -0.3532  0.2569 -0.2257
10036TIP3    H151599   0.739   0.680  11.343 -1.1030 -1.2867 -0.2361
10036TIP3    H251600   0.667   0.775  11.249  0.4629 -0.3244 -0.4896
10037TIP3   OH251601   5.216   6.018   2.633  0.0769  1.1230  0.1843
10037TIP3    H151602   5.129   6.045   2.604 -1.7192 -0.6209  3.2841
10037TIP3    H251603   5.269   6.017   2.554 -3.4018 -0.1440 -2.3864
10038TIP3   OH251604   4.349   6.406  13.367  0.5375  0.4691 -0.0207
10038TIP3    H151605   4.288   6.332  13.363  0.1365  0.7913  0.0898
10038TIP3    H251606   4.431   6.371  13.333  0.5776 -0.2613  0.7980
10039TIP3   OH251607   1.969   1.485  12.292  0.1113 -0.1694  0.7680
10039TIP3    H151608   2.055   1.443  12.288  0.3876  0.4387  0.0835
10039TIP3    H251609   1.976   1.551  12.360 -0.0102 -0.5384  1.1426
10040TIP3   OH251610   2.180   6.027   0.196  0.5942  0.5064 -0.1059
10040TIP3    H151611   2.205   6.115   0.224 -1.0755  1.0190 -0.1017
10040TIP3    H251612   2.161   6.036   0.103 -1.1444  0.5561  0.2196
10041TIP3   OH251613   2.089   1.189  16.370 -0.1474  0.0530  0.3045
10041TIP3    H151614   2.134   1.173  16.287 -1.4768  1.9254 -0.8566
10041TIP3    H251615   2.160   1.210  16.431  0.8006 -0.4662 -0.5696
10042TIP3   OH251616   1.657   3.615  15.690 -0.2866  0.0109 -0.4366
10042TIP3    H151617   1.589   3.560  15.651  0.8609 -1.8268  0.0465
10042TIP3    H251618   1.737   3.562  15.686  0.7472  1.4006  0.6330
10043TIP3   OH251619   5.325   2.294   2.073  0.3105 -0.1201  0.8333
10043TIP3    H151620   5.280   2.340   2.002  1.1960  0.0896  0.4053
10043TIP3    H251621   5.405   2.343   2.087 -0.2175  0.3335  2.5442
10044TIP3   OH251622   3.228   4.965   2.947 -0.0684 -0.5678  0.4009
10044TIP3    H151623   3.216   4.884   2.899  1.0944 -1.5438  1.6881
10044TIP3    H251624   3.291   5.015   2.894 -0.9226 -0.3947 -0.4826
10045TIP3   OH251625   2.544   0.159  12.371  0.4369 -0.2531  0.3731
10045TIP3    H151626   2.471   0.214  12.341  0.3710  0.6444  2.0272
10045TIP3    H251627   2.620   0.218  12.371  1.3554 -1.3482 -1.9451
10046TIP3   OH251628   5.389   2.646  11.019 -0.5642  0.4217 -0.5547
10046TIP3    H151629   5.361   2.568  10.972  0.1762  0.1924 -0.6162
10046TIP3    H251630   5.414   2.614  11.106 -2.3752  0.9008  0.2079
10047TIP3   OH251631   3.697   1.650  12.131  0.1719 -0.3995 -0.2965
10047TIP3    H151632   3.642   1.574  12.150  2.5055 -1.9358  0.7361
10047TIP3    H251633   3.748   1.625  12.055  0.4674  0.4188 -0.3748
10048TIP3   OH251634   2.013   4.450  15.937  0.2765 -0.0526 -0.1848
10048TIP3    H151635   1.977   4.449  16.026 -1.5442  2.2460 -0.7977
10048TIP3    H251636   1.947   4.406  15.884  1.1402 -0.9908 -0.5123
10049TIP3   OH251637   1.211   5.860   0.441 -0.4635  0.1765  0.6146
10049TIP3    H151638   1.195   5.949   0.407 -0.7324 -0.6046 -1.4701
10049TIP3    H251639   1.166   5.858   0.525 -1.5909  1.6302  0.0921
10050TIP3   OH251640   6.290   6.804  14.658  0.3701 -0.4204  0.3652
10050TIP3    H151641   6.221   6.759  14.708  0.6813  0.8449  2.0394
10050TIP3    H251642   6.364   6.743  14.659  0.5470 -0.2362  1.9762
10051TIP3   OH251643   0.642   3.796   0.769 -0.3702  0.7715 -0.1567
10051TIP3    H151644   0.638   3.774   0.676  0.3488  2.3899 -0.6007
10051TIP3    H251645   0.553   3.780   0.801  0.1556 -3.1386 -0.2546
10052TIP3   OH251646   0.984   5.402  14.517 -0.4123 -0.2755  0.3691
10052TIP3    H151647   1.070   5.444  14.511  0.7831 -2.2031  2.3812
10052TIP3    H251648   0.940   5.448  14.589 -1.7489  1.6760 -1.5833
10053TIP3   OH251649   1.970   6.247  11.729  0.4719  0.1843  0.0593
10053TIP3    H151650   1.938   6.317  11.672 -3.5764 -1.4113  0.0265
10053TIP3    H251651   1.952   6.277  11.818 -3.5174 -1.4590  0.0084
10054TIP3   OH251652   1.077   4.693   1.485 -0.5210  0.7510  0.1546
10054TIP3    H151653   0.986   4.718   1.500 -0.2346  1.8892  0.0594
10054TIP3    H251654   1.124   4.776   1.478  0.1874  0.2348 -1.9111
10055TIP3   OH251655   2.798   2.928  11.675  0.5590 -0.5023  0.7298
10055TIP3    H151656   2.748   2.859  11.720 -2.0322  1.5099  1.1541
10055TIP3    H251657   2.775   2.918  11.583 -1.4647  0.9455  1.0185
10056TIP3   OH251658   0.068   1.871  11.623  0.3404  0.2634 -0.5680
10056TIP3    H151659   0.005   1.805  11.650  2.7946 -1.6526  0.8135
10056TIP3    H251660   0.050   1.946  11.681  1.2815 -1.4089  2.0624
10057TIP3   OH251661   0.991   1.298   5.486 -0.0447 -0.1685 -0.8283
10057TIP3    H151662   0.947   1.374   5.447 -0.0816 -0.1556 -0.7626
10057TIP3    H251663   0.928   1.226   5.476  0.6496 -0.5909 -2.3916
10058TIP3   OH251664   4.574   4.662  11.060 -0.0443  0.0877 -0.5076
10058TIP3    H151665   4.646   4.604  11.035  1.1760  1.9792 -1.6807
10058TIP3    H251666   4.530   4.682  10.977 -1.6493 -0.6741  0.1381
10059TIP3   OH251667   5.797   4.858  10.716  0.1940  0.0779 -0.1606
10059TIP3    H151668   5.838   4.865  10.630 -1.7757 -0.6740 -1.2245
10059TIP3    H251669   5.755   4.772  10.716 -2.5235  1.2753  0.2417
10060TIP3   OH251670   5.493   4.453  14.288 -0.7362 -0.2779 -0.0318
10060TIP3    H151671   5.521   4.371  14.247 -0.4202  0.3979 -1.2337
10060TIP3    H251672   5.397   4.452  14.281 -0.6619  0.1482 -1.5122
10061TIP3   OH251673   0.298   2.884  12.065 -0.2698 -0.1545 -0.3747
10061TIP3    H151674   0.297   2.805  12.118 -0.7109 -1.5758 -2.4191
10061TIP3    H251675   0.384   2.885  12.023 -0.3879  0.2939 -0.6205
10062TIP3   OH251676   3.225   4.233  13.289 -0.4403  0.1040 -0.0122
10062TIP3    H151677   3.211   4.310  13.234  0.2363 -1.0840 -1.9540
10062TIP3    H251678   3.265   4.268  13.369 -1.7442  1.9251 -0.0947
10063TIP3   OH251679   3.357   6.024  15.926 -0.5935 -0.3798 -0.1669
10063TIP3    H151680   3.369   6.110  15.965  0.6370 -0.9525  0.7964
10063TIP3    H251681   3.399   6.030  15.840 -1.2540  0.2076 -0.4579
10064TIP3   OH251682   5.919   5.303  16.392 -0.0236 -0.1164  0.2569
10064TIP3    H151683   5.857   5.243  16.433 -1.0798  0.5971 -0.2529
10064TIP3    H251684   5.919   5.380  16.449 -1.2691  0.7576 -0.8422
10065TIP3   OH251685   3.241   1.558  16.031 -0.8282 -0.0990  0.0213
10065TIP3    H151686   3.259   1.651  16.046 -0.8598 -0.1040  0.0891
10065TIP3    H251687   3.155   1.544  16.069 -0.9680 -0.0782 -0.2875
10066TIP3   OH251688   6.385   5.182  11.399 -0.4489  0.3682  0.7070
10066TIP3    H151689   6.340   5.256  11.357  0.6622  0.5677 -0.1882
10066TIP3    H251690   6.370   5.109  11.339 -0.7455  0.0900  1.1155
10067TIP3   OH251691   4.144   3.236   2.035 -0.3320 -0.0163 -1.1948
10067TIP3    H151692   4.116   3.145   2.038 -0.1902 -0.0369  0.4868
10067TIP3    H251693   4.066   3.287   2.058 -0.5293  0.3468 -2.5559
10068TIP3   OH251694   3.701   3.914   4.533  0.1085  0.2827 -0.1260
10068TIP3    H151695   3.660   3.872   4.458 -0.8546  1.8747 -0.5528
10068TIP3    H251696   3.664   3.870   4.609 -0.6708  0.1605 -0.5617
10069TIP3   OH251697   0.858   5.727   1.818  0.2406  0.9025 -0.7702
10069TIP3    H151698   0.943   5.769   1.810  0.7273 -0.1639 -1.4224
10069TIP3    H251699   0.809   5.783   1.879  1.3941  1.5296 -0.3872
10070TIP3   OH251700   3.713   3.550  11.152 -0.1629  0.2114  0.0658
10070TIP3    H151701   3.643   3.547  11.087  1.1989  1.7670 -1.5835
10070TIP3    H251702   3.793   3.558  11.101  1.0761  0.4255  1.9318
10071TIP3   OH251703   3.993   1.686  14.937  0.4320 -0.2102  1.0073
10071TIP3    H151704   4.068   1.636  14.904  0.8086  1.6521 -1.2315
10071TIP3    H251705   3.925   1.673  14.871 -0.3327  0.2139  1.6921
10072TIP3   OH251706   6.339   5.705   0.444  0.4530 -0.0680 -0.1029
10072TIP3    H151707   6.328   5.786   0.394  0.8420  0.3682  0.5108
10072TIP3    H251708   6.407   5.657   0.397  0.3972  0.0685 -0.3242
10073TIP3   OH251709   2.112   5.858   5.548 -0.0476  0.5132  0.0033
10073TIP3    H151710   2.137   5.826   5.634  1.8607  3.7713  0.8277
10073TIP3    H251711   2.170   5.813   5.487  0.1839 -0.1235  0.6850
10074TIP3   OH251712   1.616   1.263  16.206 -0.4925  0.0786  0.6616
10074TIP3    H151713   1.556   1.325  16.164 -1.7876  0.0698  2.4006
10074TIP3    H251714   1.703   1.304  16.196 -0.7511  0.2112 -1.6826
10075TIP3   OH251715   4.739   6.645   5.221 -0.4305  0.2684 -0.1172
10075TIP3    H151716   4.687   6.565   5.233 -0.3305  0.0350 -1.1455
10075TIP3    H251717   4.704   6.684   5.141  0.5909  0.4049 -0.5148
10076TIP3   OH251718   4.951   3.671   2.237  0.4976 -0.4896 -0.3315
10076TIP3    H151719   4.908   3.642   2.317  1.4281 -0.8713  0.0483
10076TIP3    H251720   5.005   3.596   2.210 -0.5596 -0.7460 -1.8798
10077TIP3   OH251721   1.784   2.548  13.289  0.0580  0.5545  0.0246
10077TIP3    H151722   1.695   2.583  13.289 -0.0544  0.2834  0.6871
10077TIP3    H251723   1.837   2.618  13.329 -0.2882 -0.2833  2.0640
10078TIP3   OH251724   6.627   4.340  12.020  0.9810 -0.9277 -0.0171
10078TIP3    H151725   6.672   4.262  12.054  2.0248  0.8590  3.1706
10078TIP3    H251726   6.615   4.322  11.927  0.9328 -4.9581  0.5574
10079TIP3   OH251727   2.860   5.714   2.934  0.4019  0.4337 -0.4022
10079TIP3    H151728   2.843   5.762   3.016 -1.0262 -0.4316 -0.1523
10079TIP3    H251729   2.790   5.742   2.875  0.0470 -0.6757 -0.5363
10080TIP3   OH251730   5.092   3.817   2.746 -0.1932  0.3807  0.2532
10080TIP3    H151731   5.172   3.774   2.775 -0.8798 -0.0928  1.5511
10080TIP3    H251732   5.106   3.834   2.653  0.2263 -2.5045 -0.3132
10081TIP3   OH251733   0.686   2.271   5.496 -0.2225  0.2442  0.4814
10081TIP3    H151734   0.591   2.280   5.488 -0.1534  0.9613  0.4443
10081TIP3    H251735   0.721   2.337   5.437  0.3129 -1.3462 -1.0960
10082TIP3   OH251736   6.148   0.354  15.953  0.1246 -0.1603 -0.4264
10082TIP3    H151737   6.127   0.390  16.039  0.4088 -1.5458  0.2504
10082TIP3    H251738   6.243   0.365  15.946 -0.0111  0.8104 -0.9951
10083TIP3   OH251739   0.697   3.310  16.141  0.0702 -0.0292  0.5681
10083TIP3    H151740   0.616   3.358  16.157  1.4932  1.9376  2.5159
10083TIP3    H251741   0.739   3.357  16.069 -1.0016 -1.8470 -1.3733
10084TIP3   OH251742   3.564   0.346  16.192  0.1110  0.0525 -0.4561
10084TIP3    H151743   3.628   0.413  16.217  0.2170 -0.3065  0.2358
10084TIP3    H251744   3.584   0.328  16.100  2.2014 -1.3278  0.1863
10085TIP3   OH251745   0.855   3.164  15.166  0.0620  0.0340  0.8052
10085TIP3    H151746   0.813   3.250  15.160 -0.5866 -0.2038  1.6814
10085TIP3    H251747   0.849   3.141  15.259  0.4334 -0.8516  0.6175
10086TIP3   OH251748   3.329   1.929   2.679  0.1050  0.3873 -0.1949
10086TIP3    H151749   3.342   1.839   2.710  0.2569  0.2105 -0.7494
10086TIP3    H251750   3.317   1.919   2.584 -1.2829  0.8084 -0.0905
10087TIP3   OH251751   4.036   2.032   2.140  0.3362 -0.0093 -0.1194
10087TIP3    H151752   4.090   2.007   2.215  0.5405 -1.0156 -0.5919
10087TIP3    H251753   4.089   2.008   2.063 -0.0423  0.6296 -0.5963
10088TIP3   OH251754   2.370   2.666  14.744 -0.0893  0.2140  0.1575
10088TIP3    H151755   2.330   2.616  14.673 -1.5723  0.6563  0.6470
10088TIP3    H251756   2.408   2.742  14.701 -2.2925  1.2710 -0.0726
10089TIP3   OH251757   6.445   3.312  14.297  0.1647  0.1885  0.1714
10089TIP3    H151758   6.486   3.327  14.212 -1.2228  0.8703 -0.4229
10089TIP3    H251759   6.518   3.306  14.359  1.1896 -0.1417 -1.0372
10090TIP3   OH251760   1.514   2.215   5.187  0.3471  0.6874 -0.1853
10090TIP3    H151761   1.536   2.307   5.178  0.5492  0.5921 -0.7102
10090TIP3    H251762   1.560   2.187   5.266 -0.6045  1.2893  0.6057
10091TIP3   OH251763   6.049   1.754   2.798  0.1701 -0.2536 -0.0331
10091TIP3    H151764   6.048   1.762   2.893  1.3000 -2.3307  0.2172
10091TIP3    H251765   6.122   1.810   2.770 -1.2080  1.7080  0.0930
10092TIP3   OH251766   0.549   3.149  14.233  0.5688 -0.2161 -0.1006
10092TIP3    H151767   0.580   3.061  14.211 -0.7619 -0.8691  0.4996
10092TIP3    H251768   0.456   3.147  14.211  0.4387  0.9212  0.2948
10093TIP3   OH251769   2.070   6.196   3.625 -0.2195 -0.2493  0.4499
10093TIP3    H151770   2.051   6.274   3.574 -1.6840 -0.2590  0.9274
10093TIP3    H251771   2.141   6.222   3.684  2.3889 -0.5912 -2.3262
10094TIP3   OH251772   4.028   3.845  12.440  0.3562  0.3452 -0.1170
10094TIP3    H151773   3.977   3.790  12.381  1.0192  0.1507 -0.5258
10094TIP3    H251774   4.119   3.817  12.426  0.6998  1.4894 -0.2782
10095TIP3   OH251775   3.283   6.702  14.592 -0.1374  0.8096  0.2202
10095TIP3    H151776   3.203   6.754  14.595 -0.3975  0.3805  1.3313
10095TIP3    H251777   3.348   6.754  14.640  0.2445  1.1311 -0.6298
10096TIP3   OH251778   1.168   5.683  14.071  0.8356 -0.0620  0.0159
10096TIP3    H151779   1.195   5.641  14.152  2.0779  0.6506  0.0008
10096TIP3    H251780   1.140   5.610  14.014 -2.2225 -0.4336  1.7660
10097TIP3   OH251781   0.465   6.224  14.392  0.2231  0.2332  1.1271
10097TIP3    H151782   0.489   6.277  14.316 -0.0886  0.2876  1.0680
10097TIP3    H251783   0.388   6.267  14.428  1.6285  1.5220  2.7789
10098TIP3   OH251784   1.680   2.583   6.050  0.0466 -0.0943  0.2155
10098TIP3    H151785   1.667   2.646   6.121 -0.9299  1.4094 -1.2466
10098TIP3    H251786   1.704   2.501   6.095 -0.7135  0.7536  2.2680
10099TIP3   OH251787   0.099   2.468  13.036 -0.3588  0.0094  0.9712
10099TIP3    H151788   0.016   2.502  13.069 -1.4970  0.7592 -2.2537
10099TIP3    H251789   0.092   2.477  12.941  3.6907  0.7409  0.5601
10100TIP3   OH251790   6.749   4.764   4.589 -0.1416  0.5614  0.7171
10100TIP3    H151791   6.766   4.669   4.592 -1.4246  0.2801 -0.1130
10100TIP3    H251792   6.805   4.800   4.658  1.9842 -0.5339 -0.3061
10101TIP3   OH251793   1.998   1.020   4.178 -0.0332 -0.5233 -0.9780
10101TIP3    H151794   1.959   0.988   4.259  1.4885 -0.3261 -0.1388
10101TIP3    H251795   2.000   0.943   4.120  1.0965 -1.2963  0.0476
10102TIP3   OH251796   2.030   5.854  16.932  0.2433  0.7217 -1.3276
10102TIP3    H151797   1.974   5.879  16.859 -0.4139  0.0874 -1.0434
10102TIP3    H251798   1.974   5.803  16.990  1.3175 -0.6144 -1.4193
10103TIP3   OH251799   1.774   0.605   2.870 -0.0727  0.1882 -0.1282
10103TIP3    H151800   1.834   0.532   2.856  0.3135 -0.0147  2.1114
10103TIP3    H251801   1.689   0.564   2.886 -0.1018  0.2941 -0.0061
10104TIP3   OH251802   3.659   0.498  16.698 -0.0608  0.6900 -0.4086
10104TIP3    H151803   3.634   0.492  16.605  0.7709  0.6294 -0.6337
10104TIP3    H251804   3.671   0.408  16.726 -1.2379  0.6517  0.0300
10105TIP3   OH251805   0.371   0.339  16.193 -0.4036  0.2963  0.5973
10105TIP3    H151806   0.438   0.388  16.146 -0.1122  0.8475  1.5561
10105TIP3    H251807   0.413   0.257  16.217 -1.3252 -1.1165 -2.2455
10106TIP3   OH251808   5.600   0.682   2.961 -0.4465  0.4342  0.3335
10106TIP3    H151809   5.578   0.591   2.982 -4.0234  1.2934  0.9743
10106TIP3    H251810   5.610   0.682   2.866 -1.4110 -0.4691  0.2100
10107TIP3   OH251811   2.563   4.782   0.237 -0.5554  0.0359  0.0877
10107TIP3    H151812   2.544   4.718   0.167 -1.1724 -0.1600  0.4216
10107TIP3    H251813   2.631   4.741   0.289 -1.4142 -0.6668  0.6914
10108TIP3   OH251814   4.731   6.473   6.009  0.4458 -0.1690 -0.2986
10108TIP3    H151815   4.640   6.503   5.998  0.3054 -0.1879  0.7381
10108TIP3    H251816   4.783   6.538   5.960  0.0942  1.4889  1.4240
10109TIP3   OH251817   3.800   6.723   5.990  0.1460 -0.3362 -0.3200
10109TIP3    H151818   3.792   6.743   5.897  1.0649  0.6751 -0.2045
10109TIP3    H251819   3.870   6.780   6.021  0.1018 -0.9138  0.9224
10110TIP3   OH251820   5.481   1.687  11.390 -0.7980  0.9613  0.1066
10110TIP3    H151821   5.461   1.763  11.445 -0.9202  0.1185  1.2663
10110TIP3    H251822   5.451   1.712  11.303 -1.2415  2.0769  0.5595
10111TIP3   OH251823   4.416   0.855   2.179 -0.0504  0.2223  0.2899
10111TIP3    H151824   4.322   0.839   2.188 -0.2334  1.3313  0.5598
10111TIP3    H251825   4.458   0.787   2.231 -0.5878 -1.8357 -1.8291
10112TIP3   OH251826   3.259   4.309  11.971 -0.2521  0.0732  0.2253
10112TIP3    H151827   3.207   4.256  11.910 -0.5194 -0.9467  1.2970
10112TIP3    H251828   3.209   4.390  11.980 -0.0768  0.3557 -1.0873
10113TIP3   OH251829   5.661   2.598   4.515 -0.5858 -0.4724  0.2426
10113TIP3    H151830   5.596   2.539   4.553 -1.5340 -0.1452 -0.8066
10113TIP3    H251831   5.673   2.667   4.581 -0.2887 -1.2449  1.0068
10114TIP3   OH251832   1.958   1.470  11.468  0.4725  0.1370  0.4510
10114TIP3    H151833   1.959   1.382  11.508  1.5631 -0.2305 -0.3378
10114TIP3    H251834   1.889   1.516  11.515  1.6956 -0.2637  2.7997
10115TIP3   OH251835   2.111   0.944   5.560  0.1354 -0.0491  0.4499
10115TIP3    H151836   2.123   0.995   5.480  1.7574  0.7027  1.1202
10115TIP3    H251837   2.053   0.997   5.614 -0.1992 -0.1088  0.1523
10116TIP3   OH251838   6.391   3.513   4.841  0.0501  0.1488  0.3855
10116TIP3    H151839   6.398   3.421   4.868  0.2962 -0.1330 -0.6331
10116TIP3    H251840   6.401   3.512   4.746 -0.7265  1.1489  0.2744
10117TIP3   OH251841   1.996   1.924   5.494 -0.5101 -0.1661 -0.0586
10117TIP3    H151842   1.953   2.009   5.491  0.0897  0.1119 -1.3968
10117TIP3    H251843   1.944   1.873   5.556 -0.5532  1.3264  1.1969
10118TIP3   OH251844   0.856   5.012   0.527 -0.3903  0.6720  0.1934
10118TIP3    H151845   0.772   5.024   0.482 -0.4267 -2.5278 -0.8541
10118TIP3    H251846   0.921   5.016   0.457  0.0291  0.3718  0.5646
10119TIP3   OH251847   5.415   0.412   4.740  0.6307 -0.3443 -0.5312
10119TIP3    H151848   5.375   0.440   4.658  1.2816 -1.1406 -1.1266
10119TIP3    H251849   5.356   0.345   4.775  2.3028 -2.9960 -2.3960
10120TIP3   OH251850   6.678   3.073   6.488 -0.1287  0.3095  0.3801
10120TIP3    H151851   6.703   3.148   6.434  0.3802 -1.4885 -2.0842
10120TIP3    H251852   6.602   3.035   6.442  0.4250 -1.3913  0.7816
10121TIP3   OH251853   1.331   2.300   6.542 -0.6168 -0.2176 -0.3059
10121TIP3    H151854   1.241   2.330   6.536 -0.7813 -0.4919  0.6436
10121TIP3    H251855   1.375   2.339   6.466 -0.7654  2.6054  0.9459
10122TIP3   OH251856   2.649   1.137   3.006  0.6824  0.0330  0.3286
10122TIP3    H151857   2.571   1.168   2.960  1.4407  1.5649  0.0073
10122TIP3    H251858   2.628   1.148   3.099 -0.2364 -1.5279  0.3325
10123TIP3   OH251859   6.236   0.494  13.963  0.4796 -0.3073  0.0933
10123TIP3    H151860   6.308   0.551  13.936 -0.5711  0.6064 -0.9011
10123TIP3    H251861   6.160   0.552  13.967 -0.2036 -1.2389  1.1577
10124TIP3   OH251862   5.925   3.273  15.263  0.0234  0.4325 -0.1205
10124TIP3    H151863   5.912   3.221  15.183 -0.4297  1.1638 -0.5309
10124TIP3    H251864   5.909   3.211  15.334 -1.0371  0.1264 -0.6006
10125TIP3   OH251865   4.299   6.259  14.979  0.1870 -0.0091  0.7460
10125TIP3    H151866   4.333   6.252  14.890  1.2202 -1.4499  1.2198
10125TIP3    H251867   4.247   6.180  14.991  0.6049 -0.1595  1.6315
10126TIP3   OH251868   5.793   1.816  15.247  0.0755  0.2529  0.4231
10126TIP3    H151869   5.770   1.749  15.311 -1.5673  1.0672  0.7289
10126TIP3    H251870   5.725   1.809  15.180 -0.9996  2.5128  1.1717
10127TIP3   OH251871   1.320   6.548   0.892 -0.0053  0.1966  0.6214
10127TIP3    H151872   1.372   6.508   0.961 -0.5909 -0.7892  0.5130
10127TIP3    H251873   1.375   6.543   0.814 -0.8936 -2.5098  0.0831
10128TIP3   OH251874   2.122   5.992   3.420 -0.3208 -0.0387  0.2683
10128TIP3    H151875   2.208   6.019   3.389  0.1282 -1.0614  0.5628
10128TIP3    H251876   2.099   6.055   3.488  0.1189  0.3389  0.0629
10129TIP3   OH251877   6.206   2.427  16.121  0.2340  0.1248 -0.4260
10129TIP3    H151878   6.151   2.379  16.183 -1.1332  1.7072 -0.3324
10129TIP3    H251879   6.292   2.428  16.162 -0.5893  0.9723  1.4238
10130TIP3   OH251880   6.139   1.767  11.488  0.1003 -0.7092 -0.5264
10130TIP3    H151881   6.104   1.845  11.530  1.6076 -0.8354  1.1173
10130TIP3    H251882   6.085   1.695  11.522 -0.3973 -0.5326 -0.9395
10131TIP3   OH251883   5.409   6.134  13.859 -0.3691 -0.2962 -0.3231
10131TIP3    H151884   5.324   6.132  13.816 -0.3867 -1.2463 -0.2733
10131TIP3    H251885   5.424   6.226  13.880 -1.0894 -0.0382 -0.9102
10132TIP3   OH251886   5.858   4.671  13.894 -0.1163  0.3183 -0.0513
10132TIP3    H151887   5.854   4.712  13.980 -1.2398  1.4198 -0.5821
10132TIP3    H251888   5.899   4.737  13.838  2.2635 -1.0604 -0.0512
10133TIP3   OH251889   3.210   4.317  13.932  0.8081  0.6160 -0.3994
10133TIP3    H151890   3.244   4.260  14.001 -2.4750 -1.1490 -0.0061
10133TIP3    H251891   3.257   4.291  13.853 -0.0963 -2.2881 -0.1023
10134TIP3   OH251892   6.423   0.379   0.390 -0.2373 -0.5434  0.0287
10134TIP3    H151893   6.394   0.463   0.427 -0.4214  0.1388 -1.5651
10134TIP3    H251894   6.444   0.325   0.466 -0.5373  0.7973  1.1065
10135TIP3   OH251895   6.087   4.231  12.244 -0.4501 -0.3812  0.7568
10135TIP3    H151896   5.997   4.219  12.215 -0.2205 -0.5073  0.0702
10135TIP3    H251897   6.138   4.174  12.187  0.2780  1.1891 -0.2393
10136TIP3   OH251898   3.657   5.867  11.872 -0.1662 -0.1287  0.0194
10136TIP3    H151899   3.667   5.962  11.868 -0.1305 -0.1675 -1.6410
10136TIP3    H251900   3.740   5.833  11.838  0.8452 -0.8569  2.8978
10137TIP3   OH251901   5.629   6.566   1.537  0.6020  0.4105 -0.1902
10137TIP3    H151902   5.611   6.567   1.631  0.0439  0.0865 -0.2888
10137TIP3    H251903   5.545   6.585   1.496  0.5956 -0.5144 -0.6484
10138TIP3   OH251904   4.645   4.471  16.201  0.0067  0.0646  0.4509
10138TIP3    H151905   4.740   4.476  16.210 -0.1106 -0.0420  1.9795
10138TIP3    H251906   4.626   4.378  16.188  0.0154 -0.1553  1.8288
10139TIP3   OH251907   6.485   0.565   0.697  0.3483 -0.1907  0.1520
10139TIP3    H151908   6.443   0.572   0.783 -0.9303  1.1845 -0.5231
10139TIP3    H251909   6.528   0.650   0.686  1.0675 -0.6112 -0.2945
10140TIP3   OH251910   5.996   1.514   4.220 -1.2011  0.1520 -0.1553
10140TIP3    H151911   5.936   1.546   4.153 -0.7108 -0.6653 -1.0063
10140TIP3    H251912   6.010   1.589   4.278 -1.3111  0.9933 -1.1937
10141TIP3   OH251913   1.482   4.883  13.929 -0.0693 -0.4310  0.2481
10141TIP3    H151914   1.475   4.861  13.836 -1.5173 -0.6646  0.4015
10141TIP3    H251915   1.494   4.979  13.930 -2.1694 -0.1272 -0.1266
10142TIP3   OH251916   5.444   4.034  15.199 -0.3504  0.0412  0.3550
10142TIP3    H151917   5.523   4.009  15.246 -0.0878 -1.4922 -0.8210
10142TIP3    H251918   5.405   4.104  15.252  0.9014 -0.3241  1.8189
10143TIP3   OH251919   5.016   2.097   6.273 -0.3034  0.0384  0.1020
10143TIP3    H151920   5.057   2.169   6.321 -0.7391 -0.0671  0.6460
10143TIP3    H251921   4.946   2.139   6.222  0.5103  0.2295 -0.8852
10144TIP3   OH251922   6.784   3.922  13.034  0.0918  0.1281  0.5219
10144TIP3    H151923   6.803   3.936  13.127 -1.4295 -0.8867  1.0196
10144TIP3    H251924   6.817   3.834  13.016 -0.8144 -0.2180  0.4765
10145TIP3   OH251925   3.384   2.833  16.376  0.4074  0.1382  0.4723
10145TIP3    H151926   3.328   2.782  16.317 -2.9563  1.2507  2.4187
10145TIP3    H251927   3.391   2.779  16.455 -1.3459  1.6141  1.7168
10146TIP3   OH251928   5.935   0.540   5.872  0.0019 -0.6078  0.2647
10146TIP3    H151929   6.008   0.538   5.811  1.7051  1.7152  2.0702
10146TIP3    H251930   5.971   0.507   5.954 -1.4108 -0.8289  0.8348
10147TIP3   OH251931   4.207   5.825  15.589 -0.2039 -0.3592 -0.0992
10147TIP3    H151932   4.264   5.848  15.663 -1.4706  0.3158  0.6929
10147TIP3    H251933   4.150   5.756  15.624 -0.4919 -0.3749 -0.5962
10148TIP3   OH251934   5.165   2.670  16.889  0.0972 -0.4384  0.4529
10148TIP3    H151935   5.188   2.694  16.978  0.9967 -1.2154  0.4378
10148TIP3    H251936   5.249   2.662  16.843 -0.3334 -0.4976 -0.3494
10149TIP3   OH251937   5.563   5.904   6.677  0.0582  0.2140 -0.2560
10149TIP3    H151938   5.625   5.955   6.729 -0.2388  0.7108 -0.3765
10149TIP3    H251939   5.515   5.851   6.741  1.3972 -1.0795 -0.2666
10150TIP3   OH251940   1.761   4.125  11.862  0.0814 -0.0390 -0.1720
10150TIP3    H151941   1.728   4.051  11.811 -0.7044 -2.0274  2.9547
10150TIP3    H251942   1.820   4.086  11.926  1.4035  2.3777  0.2127
10151TIP3   OH251943   3.529   1.711   0.881 -0.3609 -0.3018 -0.1900
10151TIP3    H151944   3.575   1.795   0.868  0.9939 -0.6812  1.7790
10151TIP3    H251945   3.436   1.734   0.876 -0.0258  0.9899 -1.4155
10152TIP3   OH251946   5.291   3.315  16.729  0.1118  0.1631  0.4924
10152TIP3    H151947   5.334   3.341  16.648 -1.7230 -1.0166 -0.9505
10152TIP3    H251948   5.233   3.243  16.703 -3.8941  2.5530  1.8489
10153TIP3   OH251949   3.233   6.008   1.954 -0.3368 -0.0336 -0.0257
10153TIP3    H151950   3.205   6.096   1.979 -1.6485 -0.9244  1.8980
10153TIP3    H251951   3.160   5.951   1.980  0.0029 -1.5880 -2.2409
10154TIP3   OH251952   0.016   0.843   0.552  0.2626 -0.0436  0.3694
10154TIP3    H151953   0.035   0.749   0.554  0.9602  0.0980  0.9590
10154TIP3    H251954   0.025   0.867   0.460  2.6932 -0.0726  0.5167
10155TIP3   OH251955   1.530   2.844   4.499 -0.1081  0.2107  0.0912
10155TIP3    H151956   1.619   2.867   4.472 -0.0573  0.2536  0.2909
10155TIP3    H251957   1.532   2.848   4.595 -0.9840  2.7798  0.0801
10156TIP3   OH251958   1.006   2.721  11.728 -0.4343 -0.2002 -0.1445
10156TIP3    H151959   0.982   2.631  11.748 -0.5538  0.0724  0.9864
10156TIP3    H251960   1.066   2.714  11.653  0.6606 -1.3088  0.8028
10157TIP3   OH251961   2.641   3.522   3.930  0.3156  0.1116 -0.0688
10157TIP3    H151962   2.577   3.499   3.862 -1.9678  4.5986  0.1599
10157TIP3    H251963   2.607   3.482   4.010 -1.9385  1.7166 -0.1167
10158TIP3   OH251964   6.189   1.473   0.457 -0.2601 -0.4063  0.4604
10158TIP3    H151965   6.143   1.557   0.463  0.1734 -0.1794  0.6322
10158TIP3    H251966   6.126   1.415   0.415 -0.5561  0.0133  0.3099
10159TIP3   OH251967   4.778   2.733  14.420  0.1649 -0.1281  0.2357
10159TIP3    H151968   4.688   2.712  14.392  0.3320 -1.1394  0.4009
10159TIP3    H251969   4.767   2.796  14.491 -0.4232 -0.2869  0.2917
10160TIP3   OH251970   6.459   1.019   5.616  0.4042  0.1507 -0.4436
10160TIP3    H151971   6.465   1.091   5.678  0.7007  0.5488 -0.9333
10160TIP3    H251972   6.550   0.996   5.596  0.3130  0.1478 -0.8715
10161TIP3   OH251973   5.855   0.165   2.418 -0.2792 -0.1556 -0.3352
10161TIP3    H151974   5.771   0.125   2.444 -0.7913  1.0516 -0.0681
10161TIP3    H251975   5.904   0.170   2.500 -0.2643 -0.1311 -0.3459
10162TIP3   OH251976   3.318   3.294  15.633 -0.0455  0.2138 -0.4287
10162TIP3    H151977   3.329   3.240  15.711 -0.7542 -0.0521 -0.5064
10162TIP3    H251978   3.407   3.314  15.605  0.2185  0.5906  0.6328
10163TIP3   OH251979   4.637   5.644  14.066 -0.2271 -0.4263  0.3314
10163TIP3    H151980   4.589   5.561  14.066 -1.8852  0.4762  0.7913
10163TIP3    H251981   4.722   5.623  14.028 -1.5636 -1.8042 -2.1628
10164TIP3   OH251982   2.825   1.974  16.009 -0.5301 -0.2155  0.2193
10164TIP3    H151983   2.880   1.944  15.937  0.2327  1.0517  0.2539
10164TIP3    H251984   2.824   1.900  16.071  0.4316 -0.5749 -0.1737
10165TIP3   OH251985   1.162   4.410  16.712 -0.0990  0.0538  0.3255
10165TIP3    H151986   1.227   4.431  16.779  1.7510  0.2608 -1.4639
10165TIP3    H251987   1.175   4.317  16.694  0.2230  0.2682 -0.5660
10166TIP3   OH251988   3.876   6.360  16.203  0.3608  0.0636  0.3693
10166TIP3    H151989   3.826   6.411  16.139 -0.1051 -0.8270 -0.0052
10166TIP3    H251990   3.946   6.320  16.151  1.3928  1.1733  0.8612
10167TIP3   OH251991   5.372   2.170  15.398 -0.7120  0.2433  0.0572
10167TIP3    H151992   5.309   2.108  15.434 -1.3400  1.4893  1.1972
10167TIP3    H251993   5.348   2.254  15.437  0.5613  1.0765 -0.8734
10168TIP3   OH251994   0.056   0.564  15.330 -0.8453 -0.1721  0.5064
10168TIP3    H151995   0.039   0.658  15.324 -0.1872 -0.1188 -0.8874
10168TIP3    H251996   0.091   0.552  15.419 -0.9262  0.8878  0.7013
10169TIP3   OH251997   3.613   6.728  11.911  0.6289  0.2229  0.2803
10169TIP3    H151998   3.701   6.744  11.943 -0.0446  1.2199  1.7759
10169TIP3    H251999   3.623   6.713  11.817  2.5053 -1.0428  0.6459
10170TIP3   OH252000   6.575   3.267   0.199 -0.1545  0.0462  0.0983
10170TIP3    H152001   6.525   3.310   0.130  0.1851  0.7181  0.2686
10170TIP3    H252002   6.647   3.224   0.153  0.2989  0.8234  0.0650
10171TIP3   OH252003   3.913   6.011   4.465  0.0921 -0.9830  0.5549
10171TIP3    H152004   3.869   5.927   4.474 -1.0672 -0.3097  1.2711
10171TIP3    H252005   3.942   6.012   4.373 -2.5562 -0.9036 -0.3631
10172TIP3   OH252006   4.243   1.652  15.760 -0.1475  0.6157  0.4915
10172TIP3    H152007   4.320   1.605  15.727 -0.5141 -0.9425  1.7720
10172TIP3    H252008   4.280   1.722  15.814  0.3834  1.2597 -0.6563
10173TIP3   OH252009   3.672   5.458  13.167 -0.1214  0.7175  0.2471
10173TIP3    H152010   3.651   5.369  13.139  2.2133  0.0437  0.3746
10173TIP3    H252011   3.590   5.506  13.160 -1.1636 -1.1308 -1.0466
10174TIP3   OH252012   3.868   4.923   5.935  0.4160 -0.3433  0.1384
10174TIP3    H152013   3.826   4.880   6.010  1.9484  0.2181  1.3821
10174TIP3    H252014   3.817   5.003   5.922 -0.1659 -0.6869  0.2380
10175TIP3   OH252015   5.007   0.927   1.453 -0.0321  0.1315 -0.8406
10175TIP3    H152016   4.986   1.020   1.462  0.3895  0.4076 -2.4391
10175TIP3    H252017   5.094   0.918   1.491 -0.3402  0.2573 -0.0958
10176TIP3   OH252018   0.884   5.386   0.073 -0.3911 -0.7755 -0.1421
10176TIP3    H152019   0.932   5.451   0.022 -0.8289 -1.3580 -1.3602
10176TIP3    H252020   0.793   5.396   0.043 -0.5983 -1.3619  0.2820
10177TIP3   OH252021   4.454   3.333   3.278  0.1899 -0.3911  0.3876
10177TIP3    H152022   4.543   3.328   3.245  0.2180 -0.1986  0.4331
10177TIP3    H252023   4.401   3.288   3.212  0.4880 -1.6882  1.0013
10178TIP3   OH252024   4.799   6.328  12.991  0.4894  0.0955 -0.4132
10178TIP3    H152025   4.710   6.320  12.958  0.2994  1.1266 -0.1765
10178TIP3    H252026   4.792   6.303  13.083  0.3811  0.4562 -0.3211
10179TIP3   OH252027   5.231   5.004  14.722 -0.4973 -0.1793 -0.0664
10179TIP3    H152028   5.216   5.038  14.810 -0.0252  1.5133 -0.5997
10179TIP3    H252029   5.143   4.998  14.683 -0.6150  0.1461  0.1472
10180TIP3   OH252030   5.579   0.317   4.117  0.2600 -0.3437 -0.0772
10180TIP3    H152031   5.583   0.235   4.165 -0.1619 -1.2318 -1.4781
10180TIP3    H252032   5.639   0.304   4.043  1.4622  1.2512  0.5861
10181TIP3   OH252033   2.303   6.000  14.117 -0.1162 -0.1442  0.1186
10181TIP3    H152034   2.396   5.977  14.110 -0.3969 -3.1176  3.5088
10181TIP3    H252035   2.259   5.936  14.062 -0.2958  0.8172 -0.9093
10182TIP3   OH252036   4.086   1.733  16.703  0.6934  0.2546 -0.3944
10182TIP3    H152037   4.174   1.699  16.723  1.2021  0.0316 -2.7405
10182TIP3    H252038   4.102   1.810  16.648 -0.5760  0.2792 -0.7544
10183TIP3   OH252039   5.281   2.177  10.723 -0.0370 -0.0544 -0.1009
10183TIP3    H152040   5.259   2.093  10.764  0.3480  0.5274  1.3399
10183TIP3    H252041   5.253   2.166  10.632 -1.8302 -1.0649  0.4991
10184TIP3   OH252042   3.382   5.073   5.746 -0.4744  0.9552  0.5372
10184TIP3    H152043   3.359   5.041   5.833 -0.1256  0.2336  0.3760
10184TIP3    H252044   3.359   5.166   5.747  0.3275  1.1649  1.6971
10185TIP3   OH252045   6.203   0.113  11.480 -0.0573  0.1643  0.1494
10185TIP3    H152046   6.231   0.177  11.544 -0.4077 -0.2547  0.7321
10185TIP3    H252047   6.108   0.107  11.492 -0.2063  0.4515 -0.7558
10186TIP3   OH252048   1.158   5.958   2.557  0.2198  0.2344 -0.1511
10186TIP3    H152049   1.064   5.948   2.572  0.0947 -0.7167 -1.4492
10186TIP3    H252050   1.167   5.966   2.462  1.4731  0.0620 -0.0634
10187TIP3   OH252051   4.536   3.313   1.002 -0.0654  0.4597 -0.1836
10187TIP3    H152052   4.455   3.264   0.988 -0.4143  0.7569  0.7142
10187TIP3    H252053   4.570   3.279   1.086 -0.1248  1.4925  0.2729
10188TIP3   OH252054   4.280   2.298  12.151 -0.0118 -0.2991  0.0062
10188TIP3    H152055   4.263   2.373  12.208  1.0406 -0.0484  0.0133
10188TIP3    H252056   4.202   2.292  12.096  0.2064  1.3231 -0.5576
10189TIP3   OH252057   1.003   6.164   1.883  0.2332  0.1277 -0.3473
10189TIP3    H152058   0.915   6.141   1.913 -0.5548  2.5467 -0.5672
10189TIP3    H252059   1.015   6.115   1.802 -0.3913 -1.1756  0.3214
10190TIP3   OH252060   4.298   4.134  16.032 -0.0896 -0.6452 -0.6029
10190TIP3    H152061   4.269   4.124  16.123  1.1488 -2.1044 -0.3352
10190TIP3    H252062   4.354   4.212  16.034 -0.7298 -0.1757 -0.3125
10191TIP3   OH252063   4.277   6.706  13.957 -0.6192 -0.2164  0.1732
10191TIP3    H152064   4.189   6.673  13.939 -1.4430  0.7081  2.1907
10191TIP3    H252065   4.332   6.666  13.890 -2.5575 -0.8562 -1.1231
10192TIP3   OH252066   1.434   0.491  12.070 -0.0798 -0.0459 -0.0742
10192TIP3    H152067   1.402   0.405  12.099  1.3810 -0.3677  0.6535
10192TIP3    H252068   1.521   0.474  12.034  1.5777  1.4730  2.8557
10193TIP3   OH252069   0.596   0.035  12.146 -0.1662  0.1573  0.4536
10193TIP3    H152070   0.559   0.073  12.225 -1.4043  0.3498 -0.1936
10193TIP3    H252071   0.577  -0.059  12.153 -0.2136  0.1646  0.4301
10194TIP3   OH252072   2.444   2.561  13.670 -0.0146 -0.3929 -0.4500
10194TIP3    H152073   2.471   2.487  13.615 -0.3077  0.0822 -1.2561
10194TIP3    H252074   2.464   2.533  13.759  0.3933 -1.2227 -0.7861
10195TIP3   OH252075   6.630   3.735   2.971  0.2539  0.3262 -0.2420
10195TIP3    H152076   6.714   3.699   2.944 -0.3836 -2.6375  1.2968
10195TIP3    H252077   6.568   3.706   2.904  0.0088  0.0862  0.0857
10196TIP3   OH252078   4.351   2.906   5.524  0.4122  0.7881 -0.0317
10196TIP3    H152079   4.324   2.930   5.435  0.9086  2.3384  0.2055
10196TIP3    H252080   4.286   2.842   5.552 -0.2213  0.8757 -1.2262
10197TIP3   OH252081   0.977   1.190   6.070 -0.4511  0.1681  0.6405
10197TIP3    H152082   0.931   1.107   6.080  0.8536 -0.8260 -1.1074
10197TIP3    H252083   0.963   1.235   6.154 -0.9088 -1.9482  1.7730
10198TIP3   OH252084   2.926   5.487   1.663  0.2431  0.0629  0.1188
10198TIP3    H152085   2.907   5.440   1.745  2.3079 -0.7038  0.2013
10198TIP3    H252086   2.896   5.428   1.594  0.3445 -0.1675  0.2724
10199TIP3   OH252087   5.428   2.496   3.745 -0.2998 -0.1229  0.4658
10199TIP3    H152088   5.471   2.575   3.714  1.6690 -1.1354  0.4461
10199TIP3    H252089   5.381   2.463   3.669  1.2933 -0.5082 -0.4002
10200TIP3   OH252090   5.846   3.563   0.790  0.4049 -0.3864 -0.2894
10200TIP3    H152091   5.920   3.590   0.737 -0.0166 -0.0328 -0.7054
10200TIP3    H252092   5.806   3.644   0.821 -0.2504 -0.5414 -0.6911
10201TIP3   OH252093   4.730   5.838  15.197 -0.1764  0.2489 -0.3802
10201TIP3    H152094   4.753   5.880  15.113  0.9387  0.6044  0.0903
10201TIP3    H252095   4.792   5.766  15.206  0.8325  1.2347  0.9230
10202TIP3   OH252096   1.291   3.949   1.465 -0.0106 -0.7647  0.4040
10202TIP3    H152097   1.268   4.024   1.520 -0.4988 -0.1045 -0.6617
10202TIP3    H252098   1.212   3.895   1.463 -1.4363  1.1134 -2.6237
10203TIP3   OH252099   6.700   5.561   1.941 -0.0263 -0.1850 -0.7095
10203TIP3    H152100   6.754   5.529   2.013 -0.5968 -0.5209 -0.4155
10203TIP3    H252101   6.674   5.482   1.893  0.5860  0.0616 -1.4626
10204TIP3   OH252102   1.981   2.613  14.969  0.4203  0.7938  0.2370
10204TIP3    H152103   1.925   2.539  14.989  1.7202 -0.0240  1.0096
10204TIP3    H252104   2.049   2.610  15.036  0.8597  2.3129 -0.1015
10205TIP3   OH252105   5.809   2.446   1.897 -0.3086  0.0359 -0.4178
10205TIP3    H152106   5.877   2.461   1.963 -1.0599 -1.5878  0.7913
10205TIP3    H252107   5.854   2.461   1.814  1.0536  0.7246  0.3983
10206TIP3   OH252108   6.606   0.139  14.746  0.2788  0.1749  0.0510
10206TIP3    H152109   6.664   0.063  14.744  1.1594  0.8289 -0.9776
10206TIP3    H252110   6.557   0.130  14.827  0.0690 -1.6905 -0.2345
10207TIP3   OH252111   4.449   5.061   5.939  0.3822 -0.7337 -0.1448
10207TIP3    H152112   4.465   4.969   5.962 -1.3460 -0.9428  0.3724
10207TIP3    H252113   4.364   5.060   5.894  0.6373  0.5348 -0.6887
10208TIP3   OH252114   0.560   5.139  11.225 -0.1121 -0.1118 -0.0156
10208TIP3    H152115   0.640   5.090  11.243  0.2062 -0.2207 -1.5865
10208TIP3    H252116   0.585   5.231  11.238 -0.2949 -0.2569  1.4486
10209TIP3   OH252117   1.870   1.207   2.395 -0.3982  0.3873 -0.0048
10209TIP3    H152118   1.810   1.140   2.427  0.1109 -0.4887 -0.8482
10209TIP3    H252119   1.892   1.179   2.306  1.1942  0.7314  0.2618
10210TIP3   OH252120   3.592   0.806   5.819 -0.3157  0.3326 -0.1101
10210TIP3    H152121   3.607   0.730   5.762  0.3397  0.0354  0.4458
10210TIP3    H252122   3.524   0.856   5.774 -2.0979 -1.4848  0.3842
10211TIP3   OH252123   1.351   2.740   4.958 -0.3638  0.6777  0.2487
10211TIP3    H152124   1.266   2.780   4.974 -0.8253  0.1172 -0.6837
10211TIP3    H252125   1.334   2.676   4.888 -0.0091 -2.1847  2.5610
10212TIP3   OH252126   0.023   2.750  16.833 -0.4825 -0.3999 -0.1249
10212TIP3    H152127   0.091   2.817  16.838 -1.6104  0.7782  0.0792
10212TIP3    H252128  -0.026   2.760  16.915 -0.5708 -1.6003 -0.0153
10213TIP3   OH252129   1.765   5.133  14.049 -0.3666  0.1558  0.4790
10213TIP3    H152130   1.693   5.105  14.106  0.5244 -1.2710  0.9756
10213TIP3    H252131   1.727   5.134  13.961 -1.0513 -0.3638  0.7578
10214TIP3   OH252132   1.902   4.673   2.371  0.0557 -0.3145  0.1936
10214TIP3    H152133   1.997   4.662   2.377 -0.0576 -0.9574  0.9340
10214TIP3    H252134   1.881   4.739   2.438  0.3246  2.1659 -2.0113
10215TIP3   OH252135   6.166   1.688   6.250  1.1502  0.2197  0.6802
10215TIP3    H152136   6.242   1.679   6.307  0.5939 -2.2547  1.1430
10215TIP3    H252137   6.102   1.735   6.303  0.9584 -1.2641  1.8131
10216TIP3   OH252138   0.058   2.588   0.459  0.0210  0.3636  0.1353
10216TIP3    H152139   0.037   2.667   0.409  0.5970  0.3406 -0.1554
10216TIP3    H252140  -0.011   2.526   0.436  0.2847  0.3512 -0.6504
10217TIP3   OH252141   0.519   0.986   0.251  0.4111  0.2466  0.2855
10217TIP3    H152142   0.599   0.962   0.298 -0.6557  0.3033  2.2152
10217TIP3    H252143   0.452   0.928   0.285 -0.2164 -0.4915 -2.0473
10218TIP3   OH252144   3.075   2.539   2.596  0.3232 -0.2456 -0.3141
10218TIP3    H152145   3.087   2.634   2.587  1.7167 -0.2434  1.0395
10218TIP3    H252146   3.134   2.515   2.667  0.5525 -2.2631 -1.1360
10219TIP3   OH252147   1.095   4.231  15.529 -0.3973 -0.4447  0.5477
10219TIP3    H152148   1.173   4.282  15.505 -0.7490  0.0159  0.3586
10219TIP3    H252149   1.074   4.182  15.450 -1.4127  0.8874 -0.0489
10220TIP3   OH252150   4.889   6.582   4.826  0.0255 -0.4833 -0.2650
10220TIP3    H152151   4.976   6.586   4.866  1.0968 -3.1300 -2.0380
10220TIP3    H252152   4.873   6.488   4.815 -0.2365 -0.0993 -5.6342
10221TIP3   OH252153   4.737   5.483  11.493  0.2165  0.0400  0.5455
10221TIP3    H152154   4.673   5.438  11.437  2.3213 -0.1367 -1.9035
10221TIP3    H252155   4.737   5.573  11.461  1.3763 -0.0429  0.2724
10222TIP3   OH252156   3.796   0.625  12.009 -0.1252  0.3477 -0.1212
10222TIP3    H152157   3.850   0.572  11.951  0.1084  0.0033  0.4055
10222TIP3    H252158   3.725   0.567  12.035  0.7917 -0.1334  1.4359
10223TIP3   OH252159   0.947   2.181  14.183  0.1009  0.1268  0.5643
10223TIP3    H152160   0.937   2.095  14.142 -0.2729  1.4446 -2.3529
10223TIP3    H252161   0.864   2.195  14.229 -1.7835  0.6567 -2.6652
10224TIP3   OH252162   6.393   0.268  11.877  0.1247  0.7483  0.2231
10224TIP3    H152163   6.412   0.295  11.787  1.9467 -0.2983  0.2406
10224TIP3    H252164   6.344   0.186  11.867  0.6720  0.4211  0.1613
10225TIP3   OH252165   5.550   4.679   6.595 -0.1578  0.3550  0.3583
10225TIP3    H152166   5.521   4.724   6.516 -0.0605  1.5010  0.9505
10225TIP3    H252167   5.479   4.618   6.616  0.0555 -0.3594 -0.8928
10226TIP3   OH252168   4.162   2.236   3.199  0.2788 -0.0645 -0.0931
10226TIP3    H152169   4.170   2.153   3.153  1.4091  0.4124 -0.7895
10226TIP3    H252170   4.171   2.302   3.131 -0.1539  0.6444  0.5181
10227TIP3   OH252171   0.025   6.091   5.285 -0.2806 -0.0660  0.7998
10227TIP3    H152172   0.014   6.157   5.353  2.0983 -0.7864  1.9928
10227TIP3    H252173   0.119   6.076   5.280 -0.5026 -1.2687 -1.5051
10228TIP3   OH252174   0.735   4.284   3.571 -0.0863  0.0308 -0.5740
10228TIP3    H152175   0.805   4.346   3.552 -0.6236  1.7268  2.4200
10228TIP3    H252176   0.657   4.338   3.581 -0.6620 -1.0907  1.6536
10229TIP3   OH252177   5.563   5.966   1.865  0.0995  0.9341  0.3942
10229TIP3    H152178   5.485   5.970   1.811  0.0898  0.0050  0.3349
10229TIP3    H252179   5.630   5.926   1.810  0.7391  2.0436  0.3202
10230TIP3   OH252180   3.427   3.263  14.484  0.3420  0.9405 -0.6413
10230TIP3    H152181   3.426   3.168  14.472  3.0494  0.9865 -2.0492
10230TIP3    H252182   3.416   3.298  14.395  0.9543  1.8867 -0.3560
10231TIP3   OH252183   2.405   0.843  11.231  0.3972  0.2699  0.5304
10231TIP3    H152184   2.462   0.878  11.162 -0.0787  0.2931  0.1374
10231TIP3    H252185   2.323   0.892  11.220  0.8281  1.4408  2.1566
10232TIP3   OH252186   6.265   6.607  13.416  0.4571 -0.7192  0.2359
10232TIP3    H152187   6.336   6.562  13.462  0.8595 -2.2255 -1.7167
10232TIP3    H252188   6.194   6.611  13.480  2.1220  0.5605  2.1431
10233TIP3   OH252189   3.676   4.829  13.521  0.1340  0.8107  0.1970
10233TIP3    H152190   3.656   4.735  13.513  3.7891 -0.2634  1.5424
10233TIP3    H252191   3.612   4.872  13.465  0.1524 -2.7368 -2.9490
10234TIP3   OH252192   2.039   2.612   1.383 -0.0044  0.1576 -0.3829
10234TIP3    H152193   2.081   2.555   1.319 -1.1822 -1.5901  0.3371
10234TIP3    H252194   2.017   2.691   1.334 -0.7229 -1.0602 -2.1232
10235TIP3   OH252195   6.831   1.753   0.335 -0.1309 -0.3685 -0.4056
10235TIP3    H152196   6.822   1.833   0.283 -0.6450 -0.0895  0.0936
10235TIP3    H252197   6.923   1.751   0.362 -0.0298 -0.1422 -0.7319
10236TIP3   OH252198   2.662   6.371  16.210 -1.2438 -0.7578 -0.8713
10236TIP3    H152199   2.583   6.320  16.229 -0.9553 -0.7986  0.2578
10236TIP3    H252200   2.701   6.388  16.295 -0.9764  0.8030 -1.2787
10237TIP3   OH252201   2.752   5.935   2.022  0.0821 -0.0876  0.2298
10237TIP3    H152202   2.842   5.949   1.994 -1.0176  0.0265 -3.8168
10237TIP3    H252203   2.719   6.023   2.043  0.7310 -0.0967  1.3968
10238TIP3   OH252204   2.727   4.758  15.770 -0.7438  0.2551  0.1618
10238TIP3    H152205   2.746   4.850  15.783 -3.3099  0.7096  1.3939
10238TIP3    H252206   2.727   4.746  15.675 -0.4842  1.5321 -0.0087
10239TIP3   OH252207   1.970   6.253  14.207 -0.3491  0.0474  0.6702
10239TIP3    H152208   1.965   6.196  14.283  0.7327  0.4620  1.0676
10239TIP3    H252209   2.061   6.247  14.178 -1.2695 -2.2050 -2.2469
10240TIP3   OH252210   6.654   5.729  12.004  0.4495  0.0887  0.3194
10240TIP3    H152211   6.664   5.746  12.098 -1.5176 -1.6201  0.9111
10240TIP3    H252212   6.652   5.817  11.965 -1.1156  0.9749  2.1967
10241TIP3   OH252213   6.149   6.213  14.965 -0.0879 -0.1363  0.3060
10241TIP3    H152214   6.077   6.151  14.978 -1.4748  1.3599  0.1071
10241TIP3    H252215   6.131   6.253  14.880  1.1884  0.0223  0.0949
10242TIP3   OH252216   0.953   3.504  13.253 -0.2316  0.5510 -0.0467
10242TIP3    H152217   0.995   3.572  13.304  0.0938 -0.5405  1.1875
10242TIP3    H252218   0.981   3.521  13.163  0.5415  1.5171  0.3593
10243TIP3   OH252219   3.447   1.296  11.206 -0.0880  0.0307  0.0329
10243TIP3    H152220   3.433   1.342  11.123  0.1155  0.9512  0.4963
10243TIP3    H252221   3.455   1.203  11.181  1.6079  0.4530 -1.1580
10244TIP3   OH252222   5.138   1.062   5.360 -0.2613 -0.4586  0.0841
10244TIP3    H152223   5.129   0.989   5.421 -0.2687 -0.3154  0.2564
10244TIP3    H252224   5.214   1.039   5.306 -2.7312 -2.6484 -2.7387
10245TIP3   OH252225   3.981   4.066   2.113 -0.5814 -0.2239  0.1114
10245TIP3    H152226   4.064   4.064   2.064 -0.0862  0.8143  0.8785
10245TIP3    H252227   3.928   3.997   2.073  0.8585 -1.2907 -0.0305
10246TIP3   OH252228   6.411   0.881  10.733 -0.3910  1.1099  0.0779
10246TIP3    H152229   6.416   0.946  10.663 -2.5568  0.5386 -0.7059
10246TIP3    H252230   6.368   0.927  10.805  1.3322  1.5318  0.8999
10247TIP3   OH252231   2.019   5.681   1.226  0.3199 -0.2537  0.1134
10247TIP3    H152232   1.987   5.634   1.304  2.9175 -0.8484  0.9145
10247TIP3    H252233   2.052   5.612   1.168 -0.8477  0.2526 -1.1956
10248TIP3   OH252234   4.139   5.109  15.211 -0.3493 -0.9682  0.7370
10248TIP3    H152235   4.124   5.179  15.148  1.2710  1.3047  2.7163
10248TIP3    H252236   4.108   5.030  15.166  1.3896  0.3458 -3.1928
10249TIP3   OH252237   0.889   3.059   1.388  0.6012 -0.2879 -0.1741
10249TIP3    H152238   0.960   3.114   1.358  1.9104 -1.9272 -0.2274
10249TIP3    H252239   0.914   2.970   1.362 -2.1488 -0.7889 -1.5013
10250TIP3   OH252240   6.658   2.676  14.358 -0.2335  0.1664  0.4673
10250TIP3    H152241   6.610   2.632  14.428 -1.8216  0.7249 -0.2203
10250TIP3    H252242   6.628   2.633  14.277  0.1735  0.7644 -0.0137
10251TIP3   OH252243   2.286   3.417   5.074  0.5604  0.4063 -0.0928
10251TIP3    H152244   2.361   3.366   5.043  0.1284  0.4609 -1.2462
10251TIP3    H252245   2.293   3.413   5.170  1.5562 -0.2913 -0.1776
10252TIP3   OH252246   2.732   5.279   3.274  0.5099  0.1120  0.1234
10252TIP3    H152247   2.814   5.282   3.324  0.6880  1.6897 -0.2064
10252TIP3    H252248   2.665   5.262   3.340  1.1466 -1.8992  0.3012
10253TIP3   OH252249   1.096   3.457  13.023 -0.1664 -0.8313 -0.2881
10253TIP3    H152250   1.080   3.365  13.044  0.3899 -1.2290 -1.5232
10253TIP3    H252251   1.109   3.459  12.928  0.6505  0.3933 -0.1816
10254TIP3   OH252252   1.991   5.357   5.727  0.4864  0.2623 -0.3830
10254TIP3    H152253   2.024   5.366   5.816  0.1073 -0.5825 -0.1470
10254TIP3    H252254   2.048   5.292   5.686 -0.7114 -1.0703 -0.0325
10255TIP3   OH252255   3.593   3.222  13.754  0.0426 -0.2253 -0.5075
10255TIP3    H152256   3.603   3.135  13.718 -0.1223 -0.0199 -1.0610
10255TIP3    H252257   3.675   3.267  13.734  0.2017 -0.3093 -0.0569
10256TIP3   OH252258   5.973   0.693   6.186  0.5531 -0.2348  0.4159
10256TIP3    H152259   5.985   0.603   6.157 -0.4594 -0.2218 -0.0936
10256TIP3    H252260   5.909   0.687   6.257  0.3299  0.1074  0.2430
10257TIP3   OH252261   0.775   5.326   0.651 -0.2575 -0.0204  0.2594
10257TIP3    H152262   0.753   5.242   0.691 -0.7505  0.3386  0.7559
10257TIP3    H252263   0.802   5.304   0.561  3.3640 -1.1432  1.4400
10258TIP3   OH252264   0.533   3.156   1.233  0.0749  0.2031 -0.0190
10258TIP3    H152265   0.587   3.235   1.227  0.3130  0.3066  2.4124
10258TIP3    H252266   0.466   3.178   1.298 -2.2011 -0.3794 -2.0016
10259TIP3   OH252267   0.675   5.778  10.844 -0.2678 -0.1688  0.1284
10259TIP3    H152268   0.643   5.814  10.762 -2.0088  0.4908  1.0529
10259TIP3    H252269   0.751   5.832  10.866  0.3740 -0.5180 -1.1390
10260TIP3   OH252270   3.240   0.820   5.481  0.1173 -0.1504  0.6502
10260TIP3    H152271   3.197   0.762   5.419  1.0848  1.7731 -1.9861
10260TIP3    H252272   3.174   0.886   5.503  0.2516  0.0561  0.4337
10261TIP3   OH252273   0.825   0.315  14.541 -0.0253  0.1273 -0.2131
10261TIP3    H152274   0.910   0.322  14.584 -0.9738  0.5418  1.7057
10261TIP3    H252275   0.826   0.229  14.499  0.0339 -1.5269  2.9096
10262TIP3   OH252276   6.474   2.307   4.352 -0.3430  0.6491 -0.1157
10262TIP3    H152277   6.450   2.258   4.431  0.2521 -0.2315 -0.4652
10262TIP3    H252278   6.466   2.243   4.281  0.7848  0.9630 -0.5362
10263TIP3   OH252279   2.965   6.524  13.967  0.0473  0.2019 -0.3331
10263TIP3    H152280   2.888   6.573  13.996  0.6554  0.7765  0.3677
10263TIP3    H252281   3.033   6.590  13.957  0.4996 -0.3199 -0.7782
10264TIP3   OH252282   2.371   4.221   4.206  0.0075  0.6005  0.6214
10264TIP3    H152283   2.417   4.264   4.279  0.0180  1.9233 -0.1405
10264TIP3    H252284   2.435   4.160   4.170  0.3369  0.6545  1.1059
10265TIP3   OH252285   3.698   1.940   0.685 -0.0933  0.5145  0.0763
10265TIP3    H152286   3.777   1.974   0.643 -0.2377 -0.7648 -1.3305
10265TIP3    H252287   3.650   1.896   0.615 -1.0787 -0.4492  1.2911
10266TIP3   OH252288   1.511   4.086  16.470 -1.0405 -0.3865 -0.1196
10266TIP3    H152289   1.539   4.172  16.503 -2.5478  0.7059 -1.5336
10266TIP3    H252290   1.591   4.034  16.471  0.0359  1.1776  0.3376
10267TIP3   OH252291   0.905   4.702   1.832  0.5492  0.0898  0.4284
10267TIP3    H152292   0.973   4.669   1.890  0.8254  0.7604  0.4888
10267TIP3    H252293   0.911   4.797   1.839  0.5020  0.1823 -0.5931
10268TIP3   OH252294   3.426   1.014  15.986 -0.3821  0.1171  0.0791
10268TIP3    H152295   3.456   1.063  15.910 -0.8463  1.3831  0.6853
10268TIP3    H252296   3.504   1.003  16.040 -0.3166  0.3862  0.0396
10269TIP3   OH252297   2.652   2.216   1.158  0.4529  0.3572  0.6027
10269TIP3    H152298   2.634   2.310   1.158  0.7486  0.4203  1.2966
10269TIP3    H252299   2.592   2.180   1.093 -0.5404  0.8608  1.2280
10270TIP3   OH252300   6.258   6.754   5.484 -0.2948 -0.1259  0.2662
10270TIP3    H152301   6.246   6.830   5.426 -1.1828  0.7604  1.5738
10270TIP3    H252302   6.314   6.787   5.554 -0.9799 -0.5739  1.0330
10271TIP3   OH252303   5.768   6.457   1.830  0.0656 -0.7328  0.3960
10271TIP3    H152304   5.681   6.442   1.793  0.5953  0.8066 -1.6600
10271TIP3    H252305   5.821   6.384   1.797  0.0981 -0.3875 -0.3143
10272TIP3   OH252306   3.693   2.726   2.897  0.2548  0.1906  0.3199
10272TIP3    H152307   3.719   2.652   2.952 -0.5962 -0.8440 -0.6238
10272TIP3    H252308   3.671   2.795   2.959  0.3873 -0.5809  1.2536
10273TIP3   OH252309   6.459   6.540   0.578  0.8151  0.5541 -0.1134
10273TIP3    H152310   6.552   6.556   0.562  0.9289 -0.2286 -0.2666
10273TIP3    H252311   6.457   6.455   0.623  0.1246  0.1344 -0.9086
10274TIP3   OH252312   4.978   3.566  16.293 -0.1571 -0.3031 -0.1097
10274TIP3    H152313   4.958   3.593  16.382  0.2909 -0.1068 -0.0646
10274TIP3    H252314   4.893   3.560  16.249 -0.2948  0.9018 -0.0463
10275TIP3   OH252315   6.293   0.468  15.490  0.6696  0.2145  0.4607
10275TIP3    H152316   6.256   0.422  15.415 -0.9539  2.2304 -0.0719
10275TIP3    H252317   6.249   0.430  15.566 -2.7257  2.5344 -0.1553
10276TIP3   OH252318   3.605   6.804   3.402 -0.6718  0.0610 -0.0484
10276TIP3    H152319   3.682   6.830   3.352 -2.2575 -1.5392 -3.7058
10276TIP3    H252320   3.555   6.885   3.413 -0.2518  0.4951 -1.1516
10277TIP3   OH252321   3.027   1.154   4.605  0.0348 -0.4073  0.1845
10277TIP3    H152322   2.951   1.206   4.580 -0.4723 -1.7789 -1.3364
10277TIP3    H252323   2.990   1.075   4.645  0.7152 -0.4184  0.8212
10278TIP3   OH252324   1.512   0.658   2.446  0.4880 -0.2960 -1.0412
10278TIP3    H152325   1.420   0.674   2.467  0.2253 -0.9994 -1.5938
10278TIP3    H252326   1.544   0.742   2.412 -0.2084 -0.3018 -1.7272
10279TIP3   OH252327   3.208   2.684   1.263 -0.2692  0.0958  0.0354
10279TIP3    H152328   3.259   2.693   1.182 -0.1639 -1.5082 -0.1125
10279TIP3    H252329   3.150   2.610   1.246  0.0643 -0.5539  1.5705
10280TIP3   OH252330   3.202   0.971   3.853 -0.0891  0.2026 -0.3020
10280TIP3    H152331   3.137   0.962   3.783 -0.0142  1.2348 -0.5180
10280TIP3    H252332   3.253   0.890   3.849 -1.4563 -0.6912 -0.0213
10281TIP3   OH252333   0.790   2.752  16.739  0.2146 -0.1010 -0.0321
10281TIP3    H152334   0.704   2.743  16.781  1.4173 -1.3849  2.3478
10281TIP3    H252335   0.818   2.841  16.760 -0.7836  0.5787 -1.4339
10282TIP3   OH252336   4.153   4.359  16.912  0.2931  0.2801  0.6072
10282TIP3    H152337   4.215   4.362  16.839  0.4560 -1.1248  0.6652
10282TIP3    H252338   4.078   4.312  16.878  0.1994 -0.0305  1.2228
10283TIP3   OH252339   1.629   6.789  13.091  0.2971 -0.5958  0.1361
10283TIP3    H152340   1.721   6.790  13.064  0.2097  0.7803 -0.1811
10283TIP3    H252341   1.624   6.848  13.166 -0.7429  1.5244 -1.4755
10284TIP3   OH252342   6.113   4.020  15.263  0.1748 -0.1913  0.4247
10284TIP3    H152343   6.022   4.046  15.250  0.4981 -0.2702 -2.8826
10284TIP3    H252344   6.110   3.925  15.269 -0.0904 -0.0921  2.3951
10285TIP3   OH252345   1.019   1.055   6.611 -0.4189 -0.1640 -0.3393
10285TIP3    H152346   1.048   1.012   6.531  0.4865 -0.0710 -0.0730
10285TIP3    H252347   1.033   1.148   6.595  0.0434 -0.1664  0.0322
10286TIP3   OH252348   0.799   4.581  13.181 -0.3580  0.7216  0.9343
10286TIP3    H152349   0.765   4.668  13.200  0.6342  1.2813  0.2320
10286TIP3    H252350   0.764   4.526  13.251 -0.8319  1.7260  1.5061
10287TIP3   OH252351   1.007   6.695  14.420  0.2112  0.0212 -0.3061
10287TIP3    H152352   0.940   6.649  14.370 -0.4559 -0.2504  0.8065
10287TIP3    H252353   1.065   6.732  14.354 -0.9487  0.1302 -1.3000
10288TIP3   OH252354   5.750   5.675   6.514  0.6499 -0.2476 -0.4115
10288TIP3    H152355   5.803   5.702   6.589 -0.0702  0.1342 -0.0314
10288TIP3    H252356   5.744   5.580   6.522  0.1618 -0.1656  0.3049
10289TIP3   OH252357   4.074   3.966  15.250  0.0316 -0.2097  0.1545
10289TIP3    H152358   4.103   3.882  15.214  1.4439  0.1649  0.3384
10289TIP3    H252359   4.144   4.028  15.225  0.3396  0.3701  2.2357
10290TIP3   OH252360   6.447   3.847  14.035  0.0190  0.4966  0.4242
10290TIP3    H152361   6.435   3.777  14.100  0.0963 -0.1221 -0.2166
10290TIP3    H252362   6.382   3.913  14.060 -0.4486 -0.0495  0.7116
10291TIP3   OH252363   0.994   5.888   3.872 -0.2539 -0.1239 -0.8192
10291TIP3    H152364   1.055   5.831   3.827 -0.3110 -0.4789 -0.4550
10291TIP3    H252365   0.910   5.874   3.828 -0.3477 -0.6003 -0.5020
10292TIP3   OH252366   4.990   3.949  13.686 -0.3864  0.4746 -0.2322
10292TIP3    H152367   5.009   4.004  13.611  2.1520  0.5369  0.3466
10292TIP3    H252368   5.012   3.860  13.657 -0.2155  0.3848  0.1590
10293TIP3   OH252369   2.277   3.828   0.444 -0.2601 -0.2339  0.1877
10293TIP3    H152370   2.277   3.924   0.445  1.7384 -0.1902  1.5292
10293TIP3    H252371   2.262   3.803   0.535 -0.5736 -1.2089 -0.1208
10294TIP3   OH252372   6.840   4.693  15.971 -0.1045 -0.4094 -0.3112
10294TIP3    H152373   6.808   4.680  15.882  0.0102 -0.0761 -0.4032
10294TIP3    H252374   6.770   4.743  16.014 -0.0338 -0.3212 -0.2983
10295TIP3   OH252375   4.559   4.843   6.223 -0.0752  0.0526 -0.6169
10295TIP3    H152376   4.651   4.815   6.229 -0.3463 -1.5023 -2.4441
10295TIP3    H252377   4.560   4.936   6.246  2.0804  0.2423 -1.2592
10296TIP3   OH252378   2.931   0.444   4.668 -0.5914 -0.2300  0.4272
10296TIP3    H152379   2.952   0.518   4.610  3.3305 -1.8922 -0.5331
10296TIP3    H252380   2.851   0.408   4.631  0.3598  0.3362 -2.4579
10297TIP3   OH252381   1.574   0.337  11.900  0.0845 -0.5038  0.2742
10297TIP3    H152382   1.569   0.243  11.884 -1.1259 -0.3576 -0.2827
10297TIP3    H252383   1.668   0.356  11.903  0.3383 -1.6445 -0.0853
10298TIP3   OH252384   2.076   5.018  14.902 -0.5302 -0.1366  0.9123
10298TIP3    H152385   1.988   4.981  14.892 -0.5510  0.4665 -1.5962
10298TIP3    H252386   2.135   4.944  14.887 -0.6126  0.2063 -1.4747
10299TIP3   OH252387   1.607   4.987  10.852  0.5727  0.0374  0.4220
10299TIP3    H152388   1.565   5.002  10.767  0.3811  0.6761  0.6258
10299TIP3    H252389   1.547   5.025  10.916  2.4210  2.9893  0.5859
10300TIP3   OH252390   2.459   4.150  13.730 -0.6426 -0.3190  0.1233
10300TIP3    H152391   2.378   4.102  13.746 -1.4767  0.4521 -1.5183
10300TIP3    H252392   2.438   4.210  13.659  0.8491  1.2741  0.9360
10301TIP3   OH252393   1.529   3.130   0.177 -0.2044  0.5045 -0.2631
10301TIP3    H152394   1.500   3.045   0.144 -1.2180  1.2626 -1.3684
10301TIP3    H252395   1.523   3.122   0.273  2.4533 -1.6149 -0.1216
10302TIP3   OH252396   4.546   1.781  15.417  0.2721 -0.4463  0.1037
10302TIP3    H152397   4.478   1.718  15.393 -1.1481  0.5336  1.3487
10302TIP3    H252398   4.604   1.783  15.342 -0.5038 -2.0817 -0.5931
10303TIP3   OH252399   0.556   4.127   0.504  0.0561  0.2017 -0.0068
10303TIP3    H152400   0.530   4.211   0.467 -1.1116 -0.1854 -0.0843
10303TIP3    H252401   0.607   4.085   0.435  0.8010  0.9026  0.0938
10304TIP3   OH252402   4.062   0.149   0.131  0.1757  0.0550 -0.4130
10304TIP3    H152403   4.008   0.148   0.209  0.1259  0.9476 -0.4187
10304TIP3    H252404   4.128   0.081   0.146  0.1186  0.1598  0.3716
10305TIP3   OH252405   4.168   1.341   5.240  0.3205 -0.2215  0.5167
10305TIP3    H152406   4.174   1.267   5.301 -0.1004  0.6924  1.6989
10305TIP3    H252407   4.184   1.302   5.154  1.4145 -1.4661  1.2405
10306TIP3   OH252408   1.402   0.314  13.699 -1.0482 -0.1122 -0.1693
10306TIP3    H152409   1.414   0.251  13.770  0.5457 -1.1565 -1.2855
10306TIP3    H252410   1.308   0.314  13.683 -1.1382 -2.0805  0.0266
10307TIP3   OH252411   1.266   5.416   2.028  0.2144 -0.2992  0.1110
10307TIP3    H152412   1.345   5.418   1.975 -0.2429 -0.4683 -0.5934
10307TIP3    H252413   1.197   5.448   1.970 -0.1056  0.5871  0.9574
10308TIP3   OH252414   0.679   5.823  11.387  0.2326  0.0569  0.0385
10308TIP3    H152415   0.640   5.743  11.421 -4.0170  1.0945 -1.8196
10308TIP3    H252416   0.681   5.811  11.292  2.3302  1.0737 -0.1073
10309TIP3   OH252417   5.663   4.825   2.756 -0.8789 -0.9206  0.0884
10309TIP3    H152418   5.587   4.853   2.705 -1.4913  1.9862  2.3031
10309TIP3    H252419   5.730   4.804   2.691 -2.5072 -0.2383 -1.9074
10310TIP3   OH252420   6.725   0.555   5.921 -0.3306 -0.5300 -0.5487
10310TIP3    H152421   6.745   0.640   5.961 -1.6142 -0.2479 -0.4438
10310TIP3    H252422   6.638   0.533   5.955  0.2086 -2.1817 -0.1060
10311TIP3   OH252423   6.012   3.312  13.307 -0.4272 -0.2845  0.2738
10311TIP3    H152424   6.070   3.320  13.232 -2.2474 -0.5940 -1.2512
10311TIP3    H252425   6.023   3.395  13.355  1.8997 -0.7132  0.5995
10312TIP3   OH252426   1.062   5.688  12.581 -0.4623  0.4263 -0.7658
10312TIP3    H152427   1.057   5.779  12.551  1.6923  0.3846 -1.3649
10312TIP3    H252428   1.149   5.659  12.556 -0.2880 -1.1263  1.4161
10313TIP3   OH252429   0.354   3.447   1.347 -0.4057  0.2091 -0.0640
10313TIP3    H152430   0.333   3.365   1.393 -1.1047 -0.0330 -0.7968
10313TIP3    H252431   0.432   3.427   1.297  0.1708  0.3772  0.7509
10314TIP3   OH252432   6.187   5.116  14.923  0.4190  0.0583  0.1400
10314TIP3    H152433   6.255   5.182  14.938  0.6861 -0.3132  0.5654
10314TIP3    H252434   6.172   5.119  14.828  0.4474  0.7098  0.1507
10315TIP3   OH252435   3.620   5.988  12.944  0.2442 -0.1259 -0.3624
10315TIP3    H152436   3.642   5.896  12.959  0.2438 -0.0707 -0.0046
10315TIP3    H252437   3.687   6.037  12.992  0.0147  0.0535 -0.2195
10316TIP3   OH252438   0.978   0.410  11.631  0.0260 -0.0835 -0.1089
10316TIP3    H152439   1.002   0.494  11.668 -0.0072 -1.2420  2.7887
10316TIP3    H252440   1.061   0.371  11.603  0.2719  0.1221  0.3345
10317TIP3   OH252441   5.912   0.224   5.286  0.1831 -0.4567 -0.0875
10317TIP3    H152442   5.895   0.164   5.213  1.3064  0.4813 -1.1617
10317TIP3    H252443   5.833   0.219   5.340 -1.1611 -0.3978 -1.9372
10318TIP3   OH252444   1.122   1.489  14.252  0.4467 -0.0576  0.1948
10318TIP3    H152445   1.185   1.495  14.323 -1.5230  0.7902  1.9896
10318TIP3    H252446   1.090   1.578  14.240 -1.2336 -0.6279  0.1713
10319TIP3   OH252447   4.935   5.070  14.187 -0.0652  0.1720  0.5336
10319TIP3    H152448   4.982   5.153  14.187  0.1420  0.0560  0.4677
10319TIP3    H252449   4.859   5.086  14.132  0.8122 -0.1447 -0.8271
10320TIP3   OH252450   0.424   6.287  14.874  0.4783 -0.0581 -0.3447
10320TIP3    H152451   0.427   6.298  14.969  2.7808 -0.6211 -0.2894
10320TIP3    H252452   0.441   6.375  14.840 -2.4090  0.5936 -0.3497
10321TIP3   OH252453   1.492   0.509  15.204  0.2364  0.3825  0.4610
10321TIP3    H152454   1.525   0.420  15.219  0.8964  0.6859  0.8351
10321TIP3    H252455   1.499   0.552  15.289  3.5429  1.9709 -0.4823
10322TIP3   OH252456   4.518   0.140  15.608  0.2250 -0.6381  0.3569
10322TIP3    H152457   4.605   0.179  15.601  0.1044 -0.5289 -0.6004
10322TIP3    H252458   4.528   0.052  15.574  0.5089 -1.5229  2.5720
10323TIP3   OH252459   3.618   4.792  16.887  0.1966  0.4811  0.1333
10323TIP3    H152460   3.638   4.837  16.970  0.4157 -1.0086  0.9239
10323TIP3    H252461   3.537   4.744  16.904  0.4143 -0.0944 -0.4106
10324TIP3   OH252462   0.237   0.746  14.959 -0.3254 -0.1231 -0.3953
10324TIP3    H152463   0.283   0.744  14.875  1.6027  1.6421  0.5262
10324TIP3    H252464   0.248   0.836  14.990 -1.1460 -0.6786  1.6723
10325TIP3   OH252465   2.035   4.642   3.263  0.1794 -0.7750  0.5548
10325TIP3    H152466   1.978   4.717   3.283  1.6366  0.4356  0.3887
10325TIP3    H252467   2.008   4.614   3.176  0.8379  0.8067 -0.1997
10326TIP3   OH252468   5.612   0.013   2.151  0.1495  0.2655 -0.1824
10326TIP3    H152469   5.609   0.055   2.237 -3.3058  1.0882 -0.5700
10326TIP3    H252470   5.678  -0.056   2.161  0.7058  1.0701  2.7488
10327TIP3   OH252471   6.074   1.800   0.988  0.4198  0.0270 -0.2002
10327TIP3    H152472   6.044   1.883   1.025  0.1976 -0.3400  0.4765
10327TIP3    H252473   6.158   1.784   1.031  0.7280  0.1697 -0.7434
10328TIP3   OH252474   2.402   1.043   4.882  0.2124  0.4921 -0.0764
10328TIP3    H152475   2.385   0.951   4.904  1.7939 -0.6201 -3.0553
10328TIP3    H252476   2.477   1.067   4.937 -0.0334 -0.0568  0.5167
10329TIP3   OH252477   1.183   4.523   1.292  0.4890  0.0054 -0.0217
10329TIP3    H152478   1.200   4.572   1.372 -0.4602 -0.2421  0.3475
10329TIP3    H252479   1.099   4.480   1.307 -0.0390  0.4843 -1.3964
10330TIP3   OH252480   1.213   2.339   4.873 -0.2963 -0.8313  0.2599
10330TIP3    H152481   1.190   2.322   4.965 -0.6757 -1.7661  0.0065
10330TIP3    H252482   1.264   2.262   4.847 -0.3965 -0.6804 -0.3889
10331TIP3   OH252483   5.736   1.892   1.612  0.0406  0.3345 -0.0500
10331TIP3    H152484   5.662   1.943   1.577 -0.4273 -0.4806 -0.3009
10331TIP3    H252485   5.792   1.956   1.654  0.5086  1.3651 -2.0972
10332TIP3   OH252486   0.444   5.815  16.965  0.2873  0.0463  0.2319
10332TIP3    H152487   0.398   5.895  16.991 -0.1807 -0.0017 -0.4241
10332TIP3    H252488   0.514   5.805  17.030 -0.5627  0.1779  1.1859
10333TIP3   OH252489   4.406   4.237   3.264  0.9875 -0.0348 -0.6689
10333TIP3    H152490   4.327   4.246   3.211  0.6245 -0.4727 -0.2081
10333TIP3    H252491   4.433   4.146   3.250 -1.7955 -1.8189  3.5276
10334TIP3   OH252492   0.831   0.612  12.375 -0.0062 -0.2245 -0.0941
10334TIP3    H152493   0.774   0.536  12.373 -1.6662  0.9767 -0.2997
10334TIP3    H252494   0.884   0.605  12.296 -1.5109 -0.1788 -1.1374
10335TIP3   OH252495   6.295   3.409   4.263  0.4194 -0.3469  0.1577
10335TIP3    H152496   6.331   3.430   4.177 -0.1512 -1.8375 -0.4712
10335TIP3    H252497   6.304   3.490   4.313  1.2205  0.3963 -1.1386
10336TIP3   OH252498   4.810   3.951   3.565 -0.6784  0.0732  0.1110
10336TIP3    H152499   4.827   3.997   3.647  0.2127 -1.6984  0.9739
10336TIP3    H252500   4.774   3.866   3.592 -0.9088 -0.3274 -1.3618
10337TIP3   OH252501   1.220   0.355  16.126 -0.0808 -0.7165  0.2163
10337TIP3    H152502   1.305   0.348  16.081 -0.3108 -3.6438  0.0203
10337TIP3    H252503   1.175   0.426  16.081  1.8110  0.1505 -0.4271
10338TIP3   OH252504   0.948   6.807  12.932 -0.0913  0.2442 -0.4296
10338TIP3    H152505   1.001   6.762  12.866 -0.3610  1.2997 -1.4110
10338TIP3    H252506   0.857   6.786  12.908 -0.2112  1.1193 -0.7817
10339TIP3   OH252507   4.929   4.249   2.015  0.0796 -0.2086 -0.7149
10339TIP3    H152508   4.987   4.229   2.088  0.8773 -0.3917 -1.3812
10339TIP3    H252509   4.921   4.166   1.967 -1.5018 -0.4402 -0.1260
10340TIP3   OH252510   2.483   2.460  12.167  0.1051 -0.1102 -0.1351
10340TIP3    H152511   2.574   2.479  12.192 -0.1828  1.7856 -0.3507
10340TIP3    H252512   2.481   2.366  12.152  2.1437 -0.1261 -0.5610
10341TIP3   OH252513   3.583   3.010  11.961 -0.8260  0.2880  0.9313
10341TIP3    H152514   3.574   3.088  12.016  0.5701 -0.9029  3.0389
10341TIP3    H252515   3.585   2.937  12.024  1.1408 -1.1473 -0.6609
10342TIP3   OH252516   0.525   5.901   0.236 -0.8281 -0.3739  0.2635
10342TIP3    H152517   0.599   5.875   0.182 -1.5457  0.9166 -1.4211
10342TIP3    H252518   0.552   5.880   0.326  0.7357 -1.7890 -0.4893
10343TIP3   OH252519   1.173   0.345   5.563 -0.3635 -0.4072  0.7345
10343TIP3    H152520   1.263   0.372   5.544 -0.4216  0.1283  1.1844
10343TIP3    H252521   1.119   0.403   5.510 -0.4727  0.0086  1.2903
10344TIP3   OH252522   4.668   2.547  11.045 -0.0233  0.2063 -0.6338
10344TIP3    H152523   4.701   2.636  11.035  1.5960 -0.3996 -1.0639
10344TIP3    H252524   4.575   2.558  11.063 -0.1282  1.9437 -1.9466
10345TIP3   OH252525   5.742   2.423  14.586  0.7443 -0.3178  0.0096
10345TIP3    H152526   5.807   2.425  14.656  0.3204 -2.4181  0.5276
10345TIP3    H252527   5.754   2.338  14.545 -2.1087 -1.1048  0.5800
10346TIP3   OH252528   1.924   2.823   1.151 -0.3105 -0.0547 -0.2181
10346TIP3    H152529   1.952   2.772   1.075 -0.1523 -1.5072  0.7774
10346TIP3    H252530   1.842   2.783   1.178 -0.0066 -0.0212  0.7969
10347TIP3   OH252531   4.820   3.944   1.569 -0.3769 -0.3876 -0.1687
10347TIP3    H152532   4.796   3.970   1.658 -0.7999  0.7227 -0.5966
10347TIP3    H252533   4.903   3.989   1.553 -0.1412 -0.8413 -0.2259
10348TIP3   OH252534   3.632   0.331  15.568  0.0796  0.3199 -0.0522
10348TIP3    H152535   3.617   0.417  15.529 -2.1606 -0.2780 -0.6668
10348TIP3    H252536   3.553   0.315  15.620  0.1863 -1.6163 -0.4326
10349TIP3   OH252537   3.139   2.517   2.294 -0.0855 -0.6798 -0.1347
10349TIP3    H152538   3.128   2.489   2.384 -0.2476 -0.9004 -0.2225
10349TIP3    H252539   3.189   2.599   2.300 -1.1017 -0.0705  0.2254
10350TIP3   OH252540   0.993   6.634   2.727  0.7503 -0.1989  0.1265
10350TIP3    H152541   1.017   6.569   2.793  3.6147  0.9853  0.3689
10350TIP3    H252542   1.075   6.675   2.703 -0.7148  1.9727 -1.5035
10351TIP3   OH252543   1.386   6.528  13.071 -0.0892  0.0536 -0.2252
10351TIP3    H152544   1.458   6.467  13.088 -1.0646 -1.6532 -1.8491
10351TIP3    H252545   1.420   6.586  13.002 -0.6792 -1.7633 -2.1737
10352TIP3   OH252546   3.239   1.568   4.978  0.2017  0.4544  0.2703
10352TIP3    H152547   3.313   1.618   5.013  0.7474  0.2986 -0.6181
10352TIP3    H252548   3.219   1.503   5.045 -1.0776  2.3597  1.8364
10353TIP3   OH252549   6.649   0.420   0.577 -1.1291  0.2786  0.3202
10353TIP3    H152550   6.597   0.339   0.570  1.0783 -1.3200  1.1298
10353TIP3    H252551   6.612   0.466   0.652 -0.0727 -1.9756  2.3835
10354TIP3   OH252552   2.516   2.601  11.551  0.0285 -0.1366 -0.2076
10354TIP3    H152553   2.608   2.600  11.580  0.1964 -0.1200 -0.7327
10354TIP3    H252554   2.471   2.543  11.612  0.0669  1.1289  1.1090
10355TIP3   OH252555   4.804   0.421  16.777  0.2338 -0.3851 -0.0535
10355TIP3    H152556   4.738   0.460  16.720  0.6929 -0.1348 -0.4155
10355TIP3    H252557   4.848   0.356  16.722  0.6945 -0.1245  0.0060
10356TIP3   OH252558   6.465   2.116  15.003 -0.3747  0.3944 -0.5340
10356TIP3    H152559   6.521   2.054  15.048  0.1551  1.3912  0.2134
10356TIP3    H252560   6.376   2.092  15.030 -0.1989 -0.1784 -0.4508
10357TIP3   OH252561   5.933   0.411   1.902  0.0223  0.3104 -0.2663
10357TIP3    H152562   5.983   0.401   1.983  0.3629  1.0500 -0.3756
10357TIP3    H252563   5.880   0.489   1.917 -0.8821 -0.2958 -0.2683
10358TIP3   OH252564   4.298   5.684  14.596  0.1313 -0.2592 -0.2065
10358TIP3    H152565   4.280   5.719  14.509  0.5445  0.2214 -0.1029
10358TIP3    H252566   4.376   5.731  14.626  0.9814 -1.5734 -0.2409
10359TIP3   OH252567   4.503   3.790   4.270 -0.0292 -0.1523 -0.2978
10359TIP3    H152568   4.568   3.834   4.216 -1.2538 -0.5171 -2.1659
10359TIP3    H252569   4.514   3.829   4.357  0.0550  2.6602 -1.4514
10360TIP3   OH252570   4.353   3.865  16.613 -0.5963  0.0077  0.0477
10360TIP3    H152571   4.371   3.936  16.552 -1.0643  1.4030  1.4404
10360TIP3    H252572   4.305   3.800  16.562  1.2205 -0.0651 -1.6501
10361TIP3   OH252573   1.340   4.181  13.793  0.1101  0.3060 -0.2287
10361TIP3    H152574   1.281   4.196  13.868 -0.0111  0.5951 -0.3778
10361TIP3    H252575   1.422   4.222  13.820  0.2582 -0.1303 -0.0054
10362TIP3   OH252576   4.217   1.607  14.789 -0.3210 -0.5156 -0.1113
10362TIP3    H152577   4.310   1.627  14.801 -0.2660 -0.5519 -0.4611
10362TIP3    H252578   4.216   1.542  14.718 -0.6055 -0.5972 -0.0327
10363TIP3   OH252579   5.649   2.241   4.754  0.0911  0.0035  0.3557
10363TIP3    H152580   5.656   2.205   4.843 -2.7560 -0.3585  0.5306
10363TIP3    H252581   5.616   2.168   4.702 -0.3658  0.8316 -0.5318
10364TIP3   OH252582   2.580   4.891   6.115  0.6966 -0.4516  0.3691
10364TIP3    H152583   2.524   4.968   6.123  2.9183  1.1612  1.2554
10364TIP3    H252584   2.600   4.885   6.021 -1.5921 -1.6297 -0.1264
10365TIP3   OH252585   1.383   6.414  16.328  0.1274 -0.3637  0.0155
10365TIP3    H152586   1.394   6.469  16.251  0.8611 -0.3929  0.0895
10365TIP3    H252587   1.423   6.330  16.303  0.0961 -0.4688  0.3167
10366TIP3   OH252588   0.657   0.515   4.750 -0.0789 -0.4559 -0.0836
10366TIP3    H152589   0.673   0.429   4.789  1.2296 -0.3377 -0.3151
10366TIP3    H252590   0.651   0.575   4.825 -0.4004 -0.6525  0.0495
10367TIP3   OH252591   4.673   1.927   1.458 -0.4897 -0.7457 -0.4951
10367TIP3    H152592   4.607   1.858   1.460 -0.1938 -1.0506 -0.9853
10367TIP3    H252593   4.756   1.881   1.457 -0.1882 -0.3525  1.9484
10368TIP3   OH252594   3.040   0.657  14.589  0.2470  0.2492 -0.4590
10368TIP3    H152595   3.077   0.620  14.669  0.1563 -0.2581 -0.6466
10368TIP3    H252596   3.053   0.752  14.597 -1.0131  0.3437  0.8035
10369TIP3   OH252597   0.638   3.050  13.693  0.0469  0.4783 -0.0250
10369TIP3    H152598   0.586   3.054  13.612  0.2872  0.2139 -0.1932
10369TIP3    H252599   0.575   3.021  13.760  0.1580 -0.7024 -0.3989
10370TIP3   OH252600   2.991   1.069  14.429  0.5698 -0.1881  0.1920
10370TIP3    H152601   2.952   1.149  14.463 -0.9146 -0.1600 -1.4131
10370TIP3    H252602   2.971   1.071  14.335  2.3803 -1.3997 -0.2627
10371TIP3   OH252603   3.965   5.606   1.505 -0.0966  0.1716 -0.0640
10371TIP3    H152604   4.004   5.691   1.486  0.4300 -0.2680 -1.0337
10371TIP3    H252605   4.006   5.579   1.587  0.2408  0.5492 -0.1044
10372TIP3   OH252606   3.509   1.172   5.528  0.8568 -0.0282  0.5482
10372TIP3    H152607   3.442   1.202   5.466 -1.1416 -1.2093  2.0037
10372TIP3    H252608   3.568   1.246   5.538  0.8665  0.4519 -2.1807
10373TIP3   OH252609   5.563   0.757   1.801 -0.2340  0.4273  0.2487
10373TIP3    H152610   5.502   0.708   1.745 -0.2090 -1.0966  1.4862
10373TIP3    H252611   5.649   0.718   1.782  0.0732  1.2317 -0.0515
10374TIP3   OH252612   3.398   4.897   5.234  0.1692 -0.2600 -0.0016
10374TIP3    H152613   3.416   4.951   5.310  0.1962  0.3078 -0.4081
10374TIP3    H252614   3.317   4.931   5.197 -0.3844 -1.1707  0.3372
10375TIP3   OH252615   2.923   1.192   1.984  0.4026 -0.1137 -0.1800
10375TIP3    H152616   2.905   1.100   1.965  0.0352  0.1969 -1.4690
10375TIP3    H252617   2.863   1.214   2.055  0.6196 -0.9027  0.2628
10376TIP3   OH252618   3.294   6.216  16.476  0.0839 -0.0339  0.1134
10376TIP3    H152619   3.267   6.127  16.500  0.3608 -0.4693 -1.0881
10376TIP3    H252620   3.271   6.223  16.383  0.1134  1.1383  0.1840
10377TIP3   OH252621   5.079   1.929   3.883  0.0250 -0.4664  0.9903
10377TIP3    H152622   5.098   2.007   3.935 -1.2118  1.2960 -1.0060
10377TIP3    H252623   4.983   1.930   3.874  0.1196 -1.3142 -0.3815
10378TIP3   OH252624   1.027   6.289  14.153 -0.2090  0.0125 -0.1288
10378TIP3    H152625   1.086   6.231  14.200 -0.2943 -0.3722 -0.4943
10378TIP3    H252626   1.083   6.335  14.091 -0.1988  0.0715 -0.0760
10379TIP3   OH252627   0.446   2.792   2.793  0.1742 -0.5616  0.1578
10379TIP3    H152628   0.394   2.871   2.805  1.2645  0.1768  0.1811
10379TIP3    H252629   0.382   2.724   2.774 -0.8518  0.1637  0.8909
10380TIP3   OH252630   1.062   0.105  12.122 -0.1682  0.3257 -0.1011
10380TIP3    H152631   1.012   0.065  12.194  0.8885 -0.2306  0.3484
10380TIP3    H252632   1.111   0.032  12.084  1.6240  1.1058  0.5801
10381TIP3   OH252633   0.873   2.461  15.359 -0.4427  0.5246 -0.1222
10381TIP3    H152634   0.866   2.376  15.401  0.6520 -0.3556 -1.6013
10381TIP3    H252635   0.902   2.520  15.428 -2.0124 -0.0898  1.1158
10382TIP3   OH252636   3.899   5.231   5.558 -0.0594 -0.5734  0.1509
10382TIP3    H152637   3.839   5.171   5.513  0.8534  0.0635 -2.0505
10382TIP3    H252638   3.845   5.274   5.624 -0.8619 -3.4035  1.5024
10383TIP3   OH252639   6.415   5.107   6.351  0.0261  0.4758 -0.0287
10383TIP3    H152640   6.411   5.017   6.384  1.8685  0.2518 -0.2982
10383TIP3    H252641   6.325   5.138   6.354 -0.3899 -0.7673  1.7772
10384TIP3   OH252642   4.392   6.804   6.507  0.8293  0.2119  0.3195
10384TIP3    H152643   4.332   6.860   6.556  1.4408  0.5508  0.7005
10384TIP3    H252644   4.421   6.738   6.571  0.4673 -0.2622 -0.0017
10385TIP3   OH252645   5.358   1.836  12.648 -0.1627  0.1779 -0.2192
10385TIP3    H152646   5.365   1.931  12.645  1.6490  0.1152  0.5362
10385TIP3    H252647   5.303   1.819  12.724  1.4474  0.6417  1.1297
10386TIP3   OH252648   2.118   5.458   5.967 -0.6183 -0.2036 -0.4823
10386TIP3    H152649   2.080   5.519   6.030 -0.1157 -0.7661  0.3844
10386TIP3    H252650   2.210   5.484   5.961 -0.1005 -1.6372  0.8495
10387TIP3   OH252651   2.788   6.004  11.220  0.5525 -0.0030 -0.1755
10387TIP3    H152652   2.784   5.911  11.241  1.0686 -0.2768 -1.2205
10387TIP3    H252653   2.768   6.009  11.126  0.4204  0.9474 -0.1116
10388TIP3   OH252654   4.933   0.949   1.155 -0.2733  0.4972  0.3499
10388TIP3    H152655   5.002   0.996   1.109  0.3415  1.1600  1.8769
10388TIP3    H252656   4.972   0.925   1.239 -1.3050 -0.8052  0.4884
10389TIP3   OH252657   6.365   4.116  14.112  0.1684 -0.0956 -0.0598
10389TIP3    H152658   6.336   4.091  14.200  2.4482 -1.5638  0.3772
10389TIP3    H252659   6.294   4.169  14.077 -0.8060  0.5905  2.6878
10390TIP3   OH252660   2.634   6.154  11.754 -0.5165 -0.8099 -0.4484
10390TIP3    H152661   2.616   6.121  11.842  4.4715 -1.0518  0.7505
10390TIP3    H252662   2.653   6.076  11.702 -1.8291 -0.5391 -1.4133
10391TIP3   OH252663   1.890   3.477   3.671 -0.0980 -0.6317 -0.2163
10391TIP3    H152664   1.834   3.554   3.663 -2.1223 -2.1380 -1.2802
10391TIP3    H252665   1.855   3.429   3.747 -0.1322 -1.4905 -0.7605
10392TIP3   OH252666   0.435   2.273   4.610 -0.1179  0.2703  0.5871
10392TIP3    H152667   0.352   2.261   4.564  0.2612  0.2505 -0.1080
10392TIP3    H252668   0.500   2.231   4.553  0.1533 -1.1850  1.9153
10393TIP3   OH252669   4.075   2.692  12.382 -0.5130  0.1428 -0.0622
10393TIP3    H152670   4.024   2.760  12.338 -0.7974 -0.1946 -0.2565
10393TIP3    H252671   4.114   2.737  12.457  0.7964  0.9758 -1.1824
10394TIP3   OH252672   4.226   4.720   0.542  0.0774 -0.2041 -0.0608
10394TIP3    H152673   4.156   4.781   0.522  0.6937  0.6155  0.2229
10394TIP3    H252674   4.272   4.759   0.617  0.7851 -0.7603 -0.1904
10395TIP3   OH252675   1.419   6.369   5.273 -0.1294 -0.5580  0.1889
10395TIP3    H152676   1.487   6.306   5.298 -0.8071 -0.7947  1.5323
10395TIP3    H252677   1.349   6.315   5.236  0.2139 -0.3533 -0.7958
10396TIP3   OH252678   1.224   1.485   2.569 -0.2536 -0.7044 -0.3390
10396TIP3    H152679   1.227   1.409   2.510  1.2944 -1.8829  1.1655
10396TIP3    H252680   1.312   1.522   2.566  0.0177 -1.0847  1.5437
10397TIP3   OH252681   3.482   4.978   4.684 -0.2134 -0.5591  0.1400
10397TIP3    H152682   3.427   5.055   4.699 -0.8256 -1.0040  0.2243
10397TIP3    H252683   3.540   5.004   4.612  0.8702  0.6312  1.3835
10398TIP3   OH252684   5.106   6.125   0.703  0.0789 -0.4899  0.2766
10398TIP3    H152685   5.173   6.073   0.748  0.4940 -0.5199 -0.3737
10398TIP3    H252686   5.039   6.060   0.678  1.0939 -0.9182 -1.4766
10399TIP3   OH252687   2.462   0.298  10.657 -0.2367 -0.2662 -0.2370
10399TIP3    H152688   2.401   0.285  10.730  0.8261  0.7371  0.8784
10399TIP3    H252689   2.542   0.255  10.685  0.3362  0.5480 -0.6031
10400TIP3   OH252690   6.523   6.147  11.832 -0.6007  0.0957  0.0111
10400TIP3    H152691   6.506   6.228  11.881 -0.3258  0.6803 -0.8369
10400TIP3    H252692   6.586   6.172  11.765  1.4843 -1.4033  1.2958
10401TIP3   OH252693   3.609   5.238  15.165  0.9491  0.0610 -0.1061
10401TIP3    H152694   3.532   5.260  15.217 -0.2476 -1.2828 -1.2381
10401TIP3    H252695   3.583   5.255  15.074  2.6555  1.4058 -0.3956
10402TIP3   OH252696   1.603   0.200   4.122  0.1265 -0.2364  0.1648
10402TIP3    H152697   1.537   0.241   4.065  1.0312 -1.3662 -1.8228
10402TIP3    H252698   1.592   0.106   4.107  1.8463 -0.4705  0.1323
10403TIP3   OH252699   6.563   6.336   2.473  0.5527  0.6141 -0.0994
10403TIP3    H152700   6.548   6.256   2.523  0.2648  0.9903  0.4239
10403TIP3    H252701   6.480   6.383   2.478  0.7221  0.9497 -0.4056
10404TIP3   OH252702   1.720   2.720   3.975  0.7606  0.0090 -0.3366
10404TIP3    H152703   1.662   2.789   3.943  0.5422 -0.1048 -0.1863
10404TIP3    H252704   1.665   2.665   4.030  0.8598 -0.4655 -0.6989
10405TIP3   OH252705   6.298   2.553  12.944  0.3386  0.5539 -0.2216
10405TIP3    H152706   6.349   2.477  12.915  1.3180  0.6318  1.1999
10405TIP3    H252707   6.361   2.625  12.945  0.0347  0.8151  0.8850
10406TIP3   OH252708   1.368   3.405  11.732 -0.3364 -0.5251 -0.3541
10406TIP3    H152709   1.459   3.379  11.716  1.5701  4.7850 -0.2031
10406TIP3    H252710   1.341   3.447  11.650 -0.7934  2.0579  1.0077
10407TIP3   OH252711   5.007   2.511   3.704 -0.4246  0.3488  0.3574
10407TIP3    H152712   4.996   2.478   3.793 -0.2261 -0.7310 -0.0061
10407TIP3    H252713   5.091   2.475   3.676 -0.0892  1.3599  0.0196
10408TIP3   OH252714   3.347   3.521  16.888  0.0769 -0.1560 -0.1809
10408TIP3    H152715   3.292   3.521  16.809  0.1628 -1.1663 -0.2427
10408TIP3    H252716   3.434   3.546  16.856 -0.0195  0.0282 -0.3042
10409TIP3   OH252717   6.120   0.328  15.275  0.1709 -0.1302 -0.4562
10409TIP3    H152718   6.054   0.395  15.255  0.7622  0.6883  0.2712
10409TIP3    H252719   6.071   0.257  15.314 -0.4612 -0.1004 -1.1642
10410TIP3   OH252720   6.419   6.292   1.507  0.0984  0.0630  0.1557
10410TIP3    H152721   6.408   6.214   1.452  0.0110  0.4581 -0.3970
10410TIP3    H252722   6.330   6.321   1.526  0.1295  0.7793 -0.7342
10411TIP3   OH252723   2.796   3.488  17.186  0.7941 -0.4786  0.4896
10411TIP3    H152724   2.726   3.424  17.198 -0.6107  1.0493  0.6495
10411TIP3    H252725   2.792   3.543  17.264 -2.2544  3.7057 -2.2274
10412TIP3   OH252726   1.181   6.795   1.093  0.8758  0.4001 -0.2386
10412TIP3    H152727   1.150   6.760   1.010 -0.7161 -1.6902  1.1157
10412TIP3    H252728   1.136   6.879   1.103 -1.3689 -0.7353 -0.1680
10413TIP3   OH252729   4.424   5.858   1.066  0.1594 -0.2743  0.4702
10413TIP3    H152730   4.390   5.859   1.156 -1.3446  0.7739 -0.0760
10413TIP3    H252731   4.484   5.932   1.062 -1.9916  1.5334 -0.1435
10414TIP3   OH252732   1.571   4.509   5.267 -0.6101 -0.0038  0.1869
10414TIP3    H152733   1.476   4.503   5.262 -0.6272  0.7300 -0.7933
10414TIP3    H252734   1.589   4.602   5.285 -0.0661  0.3611 -1.8938
10415TIP3   OH252735   5.397   6.693  16.338 -0.6257  0.9165  0.2556
10415TIP3    H152736   5.490   6.693  16.316 -0.0211 -1.1283  2.4285
10415TIP3    H252737   5.394   6.711  16.431 -2.2374 -0.8040  0.6051
10416TIP3   OH252738   5.269   0.009  11.016 -0.2309 -0.5505  0.7030
10416TIP3    H152739   5.228  -0.048  10.952  0.8454 -0.6147  0.0619
10416TIP3    H252740   5.241   0.097  10.991  0.3460 -0.5571  0.0134
10417TIP3   OH252741   4.780   0.074  12.049  0.2988  0.4606 -0.2913
10417TIP3    H152742   4.819   0.074  12.137  0.0645  0.6643 -0.1850
10417TIP3    H252743   4.721  -0.001  12.049 -0.8596  1.3487  0.2538
10418TIP3   OH252744   2.646   3.895   1.964 -0.7059 -1.0381  0.5535
10418TIP3    H152745   2.721   3.838   1.947 -0.1838 -0.4354  0.7473
10418TIP3    H252746   2.574   3.856   1.916  0.0434 -0.9469 -0.6972
10419TIP3   OH252747   0.513   5.732   5.317  0.0780 -0.3754 -0.3049
10419TIP3    H152748   0.570   5.798   5.356 -0.1033 -0.9291  0.9684
10419TIP3    H252749   0.467   5.693   5.392 -0.8674 -0.9611 -1.1646
10420TIP3   OH252750   6.670   1.314   3.858  0.1509 -0.2176 -0.7420
10420TIP3    H152751   6.647   1.223   3.879  0.6283 -0.0886  0.4477
10420TIP3    H252752   6.588   1.362   3.863  0.1653 -0.2788  0.4980
10421TIP3   OH252753   0.806   0.705   1.095 -0.6430 -0.0751  0.4645
10421TIP3    H152754   0.730   0.653   1.070  0.4215 -1.8044  0.6847
10421TIP3    H252755   0.824   0.679   1.185 -0.1834  0.8406  0.6490
10422TIP3   OH252756   6.548   1.498  11.239 -0.2670  0.2254  0.1991
10422TIP3    H152757   6.602   1.575  11.220  0.8851 -0.8631 -1.1843
10422TIP3    H252758   6.469   1.510  11.187 -0.1612  0.5503  0.1095
10423TIP3   OH252759   4.772   6.031   2.368  0.0175 -0.2388 -0.3356
10423TIP3    H152760   4.705   5.971   2.334 -0.3611  0.5623 -1.0618
10423TIP3    H252761   4.729   6.117   2.367  0.3849 -0.0074  1.1292
10424TIP3   OH252762   6.494   6.384  11.960 -0.1673 -0.3872 -0.2178
10424TIP3    H152763   6.518   6.477  11.964  0.2455 -0.5229  0.8752
10424TIP3    H252764   6.571   6.338  11.991  0.1562 -1.2152 -2.1332
10425TIP3   OH252765   0.711   5.781   2.062 -0.7793 -0.7397  0.6337
10425TIP3    H152766   0.684   5.692   2.083 -2.3539 -0.5715 -0.5134
10425TIP3    H252767   0.629   5.832   2.064 -0.2084  0.2887 -0.6380
10426TIP3   OH252768   3.521   1.798   4.188  0.6064 -0.0989  0.1542
10426TIP3    H152769   3.477   1.756   4.114 -1.5415  2.1660  0.0154
10426TIP3    H252770   3.461   1.786   4.261  0.9115  0.9274  0.5936
10427TIP3   OH252771   3.602   5.634  17.158  0.3873 -0.4960  0.7433
10427TIP3    H152772   3.617   5.729  17.157  0.1777 -0.4399 -1.2805
10427TIP3    H252773   3.604   5.609  17.066 -0.7659 -2.2809  1.1673
10428TIP3   OH252774   2.954   6.508  16.174  0.1297 -0.2125 -0.3050
10428TIP3    H152775   2.860   6.491  16.182  0.1862 -0.8956 -1.0725
10428TIP3    H252776   2.989   6.432  16.129  1.0504  0.0648 -0.0804
10429TIP3   OH252777   3.717   4.312  12.657  0.3888  0.1396  0.4285
10429TIP3    H152778   3.803   4.334  12.621 -0.9810  1.5745 -2.2657
10429TIP3    H252779   3.695   4.227  12.617 -0.5194  1.0528 -1.1233
10430TIP3   OH252780   6.011   4.780  12.735  0.6941  0.1201 -0.0104
10430TIP3    H152781   5.962   4.785  12.818  0.3011 -2.4288 -0.0221
10430TIP3    H252782   5.989   4.694  12.700  1.6958  0.7407 -2.2779
10431TIP3   OH252783   3.019   5.724   5.432 -0.3911  0.1393 -0.0977
10431TIP3    H152784   2.990   5.736   5.522  0.0460  0.1203  0.0472
10431TIP3    H252785   3.071   5.802   5.413 -1.9571  1.0481 -0.9479
10432TIP3   OH252786   0.448   5.625  11.690  0.6062  0.4602  0.3387
10432TIP3    H152787   0.403   5.709  11.702 -0.4290 -0.1281  0.5803
10432TIP3    H252788   0.400   5.581  11.620  0.3183 -0.5082  1.1361
10433TIP3   OH252789   0.258   5.247   5.429 -0.3228  0.3750 -0.1333
10433TIP3    H152790   0.241   5.153   5.435  0.2216  0.3029  0.2735
10433TIP3    H252791   0.253   5.279   5.519 -1.2586  0.8807 -0.3382
10434TIP3   OH252792   1.303   4.739   3.380 -0.0923  0.1931 -0.1817
10434TIP3    H152793   1.252   4.678   3.327 -1.1181 -0.1026  1.0919
10434TIP3    H252794   1.295   4.706   3.469  1.9811  0.4063  0.1307
10435TIP3   OH252795   6.165   0.812   0.833  0.3073  0.1479 -0.6164
10435TIP3    H152796   6.082   0.848   0.865  0.4936 -1.3249  1.8164
10435TIP3    H252797   6.231   0.873   0.864  0.3126 -0.0160 -0.3029
10436TIP3   OH252798   0.759   3.483   1.297 -0.1178 -0.6933  0.6368
10436TIP3    H152799   0.749   3.560   1.352 -0.1757 -0.5578  0.4392
10436TIP3    H252800   0.812   3.513   1.223 -0.7956 -0.6401  0.1636
10437TIP3   OH252801   1.113   0.815  13.153  0.0001  0.5356  0.8911
10437TIP3    H152802   1.196   0.777  13.124 -0.0388  0.4707  0.8640
10437TIP3    H252803   1.091   0.879  13.086 -0.4633 -0.1383  0.3885
10438TIP3   OH252804   6.657   6.479  14.470  0.1569  0.0533  0.0137
10438TIP3    H152805   6.668   6.384  14.459 -2.0993 -0.2363 -0.1231
10438TIP3    H252806   6.685   6.515  14.386  0.5021 -0.5309 -0.1355
10439TIP3   OH252807   0.628   4.793  16.599  0.0258 -0.2419 -0.1043
10439TIP3    H152808   0.535   4.811  16.604  0.2698  0.9861  0.2775
10439TIP3    H252809   0.634   4.697  16.596 -1.2331 -0.3313 -0.1804
10440TIP3   OH252810   4.820   5.510  10.886  0.2557  0.7595 -0.2142
10440TIP3    H152811   4.799   5.559  10.807  0.1758 -0.2182 -0.8064
10440TIP3    H252812   4.771   5.428  10.878 -1.6653  1.5917  1.9643
10441TIP3   OH252813   2.101   1.098   1.102 -0.0357  0.3232 -1.1552
10441TIP3    H152814   2.191   1.068   1.115 -0.1406  0.4406 -0.0375
10441TIP3    H252815   2.057   1.024   1.060  0.1828 -0.3740 -0.1970
10442TIP3   OH252816   0.679   0.505  15.780 -0.0863 -0.2714 -0.8912
10442TIP3    H152817   0.644   0.505  15.691  1.1974  1.8006 -1.4620
10442TIP3    H252818   0.773   0.494  15.769  0.2448  1.2261  0.0856
10443TIP3   OH252819   2.800   3.632  16.917 -0.1528 -0.3848 -0.6734
10443TIP3    H152820   2.807   3.557  16.975 -0.3790  0.3188  0.2981
10443TIP3    H252821   2.720   3.677  16.946  2.0871  2.5058  1.5704
10444TIP3   OH252822   6.502   5.023   4.240  0.4180  0.4264 -0.0735
10444TIP3    H152823   6.408   5.020   4.257  0.4025 -0.2882 -0.2588
10444TIP3    H252824   6.510   5.078   4.162  0.2055  0.8976  0.2276
10445TIP3   OH252825   2.081   0.050   0.722 -0.2295 -0.2271 -0.0228
10445TIP3    H152826   2.161   0.081   0.765 -0.6038 -0.6623  1.0234
10445TIP3    H252827   2.030   0.130   0.706 -0.2162 -0.0831  0.6393
10446TIP3   OH252828   1.407   5.264  11.433  0.2169 -0.0021  0.4737
10446TIP3    H152829   1.457   5.343  11.412 -0.6057  0.2264 -0.7470
10446TIP3    H252830   1.413   5.256  11.529 -0.9364  2.4144  0.8113
10447TIP3   OH252831   2.175   6.554  10.662  0.3254 -0.4780 -0.2911
10447TIP3    H152832   2.235   6.600  10.603  0.0176  0.6992  0.2668
10447TIP3    H252833   2.228   6.535  10.739 -0.1324  1.1731  0.4863
10448TIP3   OH252834   0.374   5.730   4.594  0.0799 -0.2716  0.0275
10448TIP3    H152835   0.283   5.739   4.621 -0.0657 -0.5229 -0.3712
10448TIP3    H252836   0.374   5.754   4.502  0.2363 -1.2146 -0.2362
10449TIP3   OH252837   3.571   3.874  16.958  0.2211  0.5010  0.9516
10449TIP3    H152838   3.502   3.932  16.925 -0.5721  0.0138  1.6961
10449TIP3    H252839   3.565   3.796  16.904  0.2686  0.5095  0.9350
10450TIP3   OH252840   1.969   3.761   2.677 -0.7953 -0.3113  0.3585
10450TIP3    H152841   1.991   3.770   2.770 -1.5514 -0.3659  0.5451
10450TIP3    H252842   1.891   3.706   2.676 -0.7534 -0.3624 -0.3169
10451TIP3   OH252843   5.471   1.472  16.386  0.1175 -0.1754  0.5667
10451TIP3    H152844   5.480   1.471  16.481 -0.4519 -0.2886  0.6242
10451TIP3    H252845   5.404   1.539  16.370  0.5604  0.1938  0.2113
10452TIP3   OH252846   2.706   0.754  16.743 -0.3247 -0.2382 -0.2965
10452TIP3    H152847   2.790   0.712  16.725 -0.5630 -0.8117 -0.0869
10452TIP3    H252848   2.686   0.803  16.664 -0.6309 -1.4978 -1.0140
10453TIP3   OH252849   0.904   2.972  16.834 -0.2880 -0.8428  0.1249
10453TIP3    H152850   0.847   2.949  16.907 -2.4626  1.1171 -0.8500
10453TIP3    H252851   0.935   3.061  16.855  1.4713 -1.3803  0.0124
10454TIP3   OH252852   4.075   1.200  12.691  0.8891 -0.0092  0.0441
10454TIP3    H152853   4.128   1.146  12.633  0.3081 -1.2765  0.6701
10454TIP3    H252854   4.093   1.290  12.663  1.2424 -0.5504 -1.5440
10455TIP3   OH252855   0.792   2.823   3.828  0.1252  0.2728  0.3158
10455TIP3    H152856   0.811   2.763   3.756  1.9301 -0.8471  1.6498
10455TIP3    H252857   0.700   2.806   3.849  0.0837 -0.6832 -0.5441
10456TIP3   OH252858   5.780   0.780  13.854  0.0674 -0.1307  0.1426
10456TIP3    H152859   5.735   0.829  13.785  0.7527  0.3195  0.0099
10456TIP3    H252860   5.838   0.844  13.896 -0.6205 -0.2925  1.4054
10457TIP3   OH252861   6.344   4.309   1.876  0.0534 -0.7484 -0.6902
10457TIP3    H152862   6.283   4.295   1.803 -1.4255 -2.5747  0.7840
10457TIP3    H252863   6.291   4.293   1.954  0.9489  3.3762  1.0015
10458TIP3   OH252864   4.962   2.255  13.995 -0.6168  0.0913 -0.7387
10458TIP3    H152865   4.868   2.274  14.001 -1.0275 -1.5757 -1.5103
10458TIP3    H252866   4.969   2.190  13.926  1.1969  0.5994 -1.0776
10459TIP3   OH252867   3.641   2.250  13.753  0.3308  0.3990  0.6212
10459TIP3    H152868   3.644   2.157  13.729  3.2637  0.6552 -0.4992
10459TIP3    H252869   3.576   2.288  13.694  1.1513 -0.5113 -0.9461
10460TIP3   OH252870   0.217   1.111  13.703  0.1651 -0.1222 -0.2621
10460TIP3    H152871   0.305   1.110  13.742  1.2463 -0.0495 -2.5481
10460TIP3    H252872   0.197   1.018  13.690  0.4065 -0.0994 -0.7998
10461TIP3   OH252873   0.923   4.968   4.009  0.6809  0.4031  0.2062
10461TIP3    H152874   0.889   4.922   4.086 -1.8914  0.9020 -0.5205
10461TIP3    H252875   0.951   5.053   4.042 -2.9213  1.6981  0.3631
10462TIP3   OH252876   2.349   4.161   2.743  0.1827 -0.0557  0.1301
10462TIP3    H152877   2.400   4.162   2.824  1.6609  2.5543 -0.7309
10462TIP3    H252878   2.396   4.101   2.685  1.6897  1.4571 -0.2641
10463TIP3   OH252879   5.526   1.376   0.441  0.2098 -0.4914  0.7563
10463TIP3    H152880   5.541   1.390   0.534  1.3733  1.6038  0.3362
10463TIP3    H252881   5.559   1.288   0.423  0.4288 -0.7180  2.2062
10464TIP3   OH252882   5.934   5.978  12.173 -0.0755 -0.4801 -0.0912
10464TIP3    H152883   5.984   6.059  12.168  0.0109 -0.2944  2.2995
10464TIP3    H252884   6.000   5.910  12.190 -0.2848 -0.8153 -0.5970
10465TIP3   OH252885   6.292   3.193  12.648 -0.0910  0.0053  0.2682
10465TIP3    H152886   6.345   3.125  12.606  0.4221  0.2063  0.5817
10465TIP3    H252887   6.231   3.221  12.580 -1.2690 -1.7433  0.5259
10466TIP3   OH252888   1.467   2.243   0.257  0.3104  0.5580  0.3365
10466TIP3    H152889   1.520   2.165   0.273 -0.0311  0.4215  0.8749
10466TIP3    H252890   1.377   2.213   0.271  0.1710  1.0328  0.4842
10467TIP3   OH252891   5.567   5.334  12.114  0.9762  0.0936  0.6562
10467TIP3    H152892   5.600   5.324  12.024 -1.2842  0.1067 -0.2428
10467TIP3    H252893   5.631   5.391  12.157  1.6426  0.8603 -1.2398
10468TIP3   OH252894   3.185   3.723  13.900 -0.0156 -0.0456 -0.0694
10468TIP3    H152895   3.113   3.718  13.963 -1.9565  3.4599 -1.6569
10468TIP3    H252896   3.156   3.670  13.826  0.5010 -1.0775  0.4476
10469TIP3   OH252897   3.642   4.348  17.054 -0.6004 -0.3505  0.5085
10469TIP3    H152898   3.668   4.391  17.135  1.0632 -2.6902  1.3326
10469TIP3    H252899   3.548   4.364  17.047 -0.5003  1.2033  2.0381
10470TIP3   OH252900   4.479   3.793  11.257 -0.0949  0.7118 -0.2619
10470TIP3    H152901   4.439   3.741  11.188  1.0963  1.0515 -1.2505
10470TIP3    H252902   4.554   3.742  11.287 -0.0871  0.9633  0.1689
10471TIP3   OH252903   3.804   0.790  12.566 -0.2348 -0.4976 -0.3147
10471TIP3    H152904   3.892   0.823  12.583 -0.8769  0.6377  0.9621
10471TIP3    H252905   3.784   0.735  12.643 -1.6079  1.3695  0.7281
10472TIP3   OH252906   0.622   0.183   6.624 -0.2415  0.3968  0.4494
10472TIP3    H152907   0.574   0.225   6.695 -0.0327  0.0021  0.8261
10472TIP3    H252908   0.617   0.089   6.643 -2.2706  0.0404 -1.3357
10473TIP3   OH252909   6.328   6.482   2.504 -0.2596  0.4972  0.2544
10473TIP3    H152910   6.239   6.477   2.470 -0.7330 -0.0787  1.5439
10473TIP3    H252911   6.372   6.544   2.446 -1.4825  0.7559 -0.4214
10474TIP3   OH252912   5.440   5.978   3.911  0.1158 -0.0007  0.5754
10474TIP3    H152913   5.387   5.990   3.989 -0.8798 -0.8702  0.0519
10474TIP3    H252914   5.435   5.884   3.892  1.1930  0.0326  0.0605
10475TIP3   OH252915   3.412   1.338   2.288 -0.5846  0.3963 -0.0318
10475TIP3    H152916   3.327   1.316   2.249  0.5618  1.2137 -3.3478
10475TIP3    H252917   3.436   1.422   2.247  1.1299  0.9925  2.0348
10476TIP3   OH252918   1.930   6.844  12.537  0.2826 -0.2752  0.5409
10476TIP3    H152919   1.864   6.913  12.521  1.2137  0.5983  0.3619
10476TIP3    H252920   2.007   6.891  12.568  0.6114 -1.3572  1.4093
10477TIP3   OH252921   4.338   5.678  11.989 -0.1617  0.2039  0.4157
10477TIP3    H152922   4.400   5.660  11.918  0.9637  2.6819  0.6730
10477TIP3    H252923   4.267   5.614  11.975  0.9649 -0.6922 -1.7269
10478TIP3   OH252924   0.633   3.023  11.674  0.1142 -0.0517  0.1080
10478TIP3    H152925   0.566   3.048  11.738  1.0206  1.6707  0.4521
10478TIP3    H252926   0.684   2.955  11.717 -1.3053 -1.2758 -0.1054
10479TIP3   OH252927   1.395   0.541  12.701 -0.2467 -0.5454 -0.2805
10479TIP3    H152928   1.486   0.513  12.695  0.0583  0.3663 -0.0002
10479TIP3    H252929   1.383   0.601  12.627  0.1278  1.3264  1.1026
10480TIP3   OH252930   1.747   3.629  14.171  0.0160 -0.2440 -0.0429
10480TIP3    H152931   1.801   3.550  14.165 -0.3239 -0.4055 -1.2609
10480TIP3    H252932   1.666   3.606  14.126  0.0525  0.9136 -0.7409
10481TIP3   OH252933   1.397   4.897  12.669 -0.1233  0.5359 -0.0896
10481TIP3    H152934   1.319   4.952  12.681 -1.0706 -0.5242 -1.1135
10481TIP3    H252935   1.373   4.813  12.708  0.6432  0.3015 -0.1112
10482TIP3   OH252936   5.561   1.355   5.598  0.2383  0.0295  0.1001
10482TIP3    H152937   5.512   1.426   5.558 -0.5517 -0.3746  0.3250
10482TIP3    H252938   5.550   1.281   5.538  0.1609 -0.1996  0.3921
10483TIP3   OH252939   0.833   3.537   2.940 -0.2156 -0.1138  0.1593
10483TIP3    H152940   0.846   3.501   3.028  1.3765 -0.4912 -0.1970
10483TIP3    H252941   0.743   3.512   2.917 -0.1259 -1.3851  1.0658
10484TIP3   OH252942   4.962   6.387  12.751  0.2370  0.7198 -0.2639
10484TIP3    H152943   4.974   6.318  12.686 -0.6414 -0.4753  0.7987
10484TIP3    H252944   5.009   6.357  12.828 -1.2706  0.6174  0.6663
10485TIP3   OH252945   4.731   1.238   4.162  0.3146  0.3710  0.0689
10485TIP3    H152946   4.824   1.239   4.185  0.4454 -2.3899 -0.0019
10485TIP3    H252947   4.729   1.210   4.071 -0.5862  0.0848  0.1668
10486TIP3   OH252948   4.882   1.562  13.662 -0.0328 -0.7818 -0.0797
10486TIP3    H152949   4.788   1.558  13.680 -0.1603 -0.6204 -0.6844
10486TIP3    H252950   4.922   1.574  13.748 -0.6577  0.4975  0.0584
10487TIP3   OH252951   3.434   6.491  14.931 -0.0794  0.8270 -0.5232
10487TIP3    H152952   3.506   6.552  14.922  0.3442  0.3945 -0.1232
10487TIP3    H252953   3.456   6.439  15.008 -0.7785  0.6389 -0.4435
10488TIP3   OH252954   4.201   6.616   4.957  0.6785  0.2427  0.0195
10488TIP3    H152955   4.289   6.652   4.957  0.6857  0.2334 -0.6641
10488TIP3    H252956   4.150   6.676   4.902  0.5584 -0.4603 -0.6509
10489TIP3   OH252957   5.127   0.110  11.894 -0.1985  0.2078 -0.1856
10489TIP3    H152958   5.122   0.175  11.824 -0.7583  0.0497 -0.3015
10489TIP3    H252959   5.064   0.140  11.959 -0.8250 -0.4642 -0.4603
10490TIP3   OH252960   1.803   5.614  13.202  0.6817  0.3585 -0.0741
10490TIP3    H152961   1.726   5.611  13.145  0.6503 -1.1218  0.0217
10490TIP3    H252962   1.766   5.633  13.289  0.4103 -0.3391 -0.0289
10491TIP3   OH252963   2.125   2.139  12.405 -0.2913  0.0186  0.1395
10491TIP3    H152964   2.213   2.175  12.414  0.3003 -1.1876 -0.5173
10491TIP3    H252965   2.069   2.196  12.458  1.2309 -0.5053  2.4418
10492TIP3   OH252966   5.670   0.811  14.470  0.3416  0.5014  0.3143
10492TIP3    H152967   5.612   0.887  14.469  0.2409  0.4418  0.9731
10492TIP3    H252968   5.665   0.775  14.382 -0.2585  0.7744  0.2323
10493TIP3   OH252969   5.755   2.191   2.440  0.6769 -0.3402 -0.1692
10493TIP3    H152970   5.679   2.136   2.418  0.1788 -0.5211  1.8359
10493TIP3    H252971   5.747   2.266   2.381  1.7757 -2.6181 -3.5140
10494TIP3   OH252972   4.814   1.736  16.184  0.2325  0.2382 -0.5279
10494TIP3    H152973   4.882   1.680  16.148  0.0484 -0.4492  0.1632
10494TIP3    H252974   4.802   1.704  16.274 -0.9304  0.3982 -0.6126
10495TIP3   OH252975   3.772   6.328  14.938 -0.0566  0.2005  0.0299
10495TIP3    H152976   3.782   6.374  14.854  1.0872 -1.0992 -0.5800
10495TIP3    H252977   3.786   6.236  14.916 -1.0771 -0.3217  1.4384
10496TIP3   OH252978   0.661   3.661   5.989  0.3515 -0.1293 -0.6786
10496TIP3    H152979   0.734   3.719   6.011  1.5493 -2.2559  1.4560
10496TIP3    H252980   0.594   3.683   6.054 -0.0661  0.2899 -1.2369
10497TIP3   OH252981   5.947   0.451  14.765 -0.1572  0.3928 -0.0039
10497TIP3    H152982   5.940   0.510  14.690  2.1075 -0.7239 -1.2092
10497TIP3    H252983   5.882   0.484  14.827 -2.0176  1.4744 -2.3397
10498TIP3   OH252984   3.204   0.504   5.668 -0.2404 -0.6382 -0.3881
10498TIP3    H152985   3.159   0.587   5.678 -0.0096 -0.3998 -1.2427
10498TIP3    H252986   3.172   0.450   5.740 -1.9555 -0.4949 -0.9903
10499TIP3   OH252987   0.430   6.473  13.728  0.6903 -0.2076 -0.0461
10499TIP3    H152988   0.436   6.388  13.771  0.5044 -0.0949  0.2008
10499TIP3    H252989   0.463   6.536  13.792  0.6312 -0.0689 -0.1501
10500TIP3   OH252990   0.560   2.657  16.896  0.3379 -0.0346 -0.3972
10500TIP3    H152991   0.607   2.611  16.966 -0.8086 -1.6314 -0.6138
10500TIP3    H252992   0.468   2.640  16.914 -0.0031 -0.1010 -2.0484
10501TIP3   OH252993   0.856   0.262  14.206 -0.0361  0.4187  0.2033
10501TIP3    H152994   0.859   0.357  14.222 -1.9894  0.8180 -1.3937
10501TIP3    H252995   0.919   0.248  14.135  0.9789  0.3159  1.0905
10502TIP3   OH252996   3.879   4.079  10.993  0.4020  0.1787  0.3913
10502TIP3    H152997   3.804   4.127  10.957 -0.4277 -0.4951  1.1837
10502TIP3    H252998   3.899   4.014  10.926 -0.7143 -0.6354  0.8135
10503TIP3   OH252999   0.233   0.410   5.489 -0.1766  0.4229 -0.3586
10503TIP3    H153000   0.196   0.453   5.412  2.3400  1.5337 -1.0409
10503TIP3    H253001   0.231   0.316   5.467 -1.9359  0.4833 -0.5967
10504TIP3   OH253002   3.129   5.138   0.601 -0.7251  0.2509 -0.1399
10504TIP3    H153003   3.137   5.162   0.694 -0.4933  1.3117 -0.4164
10504TIP3    H253004   3.125   5.043   0.601  0.1369  0.1941  0.9076
10505TIP3   OH253005   5.269   5.425   4.105  0.3672  0.2242  0.4385
10505TIP3    H153006   5.263   5.407   4.011  0.3925  0.3176  0.4189
10505TIP3    H253007   5.215   5.357   4.146 -1.7302  1.6473  0.2089
10506TIP3   OH253008   3.976   0.704   1.733 -0.3663  0.1475 -0.0915
10506TIP3    H153009   4.020   0.698   1.817 -0.5972 -1.4171 -0.0501
10506TIP3    H253010   4.039   0.747   1.676  1.1705 -1.7822  0.0412
10507TIP3   OH253011   0.865   3.487  12.395  0.0338  0.3358  0.2386
10507TIP3    H153012   0.885   3.572  12.433 -0.5471  0.9744 -0.8444
10507TIP3    H253013   0.890   3.424  12.463 -0.0239  1.3845  1.2619
10508TIP3   OH253014   4.450   3.565   1.768 -0.6469 -0.1307 -0.2760
10508TIP3    H153015   4.429   3.510   1.844  1.5432 -0.0095  0.4679
10508TIP3    H253016   4.402   3.524   1.696 -0.0248 -2.3363  0.4877
10509TIP3   OH253017   2.669   3.476   6.202  0.1607 -0.2782 -0.0199
10509TIP3    H153018   2.621   3.424   6.267  1.0607  0.6267  1.4120
10509TIP3    H253019   2.606   3.544   6.176  0.0203 -0.2310  0.4267
10510TIP3   OH253020   1.914   0.034  11.945  0.3467 -0.3703  0.0519
10510TIP3    H153021   1.938  -0.057  11.927  1.4880 -0.1047  0.1816
10510TIP3    H253022   1.959   0.055  12.027  0.8028  0.5744 -0.4296
10511TIP3   OH253023   4.735   0.230  15.251 -0.3695 -0.1600  0.2491
10511TIP3    H153024   4.735   0.225  15.156 -0.4384 -3.0625  0.3144
10511TIP3    H253025   4.811   0.283  15.273  0.3810 -0.5177 -1.3900
10512TIP3   OH253026   3.491   2.044  14.000 -0.2363 -0.2232 -0.7136
10512TIP3    H153027   3.532   1.982  13.939  0.3694 -0.2653 -0.2664
10512TIP3    H253028   3.536   2.031  14.083  0.1170  1.0266 -0.6799
10513TIP3   OH253029   4.787   1.382   1.238  0.2236 -0.3215  0.6268
10513TIP3    H153030   4.811   1.473   1.221 -1.2559 -0.1037 -0.4499
10513TIP3    H253031   4.693   1.384   1.254 -0.0947 -1.8252 -0.8040
10514TIP3   OH253032   0.372   2.291   2.824  0.0114  0.1190 -0.2615
10514TIP3    H153033   0.374   2.385   2.812 -1.7042  0.0344 -1.5759
10514TIP3    H253034   0.309   2.277   2.896  0.9952 -0.0043  0.6016
10515TIP3   OH253035   1.113   2.222   5.736  0.1736  0.1211  0.4004
10515TIP3    H153036   1.059   2.163   5.683 -0.5403 -0.8240  2.1274
10515TIP3    H253037   1.201   2.183   5.731  0.0026 -0.2679  0.3449
10516TIP3   OH253038   1.079   1.036   3.893  0.4405  0.2759 -0.5743
10516TIP3    H153039   1.066   1.108   3.955  1.2782  1.4055 -1.6713
10516TIP3    H253040   1.155   1.062   3.841  1.6307 -2.0479 -0.1201
10517TIP3   OH253041   3.816   3.665  13.363  1.0797  0.4723 -0.3174
10517TIP3    H153042   3.783   3.739  13.414  2.3062  0.9270 -0.1649
10517TIP3    H253043   3.812   3.591  13.423 -0.9274  0.1924 -0.7165
10518TIP3   OH253044   2.702   5.079  13.889 -0.1467 -0.5024 -0.5002
10518TIP3    H153045   2.623   5.129  13.868 -1.2235 -0.9358  2.2040
10518TIP3    H253046   2.678   5.025  13.964  2.4684 -1.3546 -0.1657
10519TIP3   OH253047   2.615   2.267   3.998  0.8082  0.0121  0.3329
10519TIP3    H153048   2.586   2.214   4.073  1.7679  1.8420  2.1022
10519TIP3    H253049   2.710   2.262   4.001  0.9650  2.3250  1.0054
10520TIP3   OH253050   5.285   4.113  11.337 -0.3191  0.6375  0.8225
10520TIP3    H153051   5.250   4.201  11.349  1.8587  1.9339 -1.3474
10520TIP3    H253052   5.247   4.083  11.254 -1.6950 -0.8911  1.9416
10521TIP3   OH253053   6.500   4.464  16.822 -0.1060 -0.4269 -0.0213
10521TIP3    H153054   6.474   4.373  16.836 -0.2593 -0.5873 -1.2933
10521TIP3    H253055   6.426   4.515  16.855 -1.2772 -0.8437 -1.8831
10522TIP3   OH253056   0.213   1.667   3.873 -0.0912 -0.3459  0.2254
10522TIP3    H153057   0.280   1.608   3.908  0.8041  0.7672  0.4472
10522TIP3    H253058   0.221   1.659   3.778  0.9713  0.4219  0.2358
10523TIP3   OH253059   0.469   5.792  13.796  0.1134  0.0308 -0.3621
10523TIP3    H153060   0.399   5.855  13.811 -0.9549 -1.4950  1.4295
10523TIP3    H253061   0.550   5.843  13.806 -0.7025  0.9672  1.9609
10524TIP3   OH253062   0.211   1.692  11.777  0.2189 -0.0046  0.3076
10524TIP3    H153063   0.275   1.721  11.713  0.8340  0.9518  1.3123
10524TIP3    H253064   0.126   1.712  11.737  0.6005  0.9320 -0.0570
10525TIP3   OH253065   2.871   1.170  11.375  0.5234 -0.0493  0.2523
10525TIP3    H153066   2.881   1.263  11.358 -0.4206 -0.2946 -1.9976
10525TIP3    H253067   2.944   1.147  11.432  1.5185  1.8009 -0.2376
10526TIP3   OH253068   3.771   6.140  16.727 -0.3864  0.4113 -0.0182
10526TIP3    H153069   3.767   6.234  16.746  0.6944  0.2919  0.9303
10526TIP3    H253070   3.682   6.116  16.703 -0.7061  1.6501 -0.1389
10527TIP3   OH253071   1.204   6.435  14.395  0.6133 -0.3447  0.1014
10527TIP3    H153072   1.208   6.341  14.411  1.3270 -0.7680 -2.1783
10527TIP3    H253073   1.122   6.447  14.346  1.0764  0.0302 -0.5989
10528TIP3   OH253074   0.551   6.054   5.173  0.4004 -0.3592 -0.0686
10528TIP3    H153075   0.634   6.101   5.171  0.4389 -0.3928  0.5907
10528TIP3    H253076   0.575   5.962   5.157  0.4735 -0.3492 -0.0157
10529TIP3   OH253077   0.392   4.940  12.623 -0.2942  0.0640 -0.1902
10529TIP3    H153078   0.421   4.959  12.534  1.3461 -0.2724  0.2380
10529TIP3    H253079   0.300   4.917  12.614 -0.5125  1.3772 -1.6046
10530TIP3   OH253080   5.145   6.844   2.935  0.5173 -0.5354  0.0388
10530TIP3    H153081   5.169   6.806   3.019 -0.7601 -0.6858  0.3656
10530TIP3    H253082   5.098   6.775   2.889  0.7146 -0.2747 -0.5681
10531TIP3   OH253083   6.409   6.375  14.808  0.3553  0.0540 -0.8056
10531TIP3    H153084   6.446   6.304  14.755 -0.0818 -0.4393 -0.4649
10531TIP3    H253085   6.345   6.331  14.865  1.1443  0.4853  0.4570
10532TIP3   OH253086   2.374   0.360  16.520  0.0294 -0.3519  0.4164
10532TIP3    H153087   2.446   0.316  16.565 -0.0411  1.4169  2.3695
10532TIP3    H253088   2.407   0.447  16.500 -1.1512  0.0656  0.1874
10533TIP3   OH253089   3.554   5.240  14.895  0.3637 -0.3200  0.1712
10533TIP3    H153090   3.547   5.292  14.815 -0.3173  0.2843  0.6200
10533TIP3    H253091   3.572   5.151  14.863  1.5295  0.1619 -0.5961
10534TIP3   OH253092   2.667   6.521   0.579 -0.9134 -0.2952 -0.4216
10534TIP3    H153093   2.678   6.614   0.559 -0.2083  0.1660  1.8348
10534TIP3    H253094   2.619   6.519   0.661  1.6225 -1.7518  1.1834
10535TIP3   OH253095   2.870   0.265  15.157  0.0584 -0.0461  0.3266
10535TIP3    H153096   2.946   0.239  15.208 -0.7661 -1.0578  1.1040
10535TIP3    H253097   2.898   0.343  15.108  1.9868 -1.1745 -0.4576
10536TIP3   OH253098   4.594   1.184  13.448 -0.2423  0.0543 -0.5800
10536TIP3    H153099   4.586   1.089  13.458  0.8675  0.0249  0.2694
10536TIP3    H253100   4.688   1.201  13.455 -0.4786  1.2729 -0.1210
10537TIP3   OH253101   6.180   1.404  16.753  0.2951  0.2850 -0.5323
10537TIP3    H153102   6.129   1.400  16.673  0.3270 -0.5571 -0.5193
10537TIP3    H253103   6.142   1.338  16.810 -0.1537  1.3305  0.4164
10538TIP3   OH253104   2.328   0.482   1.614 -0.1299 -0.1494 -0.5095
10538TIP3    H153105   2.352   0.417   1.548  2.3763  0.0986  0.0677
10538TIP3    H253106   2.293   0.556   1.563 -0.5375 -0.9049 -1.3528
10539TIP3   OH253107   6.318   3.919   2.744 -0.0717  0.3008 -0.2093
10539TIP3    H153108   6.391   3.859   2.728 -0.2864  0.3360 -1.3738
10539TIP3    H253109   6.359   4.002   2.766  0.2325  0.0286  0.2522
10540TIP3   OH253110   2.492   0.019   1.391 -0.1450  0.0516 -0.3450
10540TIP3    H153111   2.582   0.016   1.421 -0.0882 -2.0523 -0.5780
10540TIP3    H253112   2.496   0.059   1.304  0.5724 -0.1533 -0.4050
10541TIP3   OH253113   3.092   5.182  10.708 -0.4610  0.3447  0.2173
10541TIP3    H153114   3.152   5.160  10.778  0.2462  0.4602 -0.3386
10541TIP3    H253115   3.008   5.143  10.734  0.1801 -0.9968  0.3570
10542TIP3   OH253116   6.059   5.799   5.616 -0.3986 -0.0990  0.4026
10542TIP3    H153117   6.065   5.703   5.608 -1.5801 -0.1302 -0.5679
10542TIP3    H253118   6.106   5.832   5.540  1.1067  0.1609  1.4125
10543TIP3   OH253119   1.379   0.970   1.420 -0.1062 -0.2725  0.2912
10543TIP3    H153120   1.369   1.065   1.410  0.9672  0.0258  1.7316
10543TIP3    H253121   1.466   0.952   1.384 -0.8557 -0.9580 -1.2635
10544TIP3   OH253122   5.735   5.664   3.015 -0.2968  0.2855  0.2483
10544TIP3    H153123   5.652   5.707   3.035 -1.8643 -1.5084 -1.8413
10544TIP3    H253124   5.765   5.704   2.934  0.4570  0.3398  0.5435
10545TIP3   OH253125   3.606   0.344  11.460  0.5585 -0.4235  0.1648
10545TIP3    H153126   3.691   0.372  11.496 -0.3891  1.3394  1.1377
10545TIP3    H253127   3.623   0.328  11.367  1.5194  1.9880 -0.1267
10546TIP3   OH253128   5.964   2.456  10.402 -0.5785 -0.0915 -0.7845
10546TIP3    H153129   5.973   2.422  10.313  2.0658  0.2164 -0.7130
10546TIP3    H253130   6.006   2.391  10.458 -2.8166 -0.6239  0.3998
10547TIP3   OH253131   5.578   1.356   5.135  0.1449  0.1652 -0.1989
10547TIP3    H153132   5.552   1.310   5.214  0.2143  0.5021  0.0203
10547TIP3    H253133   5.583   1.448   5.161  0.3392  0.2552 -0.5488
10548TIP3   OH253134   3.443   2.292   3.449 -0.3345 -0.7882 -0.3171
10548TIP3    H153135   3.512   2.345   3.409 -0.4825  1.2995  1.9607
10548TIP3    H253136   3.485   2.251   3.524 -1.1690 -0.8037  0.1505
10549TIP3   OH253137   5.452   1.111   3.553  0.4634  0.5044  0.0773
10549TIP3    H153138   5.485   1.079   3.469 -0.5745  0.4555 -0.3222
10549TIP3    H253139   5.493   1.055   3.618 -1.1023 -1.5380 -0.5932
10550TIP3   OH253140   6.428   0.692  13.324  0.2811 -0.5430  0.3879
10550TIP3    H153141   6.463   0.776  13.355  1.8332 -0.7618 -0.6499
10550TIP3    H253142   6.375   0.715  13.248  1.0102 -0.5093 -0.1243
10551TIP3   OH253143   2.955   3.034   5.098 -0.2476 -0.0425  1.0376
10551TIP3    H153144   3.033   3.080   5.128 -0.2776 -0.3554  1.6316
10551TIP3    H253145   2.883   3.073   5.148 -0.5256  0.4751  0.2492
10552TIP3   OH253146   2.860   3.434  14.648  0.8976  0.8946  0.2897
10552TIP3    H153147   2.949   3.422  14.682  0.4186 -0.7874  1.0641
10552TIP3    H253148   2.868   3.508  14.588  3.1025  0.0236 -0.6257
10553TIP3   OH253149   6.455   3.097   3.542 -0.4488 -0.3868 -0.2663
10553TIP3    H153150   6.415   3.075   3.627 -1.3407 -1.0587 -0.8434
10553TIP3    H253151   6.447   3.192   3.537  1.1928 -0.1306  1.1553
10554TIP3   OH253152   4.665   2.451   5.936  0.1594 -0.3246 -0.2897
10554TIP3    H153153   4.694   2.529   5.983 -1.0380 -0.3493  0.5157
10554TIP3    H253154   4.604   2.408   5.995 -1.5145 -0.2900 -1.9049
10555TIP3   OH253155   5.301   5.964   0.770  0.2715 -0.4407 -0.6863
10555TIP3    H153156   5.381   5.936   0.813 -0.1488 -0.9560 -0.2304
10555TIP3    H253157   5.267   5.885   0.728  0.0684 -0.1992 -0.9872
10556TIP3   OH253158   1.325   1.914  12.885 -0.0414 -0.2629  0.2235
10556TIP3    H153159   1.285   1.839  12.840 -0.1276  0.8750 -1.7176
10556TIP3    H253160   1.271   1.989  12.859  1.2026  0.7570  0.4902
10557TIP3   OH253161   0.994   1.937   0.460  0.2234 -0.0973  0.3485
10557TIP3    H153162   0.919   1.934   0.519  0.1499 -2.7762  0.2310
10557TIP3    H253163   0.969   2.001   0.393 -0.4734  1.5810  2.1066
10558TIP3   OH253164   4.161   2.628  16.263  0.3490 -0.1478 -0.0539
10558TIP3    H153165   4.096   2.686  16.225  0.5757  1.9914  2.5602
10558TIP3    H253166   4.229   2.620  16.195 -0.5700  1.1372 -1.1698
10559TIP3   OH253167   1.294   1.659   1.323 -0.1710 -0.0422  0.0168
10559TIP3    H153168   1.255   1.629   1.405  0.3347  0.6812  0.5239
10559TIP3    H253169   1.269   1.591   1.259 -0.4713 -0.6667  0.7799
10560TIP3   OH253170   0.503   6.602  10.959  0.0152 -0.0816  0.7086
10560TIP3    H153171   0.552   6.583  10.879  0.1405 -0.6349  0.9102
10560TIP3    H253172   0.426   6.650  10.930 -1.4269 -2.6832 -0.0997
10561TIP3   OH253173   3.591   0.028   1.685  0.3736 -0.5778  0.3497
10561TIP3    H153174   3.512   0.002   1.733 -1.3917  0.1213 -2.0026
10561TIP3    H253175   3.604  -0.042   1.620  0.8721 -0.0137 -0.1692
10562TIP3   OH253176   4.192   2.460   1.194 -0.2514  0.6910 -0.1904
10562TIP3    H153177   4.251   2.466   1.270  0.5550 -0.9367 -0.6223
10562TIP3    H253178   4.250   2.463   1.119 -0.8246  0.1667 -0.6646
10563TIP3   OH253179   5.178   2.656   2.128 -0.0603  0.3461 -0.1030
10563TIP3    H153180   5.201   2.653   2.036  0.3705 -3.1314 -0.0386
10563TIP3    H253181   5.247   2.606   2.172 -2.6805 -2.3329  1.3499
10564TIP3   OH253182   1.817   6.744   1.645 -0.6547  0.1339  0.1634
10564TIP3    H153183   1.801   6.798   1.722  1.5366 -0.0909  0.8434
10564TIP3    H253184   1.873   6.673   1.677 -0.0372 -0.1863 -1.5383
10565TIP3   OH253185   1.806   1.765   3.363 -0.2399 -0.6533  0.1287
10565TIP3    H153186   1.755   1.771   3.283 -0.4821 -0.6233  0.2830
10565TIP3    H253187   1.892   1.799   3.339  0.0405 -1.7142 -0.4061
10566TIP3   OH253188   3.842   3.212  14.372  0.5099 -0.6761  0.2176
10566TIP3    H153189   3.775   3.242  14.311  1.2137  0.8114  0.1280
10566TIP3    H253190   3.921   3.201  14.318  1.1547  0.7112  0.8449
10567TIP3   OH253191   2.148   0.550  11.421  0.0581 -0.1661 -0.6380
10567TIP3    H153192   2.107   0.464  11.414 -1.7981  0.5800  0.5659
10567TIP3    H253193   2.232   0.533  11.465 -0.6791 -1.2515  0.3920
10568TIP3   OH253194   4.737   5.555   6.405  0.0243 -0.0570  0.0858
10568TIP3    H153195   4.821   5.555   6.452 -0.4039  1.6642  0.9164
10568TIP3    H253196   4.703   5.466   6.417  1.9999 -1.0104 -0.8371
10569TIP3   OH253197   5.061   1.667   3.904 -0.4256  0.1111 -0.0534
10569TIP3    H153198   5.052   1.760   3.882  1.0542  0.5444  0.9877
10569TIP3    H253199   5.144   1.641   3.863 -0.8873 -0.7987 -0.4400
10570TIP3   OH253200   2.858   2.678   2.963  0.0600  0.7065  0.3049
10570TIP3    H153201   2.882   2.587   2.979  1.6456  0.8712 -0.9127
10570TIP3    H253202   2.771   2.674   2.924  1.0088 -0.5115 -1.8732
10571TIP3   OH253203   0.368   0.720   4.375  0.6823 -0.3526 -0.4247
10571TIP3    H153204   0.283   0.682   4.399  1.0012  0.0446  1.5111
10571TIP3    H253205   0.432   0.663   4.418  1.4238 -0.6457 -1.8585
10572TIP3   OH253206   2.224   0.531   2.034 -0.1748 -0.5423 -0.1528
10572TIP3    H153207   2.240   0.546   1.940 -2.3694 -3.8110 -1.2044
10572TIP3    H253208   2.310   0.511   2.070  0.5310 -0.5131 -1.7492
10573TIP3   OH253209   6.054   6.841   5.821  0.9676 -0.2015  0.2837
10573TIP3    H153210   6.092   6.759   5.790 -1.1202 -1.6062  1.2580
10573TIP3    H253211   6.084   6.849   5.912  0.1291 -0.5680  0.5979
10574TIP3   OH253212   2.866   1.121  12.639  0.3685  0.3137  0.1456
10574TIP3    H153213   2.922   1.192  12.609 -0.9879  1.8997  1.1540
10574TIP3    H253214   2.843   1.145  12.729 -1.0323 -0.8218  0.1296
10575TIP3   OH253215   3.133   4.462   3.506 -0.2969 -0.7416 -0.4033
10575TIP3    H153216   3.219   4.461   3.465 -0.6757 -1.4583 -1.2217
10575TIP3    H253217   3.148   4.428   3.594  0.6049  1.2688  0.2858
10576TIP3   OH253218   4.057   4.659   4.799 -0.1752  0.0285 -0.3036
10576TIP3    H153219   4.121   4.686   4.733  1.5363 -0.8961  0.9191
10576TIP3    H253220   4.034   4.569   4.775  0.8432 -0.4921  0.6293
10577TIP3   OH253221   2.492   2.517  12.623  0.6795  0.0761  0.3904
10577TIP3    H153222   2.491   2.610  12.598  3.8943  0.6396  1.7943
10577TIP3    H253223   2.484   2.518  12.718  0.1363 -1.1618  0.3721
10578TIP3   OH253224   4.371   6.289  15.898 -0.5048 -0.6551  0.6440
10578TIP3    H153225   4.415   6.373  15.911 -2.0867  0.7205 -1.9584
10578TIP3    H253226   4.334   6.267  15.983 -0.7108  1.7109  1.2274
10579TIP3   OH253227   5.740   6.206   5.741  0.0088  0.0472 -1.0809
10579TIP3    H153228   5.835   6.195   5.747  0.1891  2.0200  0.9387
10579TIP3    H253229   5.707   6.117   5.726  2.0687 -0.9331 -0.2030
10580TIP3   OH253230   0.128   5.783  16.194  0.2509 -0.4502  1.0089
10580TIP3    H153231   0.064   5.784  16.123  1.6263  0.7437 -0.2672
10580TIP3    H253232   0.089   5.838  16.262 -0.1128  0.2230  0.2646
10581TIP3   OH253233   4.085   4.405   0.381 -0.3151  0.2588 -0.2201
10581TIP3    H153234   4.108   4.353   0.458 -0.6755 -0.1448 -0.3855
10581TIP3    H253235   4.161   4.462   0.367 -0.1593  0.1786  0.3014
10582TIP3   OH253236   3.313   1.839  15.338 -0.1835 -0.1757  0.3208
10582TIP3    H153237   3.226   1.832  15.377  0.6452 -0.2924  2.2275
10582TIP3    H253238   3.362   1.898  15.396  1.1807 -0.5450 -0.3983
10583TIP3   OH253239   3.916   2.610  12.839 -0.0430  0.2242  0.9602
10583TIP3    H153240   3.847   2.546  12.858 -0.2395 -0.7334 -2.2467
10583TIP3    H253241   3.949   2.584  12.752  2.5832  2.2071  1.2340
10584TIP3   OH253242   3.094   0.304  12.834  0.5249 -0.2350  0.3681
10584TIP3    H153243   3.042   0.250  12.893  0.1461 -0.8776 -0.5222
10584TIP3    H253244   3.174   0.254  12.820  0.6122 -0.0879  0.3334
10585TIP3   OH253245   3.274   5.360  13.430 -0.3743 -0.0753 -0.9979
10585TIP3    H153246   3.261   5.270  13.462  1.3817  0.3405  1.1578
10585TIP3    H253247   3.186   5.398  13.430 -0.9025 -1.2185  0.0143
10586TIP3   OH253248   3.192   3.092  14.738 -0.5257 -0.4933 -0.3998
10586TIP3    H153249   3.116   3.150  14.729 -1.3199 -1.5069 -0.3423
10586TIP3    H253250   3.170   3.034  14.810  0.9667  0.1677  0.6524
10587TIP3   OH253251   1.993   4.035  15.619  0.1412  0.4314 -0.2093
10587TIP3    H153252   1.961   3.982  15.692  0.0982 -1.7744 -1.7463
10587TIP3    H253253   1.937   4.012  15.546 -1.5937  4.5994 -0.4614
10588TIP3   OH253254   2.965   1.726   5.691 -0.4302  0.5867  0.6201
10588TIP3    H153255   3.006   1.780   5.624 -1.7242  1.8808  0.8399
10588TIP3    H253256   2.871   1.739   5.679 -0.7386 -0.5596  1.5532
10589TIP3   OH253257   0.717   1.768   1.969  0.4690 -0.3548 -0.0256
10589TIP3    H153258   0.780   1.804   2.031 -0.0809 -1.9308  1.5215
10589TIP3    H253259   0.634   1.808   1.993  0.8687  2.4107 -2.6226
10590TIP3   OH253260   3.480   5.265  14.548 -0.5398 -0.0725 -0.3462
10590TIP3    H153261   3.569   5.234  14.533 -0.5681 -0.6007  0.5517
10590TIP3    H253262   3.434   5.246  14.467 -0.0750 -0.6583 -0.4761
10591TIP3   OH253263   5.765   3.280   5.635  0.1431  0.2106  0.0374
10591TIP3    H153264   5.728   3.365   5.609 -1.0112  0.2357  1.5964
10591TIP3    H253265   5.707   3.216   5.595  0.2059  0.1905 -0.0203
10592TIP3   OH253266   6.496   4.375   3.188  0.5919 -0.8023  0.4274
10592TIP3    H153267   6.485   4.428   3.267 -1.6676 -1.2057  0.4486
10592TIP3    H253268   6.591   4.370   3.176  0.9495  2.9523  0.5839
10593TIP3   OH253269   6.640   0.055  13.213 -0.2553  0.1269  0.5078
10593TIP3    H153270   6.605   0.057  13.124 -0.4826  0.8773  0.6113
10593TIP3    H253271   6.722   0.104  13.208  0.6332 -1.2982  0.3498
10594TIP3   OH253272   4.206   3.877   5.018  0.1803 -0.1166  0.2372
10594TIP3    H153273   4.143   3.906   4.952 -0.1956 -0.2809  0.5227
10594TIP3    H253274   4.237   3.792   4.986 -1.3220 -1.0445  1.1430
10595TIP3   OH253275   3.898   5.305   1.105  0.0480  0.5842 -0.0004
10595TIP3    H153276   3.893   5.351   1.189  0.2785  0.4668  0.0788
10595TIP3    H253277   3.962   5.236   1.120 -1.1311 -0.4926  0.2208
10596TIP3   OH253278   6.499   6.159   3.629 -0.3273  0.7170  0.2294
10596TIP3    H153279   6.451   6.241   3.639 -0.6495  0.4730  0.7205
10596TIP3    H253280   6.438   6.092   3.660  1.0204  0.5663  2.7387
10597TIP3   OH253281   0.072   6.301   5.451 -0.3366 -0.2352  0.2103
10597TIP3    H153282   0.088   6.353   5.372  0.7086 -0.5533  0.2056
10597TIP3    H253283  -0.020   6.319   5.473 -0.3161  0.7242 -0.4340
10598TIP3   OH253284   6.786   0.415   5.106  0.3719 -0.1644 -0.0602
10598TIP3    H153285   6.752   0.448   5.023  0.1655 -0.3849 -0.0643
10598TIP3    H253286   6.803   0.322   5.090  2.5079  0.2605 -0.5484
10599TIP3   OH253287   4.415   3.007   0.848 -0.2343 -0.2695  0.1149
10599TIP3    H153288   4.344   3.065   0.876 -3.2610 -2.4084 -2.3812
10599TIP3    H253289   4.428   3.029   0.755  1.8085 -0.5412  0.3020
10600TIP3   OH253290   0.053   1.123   1.778 -0.0011 -0.2653  0.5176
10600TIP3    H153291   0.103   1.043   1.762 -0.5970 -0.8492  1.4592
10600TIP3    H253292   0.014   1.110   1.865 -1.8496  0.1063 -0.2059
10601TIP3   OH253293   6.212   1.430   2.189 -0.3983  0.4657  0.0662
10601TIP3    H153294   6.266   1.372   2.242 -1.2750 -1.4652 -1.0741
10601TIP3    H253295   6.274   1.472   2.128  0.3199  1.2462  1.2856
10602TIP3   OH253296   5.120   3.407   3.515 -0.2013 -0.1566 -0.5147
10602TIP3    H153297   5.031   3.428   3.543  0.2899 -0.2528  1.2104
10602TIP3    H253298   5.169   3.488   3.530  0.5710 -0.8985  1.1814
10603TIP3   OH253299   0.050   3.333  15.185  0.7369  0.3325 -0.4126
10603TIP3    H153300   0.118   3.391  15.152  1.1269  0.9889  1.4389
10603TIP3    H253301  -0.001   3.387  15.246  1.1207 -1.2220  1.3897
10604TIP3   OH253302   5.896   6.468   3.296 -0.5534  0.1489 -0.2976
10604TIP3    H153303   5.880   6.374   3.291 -1.2763  0.2873 -0.6311
10604TIP3    H253304   5.901   6.487   3.389 -0.8060 -0.1560 -0.2207
10605TIP3   OH253305   1.972   4.387   2.628  0.1872  0.2359  0.3105
10605TIP3    H153306   1.984   4.467   2.577  2.0409  0.4460  0.9850
10605TIP3    H253307   2.016   4.405   2.712 -0.4099 -1.0604  0.9317
10606TIP3   OH253308   1.596   3.464  16.167 -0.6185 -0.1773 -0.2802
10606TIP3    H153309   1.573   3.557  16.164 -2.4753 -0.5335  0.9861
10606TIP3    H253310   1.613   3.446  16.259 -2.5574 -1.5376 -0.1217
10607TIP3   OH253311   2.446   3.219   0.209  0.1580  0.1048  0.0555
10607TIP3    H153312   2.362   3.253   0.178 -2.1566 -1.3004  3.9946
10607TIP3    H253313   2.479   3.286   0.268  0.3784 -0.5152  0.6463
10608TIP3   OH253314   2.946   3.644   5.183 -0.2800  0.3590 -0.2367
10608TIP3    H153315   3.002   3.640   5.260  0.1779 -1.7395 -0.6117
10608TIP3    H253316   3.003   3.680   5.114 -0.3639  1.2044  0.1274
10609TIP3   OH253317   1.189   4.546   0.128 -0.1046  0.7740 -0.8518
10609TIP3    H153318   1.247   4.621   0.139 -0.6520  1.1291 -0.2692
10609TIP3    H253319   1.101   4.584   0.134 -0.4378 -0.2194  2.1602
10610TIP3   OH253320   6.579   2.272  14.094 -0.2069  0.0384 -0.1521
10610TIP3    H153321   6.664   2.286  14.052 -0.4024  0.1066 -0.5358
10610TIP3    H253322   6.595   2.208  14.162 -0.0083 -0.5747 -0.7665
10611TIP3   OH253323   1.377   1.877  15.619 -0.4166  1.0040  0.2155
10611TIP3    H153324   1.361   1.854  15.711  0.4106  0.4724  0.2341
10611TIP3    H253325   1.471   1.890  15.614 -0.4931  1.2832 -0.5085
10612TIP3   OH253326   6.833   1.558   3.600  0.4115  0.3091  0.3140
10612TIP3    H153327   6.829   1.651   3.624  0.3180 -0.0594  1.8341
10612TIP3    H253328   6.924   1.544   3.573  1.0416  0.4054  2.1953
10613TIP3   OH253329   4.148   3.437  16.029 -0.2932 -0.6251  0.3714
10613TIP3    H153330   4.054   3.450  16.024 -0.2551 -0.4806  0.0386
10613TIP3    H253331   4.186   3.525  16.016 -0.1446 -0.4934  1.5509
10614TIP3   OH253332   3.466   3.103   0.722  1.1334  0.4168  0.2221
10614TIP3    H153333   3.408   3.102   0.646  0.9089  3.1865  0.2534
10614TIP3    H253334   3.552   3.082   0.686  0.5662 -1.3056 -0.2326
10615TIP3   OH253335   5.573   1.300   4.192 -0.1844  0.1426 -0.2445
10615TIP3    H153336   5.480   1.286   4.176 -0.1633 -0.7798  0.3665
10615TIP3    H253337   5.605   1.215   4.223  0.8956  0.3963 -0.6119
10616TIP3   OH253338   3.222   3.246   0.803  0.1697  0.0483  0.2414
10616TIP3    H153339   3.302   3.208   0.768 -0.2086 -0.2993 -0.2654
10616TIP3    H253340   3.187   3.299   0.732 -0.3487 -0.2682  0.2550
10617TIP3   OH253341   2.788   1.858  14.964  0.4956  0.9902 -0.5768
10617TIP3    H153342   2.803   1.870  14.870 -0.3028 -0.0009 -0.8452
10617TIP3    H253343   2.745   1.939  14.992  0.3116  1.0945 -1.1536
10618TIP3   OH253344   3.737   4.831   1.941  0.5031 -0.3823 -0.5076
10618TIP3    H153345   3.783   4.890   1.881 -1.3585  0.5995 -1.0432
10618TIP3    H253346   3.686   4.773   1.885 -0.4664 -0.1299  0.0763
10619TIP3   OH253347   4.567   6.619   1.509  0.4177  0.3028  0.2909
10619TIP3    H153348   4.589   6.708   1.536  0.8090  0.3050 -0.0278
10619TIP3    H253349   4.472   6.621   1.494  0.4634  0.7311  0.0476
10620TIP3   OH253350   4.327   3.827   5.693  0.2406  0.5110  0.0476
10620TIP3    H153351   4.398   3.885   5.666  0.1636  0.9970  0.8480
10620TIP3    H253352   4.259   3.839   5.627  0.6165  0.5687 -0.3361
10621TIP3   OH253353   0.267   5.904  12.993 -0.4474  0.2676  0.2628
10621TIP3    H153354   0.208   5.872  13.062 -1.1241 -1.6413 -1.1255
10621TIP3    H253355   0.354   5.880  13.024 -0.8579 -2.0887 -0.2236
10622TIP3   OH253356   5.161   2.392   1.876 -0.0695 -0.0755 -0.7536
10622TIP3    H153357   5.103   2.325   1.841  0.8923 -1.6296  0.4864
10622TIP3    H253358   5.204   2.430   1.799 -0.4081 -1.0839 -1.4568
10623TIP3   OH253359   0.073   3.742  12.446  0.1163 -0.4348 -0.3627
10623TIP3    H153360   0.133   3.703  12.382 -0.0749 -1.4620  0.0752
10623TIP3    H253361   0.119   3.819  12.478  0.8456 -0.7417 -0.6548
10624TIP3   OH253362   1.872   4.987  16.455  0.1776  0.5784  0.5533
10624TIP3    H153363   1.807   4.964  16.388  0.9730 -1.1458  0.3038
10624TIP3    H253364   1.951   5.006  16.406  0.1573  1.6430  0.9101
10625TIP3   OH253365   1.281   3.049  17.033 -0.3307 -0.8129  0.1857
10625TIP3    H153366   1.216   2.995  16.987 -0.3455  0.5317 -1.4487
10625TIP3    H253367   1.349   3.066  16.968  0.2665  0.1302  1.0272
10626TIP3   OH253368   0.834   1.940  14.093  0.3683  0.3940  1.2748
10626TIP3    H153369   0.783   2.011  14.053 -1.3139 -1.5960 -0.3387
10626TIP3    H253370   0.772   1.895  14.150  0.3575 -1.7697 -0.3321
10627TIP3   OH253371   2.491   5.576  15.772  0.3314  0.1283 -0.3442
10627TIP3    H153372   2.411   5.563  15.721 -1.2244  0.5949  1.8152
10627TIP3    H253373   2.481   5.518  15.847  1.7973  0.5832  0.2322
10628TIP3   OH253374   1.623   4.879   0.884  0.1951 -0.3963 -0.3783
10628TIP3    H153375   1.625   4.968   0.917 -2.6741 -0.4292  0.1312
10628TIP3    H253376   1.636   4.824   0.962 -0.5779 -0.4320 -0.2718
10629TIP3   OH253377   1.692   6.708   3.757  0.1528  0.1469 -0.4193
10629TIP3    H153378   1.675   6.735   3.666 -0.2837  0.0425 -0.3727
10629TIP3    H253379   1.617   6.653   3.779 -1.2052  2.3526  0.9151
10630TIP3   OH253380   2.631   6.413   2.462  0.7786  0.0955  0.0310
10630TIP3    H153381   2.661   6.471   2.393  0.5669  2.3746  1.7116
10630TIP3    H253382   2.699   6.417   2.529  1.2816 -2.5352 -0.1893
10631TIP3   OH253383   1.044   6.620   5.158  0.0840  0.5650  0.0459
10631TIP3    H153384   1.055   6.530   5.188  0.4251  1.1612  1.7899
10631TIP3    H253385   1.133   6.649   5.138 -0.1032  0.2835 -1.3408
10632TIP3   OH253386   6.619   0.658   0.945 -0.8656 -0.2870  0.5805
10632TIP3    H153387   6.690   0.634   0.885 -1.2011  1.1494 -0.4538
10632TIP3    H253388   6.646   0.743   0.981 -1.1818 -0.6261  1.6491
10633TIP3   OH253389   4.441   5.278  16.202  0.4784 -0.0355  0.4781
10633TIP3    H153390   4.397   5.261  16.286 -1.1689  1.5786 -0.0042
10633TIP3    H253391   4.382   5.241  16.137  0.9220  0.2161 -0.0676
10634TIP3   OH253392   0.726   1.801   5.711  0.2925 -0.5265 -0.1190
10634TIP3    H153393   0.820   1.817   5.715  0.1980  0.6696 -1.9182
10634TIP3    H253394   0.713   1.751   5.631 -0.4601 -2.0920  0.9268
10635TIP3   OH253395   4.358   5.461   6.459  0.3345 -0.0906  0.6868
10635TIP3    H153396   4.287   5.493   6.404 -0.0084 -2.8054 -0.6446
10635TIP3    H253397   4.418   5.419   6.398  1.2251 -1.0339  2.1469
10636TIP3   OH253398   1.279   4.312   0.763 -0.8284  0.5724 -0.5855
10636TIP3    H153399   1.331   4.338   0.687  0.2857  0.2031  0.0228
10636TIP3    H253400   1.230   4.390   0.788  1.0505  1.5810  0.0909
10637TIP3   OH253401   3.872   2.555   6.020  0.0566  0.0532  0.3654
10637TIP3    H153402   3.784   2.543   5.983  0.7109  0.9614 -1.6158
10637TIP3    H253403   3.877   2.490   6.090 -1.7107 -0.9549 -0.3707
10638TIP3   OH253404   2.933   3.336  15.876  0.2447  0.0485 -0.6805
10638TIP3    H153405   2.946   3.431  15.868  1.2045  0.0490  0.6465
10638TIP3    H253406   2.888   3.325  15.960 -1.3230 -0.5741 -1.5611
10639TIP3   OH253407   1.515   3.900  14.015  0.5686 -0.0710 -0.2653
10639TIP3    H153408   1.428   3.860  14.017  0.5909 -0.2038 -1.2299
10639TIP3    H253409   1.531   3.929  14.105  1.6487 -4.5061  1.1952
10640TIP3   OH253410   2.116   5.175   3.567  0.3584 -0.3642 -0.2980
10640TIP3    H153411   2.081   5.127   3.642 -1.5148  0.1234 -0.7974
10640TIP3    H253412   2.087   5.125   3.491  0.5478  0.1976 -0.7481
10641TIP3   OH253413   5.717   5.555  11.138  0.5741  0.3719  0.0160
10641TIP3    H153414   5.761   5.636  11.110  0.6896  0.4733  0.4857
10641TIP3    H253415   5.636   5.585  11.179 -0.5765  0.1323 -1.9670
10642TIP3   OH253416   2.479   2.913  15.124  0.3752 -0.8821 -0.6343
10642TIP3    H153417   2.392   2.874  15.125  0.0823 -0.6959 -4.1066
10642TIP3    H253418   2.466   3.001  15.157 -0.9381 -0.6612 -1.6271
10643TIP3   OH253419   2.923   1.260   1.278  0.1452 -0.2079  0.3171
10643TIP3    H153420   2.953   1.327   1.216 -1.9862 -0.2938 -0.9255
10643TIP3    H253421   2.942   1.296   1.364  0.8233  1.1005 -0.3478
10644TIP3   OH253422   3.410   1.700  11.441 -1.1112 -0.3015 -0.3609
10644TIP3    H153423   3.350   1.643  11.489 -0.1585 -0.3258  0.8415
10644TIP3    H253424   3.397   1.677  11.349 -0.5559 -2.6648  0.0902
10645TIP3   OH253425   4.407   1.243  12.785  0.5113 -0.3037 -0.6681
10645TIP3    H153426   4.353   1.205  12.716 -0.6900  2.3577 -1.2923
10645TIP3    H253427   4.497   1.224  12.758  0.0266 -0.3874 -2.3214
10646TIP3   OH253428   4.569   0.423   1.511  0.2901 -0.3324 -0.3689
10646TIP3    H153429   4.595   0.440   1.421  0.0480  0.8325 -0.2442
10646TIP3    H253430   4.651   0.417   1.560  0.4196 -0.9498 -0.6553
10647TIP3   OH253431   3.694   3.755  10.868  0.4003 -0.9765 -0.2432
10647TIP3    H153432   3.780   3.780  10.833  0.5791 -1.1933  0.0326
10647TIP3    H253433   3.632   3.810  10.822  0.6171 -1.3635 -1.0215
10648TIP3   OH253434   0.705   3.213  12.477  0.1815 -0.0426  0.2657
10648TIP3    H153435   0.622   3.218  12.525 -0.4355 -2.9593 -0.3222
10648TIP3    H253436   0.702   3.286  12.415 -1.7677  0.1142  0.5036
10649TIP3   OH253437   6.023   5.547  12.185 -0.1383 -0.3514  0.7008
10649TIP3    H153438   6.042   5.627  12.233 -0.4433 -0.0586  0.3373
10649TIP3    H253439   5.992   5.577  12.100  0.0541 -0.8614  0.4497
10650TIP3   OH253440   4.741   1.503  12.988 -0.2199  0.5027  0.0049
10650TIP3    H153441   4.662   1.459  13.019  0.6602 -2.1924 -1.2044
10650TIP3    H253442   4.710   1.580  12.942 -1.9095  1.0243  1.8746
10651TIP3   OH253443   3.497   6.825  13.851 -0.1607  0.5018  0.0458
10651TIP3    H153444   3.531   6.737  13.869  0.5505  0.5459 -0.9570
10651TIP3    H253445   3.443   6.847  13.927  0.1548 -0.5514  0.5879
10652TIP3   OH253446   3.733   3.685   3.505 -0.1434  0.0390  0.9766
10652TIP3    H153447   3.758   3.594   3.495  0.4301  0.1373  1.4620
10652TIP3    H253448   3.811   3.735   3.483 -0.5803  0.4386  0.2767
10653TIP3   OH253449   0.183   6.559   3.815  0.2356 -0.1942  0.3402
10653TIP3    H153450   0.271   6.578   3.847  0.0663  1.1460  0.0600
10653TIP3    H253451   0.193   6.479   3.763  1.8840  1.4729 -2.0990
10654TIP3   OH253452   4.332   0.470   3.515 -0.4578 -0.4112  0.2136
10654TIP3    H153453   4.362   0.456   3.605 -0.4293  0.2788  0.3173
10654TIP3    H253454   4.242   0.438   3.514 -1.3833  1.9424  1.2013
10655TIP3   OH253455   3.750   1.740  13.635  0.4089  0.4554  0.0805
10655TIP3    H153456   3.813   1.725  13.705  1.3862  0.3150 -0.7998
10655TIP3    H253457   3.801   1.779  13.565 -0.4763  0.2636 -0.6949
10656TIP3   OH253458   3.779   5.358  13.616  0.3005  1.1014  0.7059
10656TIP3    H153459   3.693   5.401  13.614  1.1602  2.9266 -1.2693
10656TIP3    H253460   3.759   5.265  13.612 -1.6045  1.4888 -0.0814
10657TIP3   OH253461   3.564   0.410  13.450  0.6069 -0.1925 -0.1722
10657TIP3    H153462   3.545   0.343  13.384  0.3508  0.5825 -0.9159
10657TIP3    H253463   3.615   0.476  13.403  0.5399  0.3037  0.4387
10658TIP3   OH253464   3.492   0.484   1.845  0.0377  0.4410 -0.4380
10658TIP3    H153465   3.423   0.498   1.781 -1.2229 -0.9981  0.5248
10658TIP3    H253466   3.573   0.483   1.794 -0.5385  2.7451 -1.5177
10659TIP3   OH253467   2.251   3.631   0.252 -0.1373 -0.9397 -0.2299
10659TIP3    H153468   2.267   3.677   0.334  0.2217 -1.0163 -0.2525
10659TIP3    H253469   2.161   3.654   0.229 -0.1280 -0.6437  0.0093
10660TIP3   OH253470   3.441   5.669   1.091  0.2021 -0.1184  0.0133
10660TIP3    H153471   3.392   5.683   1.010 -1.1945 -1.3921  0.5776
10660TIP3    H253472   3.529   5.645   1.062  0.3775  1.6088 -1.0522
10661TIP3   OH253473   5.009   3.773   3.376  0.2086  0.1665 -0.8768
10661TIP3    H153474   4.956   3.747   3.451 -1.0590 -1.3066 -2.2027
10661TIP3    H253475   5.077   3.831   3.412 -0.0224 -0.9300  1.4549
10662TIP3   OH253476   1.481   3.416  15.228 -0.2963 -0.6642  0.7284
10662TIP3    H153477   1.550   3.371  15.180 -0.8720 -0.2380 -0.5404
10662TIP3    H253478   1.481   3.505  15.193 -1.4087 -0.6300  0.7632
10663TIP3   OH253479   2.781   2.762   1.394  0.0963  0.7833  0.0008
10663TIP3    H153480   2.736   2.683   1.425  0.0549  0.9939  0.4909
10663TIP3    H253481   2.723   2.798   1.327  1.5991 -1.3392 -2.6366
10664TIP3   OH253482   6.374   6.632   1.447 -0.6772 -0.7898 -0.5588
10664TIP3    H153483   6.441   6.603   1.385  0.7839 -0.2439  0.6961
10664TIP3    H253484   6.343   6.551   1.488 -0.7870 -1.0470 -1.1382
10665TIP3   OH253485   2.635   1.051  14.695 -0.1022 -0.5724 -0.0226
10665TIP3    H153486   2.652   1.009  14.779 -1.7781 -0.3654  0.4527
10665TIP3    H253487   2.597   1.135  14.718  0.1082 -0.1996 -0.9998
10666TIP3   OH253488   3.012   0.950  13.423  0.4650  0.1216 -0.0131
10666TIP3    H153489   3.032   0.916  13.336 -1.5034 -2.1878  0.3182
10666TIP3    H253490   3.063   0.895  13.483 -0.7472 -0.6021  0.4036
10667TIP3   OH253491   6.153   1.500  15.047 -0.5218 -0.3056  0.0714
10667TIP3    H153492   6.098   1.545  14.982  0.1056 -0.2084 -0.4055
10667TIP3    H253493   6.221   1.456  14.995  1.1412  1.3358  0.7250
10668TIP3   OH253494   0.164   6.303  11.688  0.2865 -0.2917 -0.0210
10668TIP3    H153495   0.231   6.365  11.717 -1.3625  1.4171  0.3610
10668TIP3    H253496   0.179   6.225  11.741  1.7938  0.1346  0.2362
10669TIP3   OH253497   6.031   1.670  11.246 -0.7792  0.4390  0.1222
10669TIP3    H153498   6.043   1.735  11.316 -1.1386 -0.5150  1.1062
10669TIP3    H253499   5.954   1.621  11.272  0.7093 -1.8016  0.5849
10670TIP3   OH253500   2.508   0.749  15.152 -0.1351 -0.2219 -0.5058
10670TIP3    H153501   2.439   0.776  15.091 -1.1565  2.1071  1.5443
10670TIP3    H253502   2.590   0.771  15.106 -0.8725  1.3334 -1.1383
10671TIP3   OH253503   4.743   4.333   0.271 -0.5293 -0.6699 -0.1576
10671TIP3    H153504   4.730   4.416   0.224  2.5243 -0.9005 -1.6706
10671TIP3    H253505   4.684   4.272   0.228 -0.4987  0.0183 -1.2145
10672TIP3   OH253506   6.079   5.459   3.587  0.6131 -0.1391 -0.3773
10672TIP3    H153507   6.082   5.449   3.682  0.5547 -2.4764 -0.5671
10672TIP3    H253508   5.986   5.448   3.565  0.9118 -2.2699 -0.8617
10673TIP3   OH253509   6.197   4.576   2.052  0.3093 -0.1773  0.4675
10673TIP3    H153510   6.287   4.601   2.034  0.7317 -1.8966  0.0891
10673TIP3    H253511   6.186   4.593   2.146  0.7144  0.8975  0.3361
10674TIP3   OH253512   4.674   1.406   2.502  0.1180 -0.1286 -0.0999
10674TIP3    H153513   4.753   1.452   2.531 -0.5889  0.9750  0.1110
10674TIP3    H253514   4.668   1.330   2.561 -0.3637  1.1548  1.5979
10675TIP3   OH253515   3.857   6.814   0.609  0.5387  0.2976  0.5266
10675TIP3    H153516   3.905   6.797   0.690 -1.0930 -0.5254  1.3778
10675TIP3    H253517   3.869   6.735   0.556  1.4120  0.7426  0.0264
10676TIP3   OH253518   4.251   6.347  13.694  0.3320 -0.6311  0.0376
10676TIP3    H153519   4.176   6.342  13.634  0.0238 -0.2196  0.3809
10676TIP3    H253520   4.318   6.293  13.652 -0.5818 -2.0833  0.3415
10677TIP3   OH253521   1.055   1.961   3.609 -0.1166  0.8021  0.3602
10677TIP3    H153522   1.034   1.880   3.563  0.0240  0.5924  0.6515
10677TIP3    H253523   1.008   1.954   3.692  1.5337  0.0264  1.2955
10678TIP3   OH253524   6.653   6.229  12.169 -0.2512  0.0371 -0.2992
10678TIP3    H153525   6.608   6.282  12.235  0.4176  1.0795 -0.6519
10678TIP3    H253526   6.739   6.212  12.207 -0.5113 -0.9795 -0.1181
10679TIP3   OH253527   5.044   3.449   4.518 -0.3916  0.4763  0.2068
10679TIP3    H153528   5.087   3.520   4.470  0.9670 -0.4789 -0.0462
10679TIP3    H253529   5.043   3.479   4.609 -1.7465  1.7010 -0.1639
10680TIP3   OH253530   4.979   6.450   5.222  0.2068  0.1782  0.1246
10680TIP3    H153531   4.893   6.488   5.204  0.1844 -0.2251 -0.6873
10680TIP3    H253532   5.008   6.492   5.302 -1.2845 -0.5485  1.0988
10681TIP3   OH253533   1.364   6.329  13.342 -0.4238 -0.3835 -0.4958
10681TIP3    H153534   1.448   6.345  13.297 -0.6744 -1.4576 -1.3636
10681TIP3    H253535   1.373   6.242  13.380 -0.6919  0.0079  0.5143
10682TIP3   OH253536   2.003   2.402  16.020  0.1965 -0.4016  0.1097
10682TIP3    H153537   2.011   2.479  16.076  1.7895  0.6863 -1.4945
10682TIP3    H253538   1.911   2.402  15.993 -0.1764  0.0494  1.2829
10683TIP3   OH253539   3.861   0.220  13.746  0.1676  0.1091 -0.3307
10683TIP3    H153540   3.936   0.210  13.688  0.0174 -0.4830 -0.4264
10683TIP3    H253541   3.788   0.184  13.697 -0.4189  1.6967 -0.6958
10684TIP3   OH253542   2.530   3.426   4.195  0.0076 -0.4509  0.1439
10684TIP3    H153543   2.492   3.339   4.202  0.6983 -0.8118 -0.4716
10684TIP3    H253544   2.611   3.422   4.246  0.1036 -0.2041  0.0153
10685TIP3   OH253545   3.870   3.414  13.523  0.3196  0.2287 -0.4330
10685TIP3    H153546   3.859   3.327  13.483 -0.2181 -0.3369  0.8695
10685TIP3    H253547   3.938   3.401  13.589 -0.0394  0.7118  0.0339
10686TIP3   OH253548   6.102   5.213  16.696  0.3088 -0.5265  0.2579
10686TIP3    H153549   6.112   5.194  16.789  1.6040  1.7104  0.6592
10686TIP3    H253550   6.029   5.158  16.667 -0.0476 -1.3464  2.5568
10687TIP3   OH253551   3.652   1.615   2.001 -0.0417  0.0122  0.1724
10687TIP3    H153552   3.607   1.652   2.077 -3.2699 -2.8355 -0.0778
10687TIP3    H253553   3.731   1.575   2.036 -0.3702  0.6139  1.6528
10688TIP3   OH253554   0.367   3.994  14.438  0.2237  0.3585  0.0490
10688TIP3    H153555   0.402   4.043  14.363  0.1308  1.3210  0.6150
10688TIP3    H253556   0.317   4.059  14.487 -2.6742 -1.0340 -0.8961
10689TIP3   OH253557   2.658   2.461  11.112 -0.8779 -0.0236  0.2658
10689TIP3    H153558   2.719   2.445  11.184  0.8246  1.2540 -0.8033
10689TIP3    H253559   2.678   2.394  11.047  0.0945  0.9232 -0.4653
10690TIP3   OH253560   4.559   2.416   4.477 -0.5581  0.0420 -0.1951
10690TIP3    H153561   4.580   2.504   4.447  0.8829 -0.4739 -0.7801
10690TIP3    H253562   4.498   2.382   4.411  0.6000 -0.1691 -1.1820
10691TIP3   OH253563   0.283   4.365  13.756  0.1258 -0.2728 -0.3884
10691TIP3    H153564   0.215   4.356  13.689 -0.3674  1.0475 -0.0828
10691TIP3    H253565   0.239   4.341  13.838  0.4372 -0.8247 -0.3758
10692TIP3   OH253566   2.055   4.364  14.502  0.1833  0.5157 -0.4571
10692TIP3    H153567   2.055   4.460  14.499 -1.4140  0.5408 -0.6206
10692TIP3    H253568   1.988   4.342  14.566  0.1168 -0.5073 -0.8621
10693TIP3   OH253569   3.780   3.886   1.374 -0.3487 -0.3807 -0.5456
10693TIP3    H153570   3.847   3.826   1.341  0.4448 -0.0791  0.4764
10693TIP3    H253571   3.825   3.969   1.387 -0.6985 -0.4130  1.0028
10694TIP3   OH253572   2.937   5.310   4.132  0.4562 -1.3262  0.1438
10694TIP3    H153573   2.903   5.221   4.120  0.5420 -1.2842 -0.4697
10694TIP3    H253574   2.885   5.347   4.203 -0.3862 -1.4665 -0.3899
10695TIP3   OH253575   6.210   3.723   1.104  0.1653  0.3207  0.6047
10695TIP3    H153576   6.240   3.644   1.059 -1.5343  0.0199 -0.0819
10695TIP3    H253577   6.265   3.728   1.182  0.2066 -1.6394  0.7534
10696TIP3   OH253578   0.479   0.131   3.083  1.1545  0.4351 -0.1998
10696TIP3    H153579   0.495   0.159   2.993 -0.8249 -1.5951 -1.2594
10696TIP3    H253580   0.459   0.038   3.077  0.1613  0.4120  2.2382
10697TIP3   OH253581   5.847   1.018  13.715 -0.1565  0.1063 -0.5148
10697TIP3    H153582   5.774   1.063  13.756 -0.4757  0.8219 -1.8443
10697TIP3    H253583   5.924   1.069  13.741 -0.2017 -0.1619  0.1845
10698TIP3   OH253584   0.666   0.469   2.992  0.3585  0.3912 -0.3585
10698TIP3    H153585   0.610   0.448   2.917 -0.2452 -0.7333  0.3860
10698TIP3    H253586   0.626   0.423   3.065  1.3550  0.8893  0.5222
10699TIP3   OH253587   1.473   0.147  13.926 -0.0461 -0.5353 -0.6306
10699TIP3    H153588   1.488   0.090  14.001  0.5450  1.3708  0.7903
10699TIP3    H253589   1.494   0.093  13.850  3.4074 -1.4258  0.7446
10700TIP3   OH253590   6.099   6.339   0.079 -0.2068  0.8420  0.1447
10700TIP3    H153591   6.174   6.395   0.100 -0.7819  0.3811  4.1701
10700TIP3    H253592   6.023   6.396   0.084 -0.3966  0.7781 -1.4178
10701TIP3   OH253593   3.143   4.591   0.414 -0.3091  0.2514 -0.0684
10701TIP3    H153594   3.090   4.668   0.431 -0.0191  0.4951 -0.2616
10701TIP3    H253595   3.220   4.624   0.369 -0.1615 -0.1458 -0.1133
10702TIP3   OH253596   6.843   2.707  14.750 -0.1460 -0.0220  0.0550
10702TIP3    H153597   6.882   2.661  14.675  0.5113 -1.4369  1.1969
10702TIP3    H253598   6.760   2.662  14.765 -0.3255  0.3259  0.1048
10703TIP3   OH253599   1.051   4.065   4.545  0.3595  0.2245 -0.1144
10703TIP3    H153600   1.062   4.031   4.634 -0.4507  0.0051 -0.0936
10703TIP3    H253601   1.070   3.990   4.488  1.0470  0.4087 -0.1441
10704TIP3   OH253602   3.389   2.584  11.019  0.6483 -0.5322  0.2655
10704TIP3    H153603   3.344   2.556  10.940  0.0516  0.7834  0.1036
10704TIP3    H253604   3.354   2.672  11.036  0.6954 -0.8190  2.0327
10705TIP3   OH253605   3.616   6.382  16.366 -0.1881  0.5380  0.2994
10705TIP3    H153606   3.709   6.368  16.379 -0.4380 -0.4438  1.1350
10705TIP3    H253607   3.608   6.476  16.348  0.6702  1.2953  3.3072
10706TIP3   OH253608   4.533   2.682  11.469  0.0657 -0.3354  0.3051
10706TIP3    H153609   4.449   2.665  11.513 -0.2493 -1.8746 -0.8025
10706TIP3    H253610   4.577   2.597  11.468  0.9343  0.1080 -0.5939
10707TIP3   OH253611   5.768   3.256  15.948 -0.5669 -0.2928 -0.5832
10707TIP3    H153612   5.720   3.228  15.870 -0.9629  0.9241 -0.8024
10707TIP3    H253613   5.717   3.221  16.021 -0.1027 -1.5821 -0.8602
10708TIP3   OH253614   0.068   1.788   1.726 -0.6318 -0.0939 -0.7233
10708TIP3    H153615   0.053   1.694   1.738  1.7730 -0.3144  1.1285
10708TIP3    H253616   0.163   1.798   1.730 -0.7894  2.3529 -1.6655
10709TIP3   OH253617   2.136   6.191   1.030 -0.0539 -0.0971  0.0239
10709TIP3    H153618   2.133   6.104   1.069  2.0699 -0.6459 -0.9018
10709TIP3    H253619   2.047   6.205   0.997 -0.5880 -1.6658  0.6880
10710TIP3   OH253620   0.077   3.929   1.379  0.3776 -0.1468 -0.3907
10710TIP3    H153621   0.170   3.912   1.368  0.6084  0.5265  0.3954
10710TIP3    H253622   0.057   3.896   1.467  0.1826  0.8866 -0.0340
10711TIP3   OH253623   5.635   3.945   2.845 -0.7404 -0.1074 -0.0300
10711TIP3    H153624   5.692   4.018   2.869 -1.6455  0.8470 -0.7575
10711TIP3    H253625   5.676   3.869   2.887  2.0034  0.2510 -1.8263
10712TIP3   OH253626   0.058   0.533   2.455  0.5896 -0.1999  1.1230
10712TIP3    H153627   0.149   0.529   2.484  0.6036 -1.4929  0.9442
10712TIP3    H253628   0.064   0.548   2.361  0.5551  2.6077  1.4836
10713TIP3   OH253629   2.525   0.525  13.871 -0.3446 -0.0488 -0.0114
10713TIP3    H153630   2.481   0.444  13.897 -1.2695 -0.5441 -2.7187
10713TIP3    H253631   2.523   0.522  13.775  0.5978  2.6653 -0.1738
10714TIP3   OH253632   2.986   4.449   6.279  0.3300  0.1286  0.1268
10714TIP3    H153633   2.973   4.354   6.277  0.5804  0.0934 -1.3310
10714TIP3    H253634   3.014   4.471   6.190  1.9724  1.3386  0.8797
10715TIP3   OH253635   1.474   1.830  16.647  0.7784  0.5424 -0.2803
10715TIP3    H153636   1.556   1.811  16.602  0.7076  0.1616 -0.2529
10715TIP3    H253637   1.493   1.818  16.740  0.5292 -0.2034 -0.3142
10716TIP3   OH253638   5.324   0.387   0.219 -0.0453 -0.0912 -0.0164
10716TIP3    H153639   5.373   0.330   0.278 -0.9101  0.4353  1.2362
10716TIP3    H253640   5.337   0.349   0.132 -0.2446 -1.9334  0.7325
10717TIP3   OH253641   1.785   1.812   5.640 -0.3051 -0.1246 -0.1440
10717TIP3    H153642   1.774   1.851   5.726  0.7380 -0.2585  0.0629
10717TIP3    H253643   1.699   1.820   5.599 -0.9120 -0.3838  1.0317
10718TIP3   OH253644   0.520   5.176  15.579  0.2597  0.4549  0.5638
10718TIP3    H153645   0.579   5.244  15.547  0.4360 -0.4226 -1.0959
10718TIP3    H253646   0.440   5.222  15.602 -0.4890  1.0507 -2.7402
10719TIP3   OH253647   2.412   4.655   2.769 -0.5710 -0.2090  0.2881
10719TIP3    H153648   2.434   4.562   2.763  0.6880  0.1204 -0.8303
10719TIP3    H253649   2.484   4.693   2.819 -0.2397  0.3957 -0.6198
10720TIP3   OH253650   6.745   6.320  10.570 -0.2119 -0.5705  0.0489
10720TIP3    H153651   6.788   6.239  10.543  0.3896  0.1514 -1.2458
10720TIP3    H253652   6.674   6.332  10.507  0.0762  0.2191 -0.1301
10721TIP3   OH253653   2.705   4.414   5.424  0.0440  0.5148  0.3762
10721TIP3    H153654   2.788   4.457   5.447 -0.3608  1.4535  0.0994
10721TIP3    H253655   2.640   4.456   5.479 -0.5691  1.1886 -0.8232
10722TIP3   OH253656   0.756   0.480   2.018 -0.2414 -0.9500 -0.2186
10722TIP3    H153657   0.719   0.408   1.967 -1.5974 -0.2073 -0.3239
10722TIP3    H253658   0.691   0.497   2.086 -1.3005  1.8888 -1.7637
10723TIP3   OH253659   2.781   2.657   4.743  0.0617  0.7064 -0.5095
10723TIP3    H153660   2.813   2.688   4.658 -1.5871  0.9609 -1.0558
10723TIP3    H253661   2.787   2.562   4.738  0.0419  0.7237 -0.8756
10724TIP3   OH253662   5.441   1.101  16.327 -0.4499 -0.1390  0.2358
10724TIP3    H153663   5.466   1.113  16.419 -0.4787  1.7985  0.0381
10724TIP3    H253664   5.346   1.108  16.327 -0.4976 -0.7373  0.1164
10725TIP3   OH253665   6.427   1.990  15.333 -0.7436  0.0877  0.3782
10725TIP3    H153666   6.455   2.043  15.408 -0.3567  1.3027 -0.5934
10725TIP3    H253667   6.461   1.903  15.352 -0.3568  0.4463  1.4488
10726TIP3   OH253668   4.771   3.307   4.620 -0.3291 -0.6783 -0.0695
10726TIP3    H153669   4.724   3.234   4.581 -1.9963  0.8889 -1.1952
10726TIP3    H253670   4.772   3.374   4.551  1.9264  0.0820  0.5884
10727TIP3   OH253671   1.705   0.879  12.254  0.3805 -0.5425 -1.0494
10727TIP3    H153672   1.688   0.836  12.171 -0.9415  0.1473 -1.1551
10727TIP3    H253673   1.619   0.889  12.294  0.7882  0.8536 -0.4586
10728TIP3   OH253674   6.109   4.076   2.665 -0.0201  0.2570  0.4157
10728TIP3    H153675   6.074   4.140   2.728  1.8460  1.2209  0.5213
10728TIP3    H253676   6.187   4.040   2.707  0.3492 -0.2806 -0.6798
10729TIP3   OH253677   6.709   6.043   2.142 -0.0909 -0.0474  0.2081
10729TIP3    H153678   6.615   6.061   2.152  0.0844  0.5896  0.7475
10729TIP3    H253679   6.713   5.977   2.072 -0.8738  0.6019 -0.4667
10730TIP3   OH253680   4.117   1.888   3.647 -0.0714  0.0776 -0.2608
10730TIP3    H153681   4.156   1.802   3.659  0.0313  0.1743  0.1148
10730TIP3    H253682   4.145   1.916   3.560 -0.7380 -0.5958 -0.7003
10731TIP3   OH253683   0.951   4.822  12.374 -0.1947 -0.4063  0.8412
10731TIP3    H153684   0.880   4.848  12.432 -0.5312 -0.0797  0.2961
10731TIP3    H253685   0.985   4.741  12.412 -1.0268 -0.7054  0.9760
10732TIP3   OH253686   4.087   3.402   1.103 -0.1592  0.5253 -0.0698
10732TIP3    H153687   4.057   3.477   1.053 -1.2395 -1.0848 -1.9918
10732TIP3    H253688   4.015   3.339   1.098  0.6982 -0.6446  1.4581
10733TIP3   OH253689   2.604   5.006   4.872 -0.0008 -0.6222  0.3096
10733TIP3    H153690   2.697   5.004   4.895  0.3949  0.2125 -1.0949
10733TIP3    H253691   2.582   5.099   4.869 -0.2449 -0.7061 -1.6860
10734TIP3   OH253692   1.052   2.419   4.298 -0.3159  0.1421  0.0010
10734TIP3    H153693   1.107   2.375   4.363 -0.3497  1.1334  0.7377
10734TIP3    H253694   1.012   2.348   4.248  2.5215 -0.6465 -1.3758
10735TIP3   OH253695   2.381   3.820   1.340 -0.2632 -0.4789 -0.4362
10735TIP3    H153696   2.355   3.763   1.268  0.9501 -0.7814 -0.6524
10735TIP3    H253697   2.474   3.839   1.324 -0.7763  2.1777 -0.7974
10736TIP3   OH253698   0.010   4.833  15.101  0.3411 -0.5206  0.6856
10736TIP3    H153699  -0.006   4.874  15.017  0.2659  0.3516  1.1172
10736TIP3    H253700   0.105   4.840  15.113  0.2372  0.2803  1.1248
10737TIP3   OH253701   5.891   5.747  15.087 -0.0676  0.1446  0.0995
10737TIP3    H153702   5.965   5.738  15.027 -1.0320 -2.2900 -0.8570
10737TIP3    H253703   5.820   5.780  15.032 -0.0725  1.2654  0.7415
10738TIP3   OH253704   3.545   2.920   3.056 -0.4185 -0.4289  0.4753
10738TIP3    H153705   3.453   2.944   3.051 -0.5457 -0.7758  1.0305
10738TIP3    H253706   3.572   2.945   3.145  0.3783  0.8701 -0.0961
10739TIP3   OH253707   3.833   6.366  11.317  0.4114  0.5795 -0.4923
10739TIP3    H153708   3.841   6.291  11.259 -0.1555  0.0369  0.1174
10739TIP3    H253709   3.908   6.360  11.376 -0.1880 -0.1071  0.2217
10740TIP3   OH253710   1.064   6.560  16.388  0.1310 -0.3335  0.1245
10740TIP3    H153711   1.109   6.584  16.469 -0.8222 -0.5998  0.7477
10740TIP3    H253712   1.083   6.467  16.376  1.3051 -0.0147 -0.6494
10741TIP3   OH253713   0.642   0.533   2.299  0.8293  0.2380 -0.1418
10741TIP3    H153714   0.619   0.609   2.353 -1.5406 -0.5927  0.1135
10741TIP3    H253715   0.736   0.520   2.314  0.4894  0.7545  2.8560
10742TIP3   OH253716   5.653   2.257  15.359  0.0471  0.3858 -0.3076
10742TIP3    H153717   5.711   2.272  15.434  2.1136  0.9849 -1.9159
10742TIP3    H253718   5.581   2.204  15.394  1.4845 -0.2674  1.8487
10743TIP3   OH253719   2.906   0.867  10.946 -0.1228  0.2388  0.0394
10743TIP3    H153720   2.862   0.949  10.971 -2.1159 -0.7180 -0.1701
10743TIP3    H253721   2.875   0.849  10.858 -1.4812 -1.8444  0.8725
10744TIP3   OH253722   5.279   2.189  11.124  0.0987  0.0125  0.4008
10744TIP3    H153723   5.299   2.110  11.074 -1.1467 -1.0059  1.4416
10744TIP3    H253724   5.185   2.200  11.116  0.2711  1.5024  0.1461
10745TIP3   OH253725   6.779   5.351   5.022  0.2297 -0.2156  0.1762
10745TIP3    H153726   6.848   5.412   5.049  0.0634  0.2588 -0.4366
10745TIP3    H253727   6.735   5.396   4.950 -0.7363 -0.4964  0.5667
10746TIP3   OH253728   0.761   4.994  10.960  0.2489  0.1800  0.1429
10746TIP3    H153729   0.844   4.957  10.989 -0.4887 -0.9202  0.9713
10746TIP3    H253730   0.695   4.935  10.998 -0.8910  0.8968 -0.6778
10747TIP3   OH253731   0.380   3.548   5.213  0.3287  0.2537 -0.4333
10747TIP3    H153732   0.439   3.483   5.252  1.5614  1.2534 -0.5430
10747TIP3    H253733   0.404   3.549   5.120  2.0514  2.4874 -0.0737
10748TIP3   OH253734   3.740   4.775   4.551  0.5678  0.0875 -0.1469
10748TIP3    H153735   3.675   4.708   4.573  0.8516 -0.6370 -1.4128
10748TIP3    H253736   3.820   4.725   4.535  1.0392  0.8378 -0.1503
10749TIP3   OH253737   2.383   2.090   2.602  0.1613 -0.0749  0.1712
10749TIP3    H153738   2.452   2.147   2.569 -0.1420  0.2320  0.0678
10749TIP3    H253739   2.408   2.003   2.571  1.8926 -0.4382  2.2902
10750TIP3   OH253740   0.840   3.677  11.780  0.0138 -0.3561 -0.0109
10750TIP3    H153741   0.899   3.685  11.705 -0.3146  1.3674 -0.1214
10750TIP3    H253742   0.776   3.610  11.753 -0.3114  0.4880 -1.4450
10751TIP3   OH253743   3.142   3.181  12.254  0.4591 -0.1887  0.4510
10751TIP3    H153744   3.191   3.112  12.299  0.5299  0.4821  1.4302
10751TIP3    H253745   3.209   3.235  12.212  0.3428 -1.4924 -1.5288
10752TIP3   OH253746   5.435   5.048  13.702  0.0638  0.8753 -0.6382
10752TIP3    H153747   5.347   5.069  13.734  0.5260  2.2224 -0.1675
10752TIP3    H253748   5.474   5.133  13.682  0.9580  0.2378 -1.6788
10753TIP3   OH253749   2.739   1.878   1.048  0.4665  0.6388 -0.0979
10753TIP3    H153750   2.661   1.924   1.018 -0.0027  0.1324  0.3411
10753TIP3    H253751   2.797   1.948   1.079  0.2620  1.0271 -0.5664
10754TIP3   OH253752   0.397   5.575  16.075 -0.3977  0.4715 -0.0817
10754TIP3    H153753   0.332   5.623  16.024 -0.0811  0.4380 -0.5172
10754TIP3    H253754   0.438   5.642  16.131 -1.1937  0.3966  0.6117
10755TIP3   OH253755   3.518   4.669  11.700  0.4834 -0.1276  0.1927
10755TIP3    H153756   3.473   4.585  11.715 -0.9438  0.8507  1.7105
10755TIP3    H253757   3.450   4.726  11.665  1.3918  0.4807 -0.6124
10756TIP3   OH253758   5.514   4.416  13.643  0.2884 -0.2541  0.1346
10756TIP3    H153759   5.512   4.511  13.655  1.1568 -0.2292  0.1082
10756TIP3    H253760   5.434   4.386  13.686  0.4843  0.3994  0.9901
10757TIP3   OH253761   2.459   4.601   4.748 -0.1261 -0.2868 -0.2302
10757TIP3    H153762   2.376   4.554   4.741 -0.3582 -0.2079  1.5431
10757TIP3    H253763   2.526   4.535   4.732 -0.5038 -0.4071 -1.4159
10758TIP3   OH253764   4.238   4.409  13.815 -0.1294  0.2933 -0.7502
10758TIP3    H153765   4.276   4.322  13.828 -0.4879  0.5657  3.5594
10758TIP3    H253766   4.261   4.432  13.725  2.7599 -2.9147 -1.0395
10759TIP3   OH253767   4.205   1.292  11.099  0.3924  0.0732 -0.3067
10759TIP3    H153768   4.187   1.203  11.130  0.6354  0.2325  0.3146
10759TIP3    H253769   4.199   1.287  11.004  1.3158 -0.8041 -0.3216
10760TIP3   OH253770   6.798   6.338   1.593  0.2189 -0.0872 -0.0827
10760TIP3    H153771   6.892   6.340   1.578  0.2014  1.0057 -0.1130
10760TIP3    H253772   6.771   6.251   1.563  1.1530 -0.2648 -0.4439
10761TIP3   OH253773   4.089   3.175   4.539  0.3130  0.3640 -0.3631
10761TIP3    H153774   4.162   3.120   4.566 -0.2717 -0.6557 -0.7759
10761TIP3    H253775   4.040   3.192   4.619  0.3736  0.0709 -0.2615
10762TIP3   OH253776   2.285   4.282   0.764 -0.0371  0.6162  0.6037
10762TIP3    H153777   2.306   4.356   0.820 -0.8228  0.4221  1.1721
10762TIP3    H253778   2.278   4.319   0.676  0.5560  1.0356  0.7327
10763TIP3   OH253779   3.464   1.565   5.834 -0.2223  0.0328 -0.0748
10763TIP3    H153780   3.426   1.485   5.870  1.7020 -0.1901  1.5906
10763TIP3    H253781   3.550   1.540   5.801 -0.7177  0.8764 -2.2188
10764TIP3   OH253782   0.226   2.047  15.262 -0.2266  0.2548 -0.1103
10764TIP3    H153783   0.231   2.044  15.166  2.1597 -1.1490 -0.0247
10764TIP3    H253784   0.187   1.963  15.286  0.1020  0.1879  0.1876
10765TIP3   OH253785   2.076   3.827   3.752 -0.2077  0.2177 -0.3307
10765TIP3    H153786   1.998   3.782   3.783 -0.0718  0.1555 -0.0726
10765TIP3    H253787   2.063   3.918   3.778  1.0595 -0.2393  2.3168
10766TIP3   OH253788   6.207   5.104   1.308  0.0155 -0.7863  0.4117
10766TIP3    H153789   6.184   5.013   1.290  2.1799 -1.3578  0.2545
10766TIP3    H253790   6.201   5.112   1.403 -0.0753 -1.1118  0.4359
10767TIP3   OH253791   2.250   4.416   1.270 -0.0297 -0.0737  0.2536
10767TIP3    H153792   2.276   4.503   1.302 -0.9170  0.5698 -0.7290
10767TIP3    H253793   2.308   4.356   1.317 -0.9436  0.8372  2.7340
10768TIP3   OH253794   6.769   4.813  13.688 -0.1110 -0.4193  0.0223
10768TIP3    H153795   6.709   4.857  13.749 -0.6821 -2.3339  0.9548
10768TIP3    H253796   6.736   4.836  13.601 -1.6215 -0.6334  0.5075
10769TIP3   OH253797   5.372   3.941   2.352 -0.6115 -0.0460 -0.1126
10769TIP3    H153798   5.422   3.861   2.339 -1.1359 -0.2912 -0.6599
10769TIP3    H253799   5.431   3.998   2.402 -0.4143 -0.9421  0.7110
10770TIP3   OH253800   2.863   5.457   3.590  0.0405 -0.0404  0.3754
10770TIP3    H153801   2.956   5.439   3.573 -0.0316 -1.2429  1.0815
10770TIP3    H253802   2.857   5.465   3.685 -0.3749  1.3878  0.2444
10771TIP3   OH253803   4.906   2.772  11.620  0.4991 -0.0643  0.3910
10771TIP3    H153804   4.952   2.730  11.547 -0.7470 -0.3968 -0.2323
10771TIP3    H253805   4.877   2.700  11.675  6.1678  0.0814  4.5376
10772TIP3   OH253806   4.819   2.951   5.521 -0.0484  0.3833 -0.3326
10772TIP3    H153807   4.814   2.943   5.426 -0.4142  1.8224 -0.4632
10772TIP3    H253808   4.904   2.991   5.537  0.1467 -0.1505 -0.0260
10773TIP3   OH253809   2.307   4.295  12.816 -0.1748 -0.6991 -0.0243
10773TIP3    H153810   2.321   4.270  12.724  1.1296 -1.0126  0.2409
10773TIP3    H253811   2.267   4.218  12.856  0.5183 -1.0712 -0.0293
10774TIP3   OH253812   4.619   6.357   1.032  0.4649 -0.4777  0.2047
10774TIP3    H153813   4.531   6.317   1.035  0.4519 -0.4573  0.1141
10774TIP3    H253814   4.622   6.415   1.108 -0.4564  1.2941 -1.0187
10775TIP3   OH253815   3.389   5.614  11.013  0.0523 -0.5843  0.6150
10775TIP3    H153816   3.310   5.559  11.013  0.1336 -0.7155 -0.5776
10775TIP3    H253817   3.395   5.645  11.104 -1.5836 -0.2538  0.6523
10776TIP3   OH253818   3.298   5.898  15.470  0.5288  0.1395 -0.1583
10776TIP3    H153819   3.359   5.910  15.397 -0.0674 -0.0529 -0.7067
10776TIP3    H253820   3.268   5.986  15.491  1.3571  0.2879  0.4446
10777TIP3   OH253821   0.890   1.365   0.165  0.3343  0.4973 -0.4956
10777TIP3    H153822   0.829   1.390   0.095  0.7487 -0.1459 -1.0963
10777TIP3    H253823   0.942   1.294   0.128 -1.0099 -1.5126  1.2381
10778TIP3   OH253824   1.658   5.826  14.711  0.2391 -0.2414  0.1737
10778TIP3    H153825   1.629   5.734  14.710 -0.9836  0.0634 -2.5030
10778TIP3    H253826   1.743   5.825  14.666 -0.9983  0.1430 -2.3766
10779TIP3   OH253827   0.937   3.988   4.138  0.2347  0.0397  0.2201
10779TIP3    H153828   0.955   3.903   4.097 -3.4479 -0.3986 -0.8862
10779TIP3    H253829   0.872   3.968   4.206 -0.3300  1.8885  0.2730
10780TIP3   OH253830   1.345   2.250   0.700  0.0467  0.3081 -0.3850
10780TIP3    H153831   1.428   2.288   0.732 -0.5192 -0.3531  2.0969
10780TIP3    H253832   1.286   2.256   0.775 -0.9761 -2.7759 -0.7998
10781TIP3   OH253833   3.568   6.425  12.049 -0.4234  0.1872  0.6584
10781TIP3    H153834   3.495   6.375  12.012  0.2796  0.3653 -1.0596
10781TIP3    H253835   3.576   6.501  11.991  1.4203 -0.0809  0.5061
10782TIP3   OH253836   0.998   1.118   4.431 -0.0181 -0.6881 -0.4563
10782TIP3    H153837   1.090   1.124   4.457  0.2750  0.2515 -1.6382
10782TIP3    H253838   0.978   1.204   4.394 -1.7741 -0.3918  0.9950
10783TIP3   OH253839   5.562   0.211   3.196 -0.1192  0.6997  0.2769
10783TIP3    H153840   5.558   0.280   3.130 -0.2786  0.5514  0.1289
10783TIP3    H253841   5.589   0.133   3.147 -3.0313 -0.1182 -0.2289
10784TIP3   OH253842   2.097   5.859   2.100  0.2419  0.5396  0.4391
10784TIP3    H153843   2.065   5.871   2.189  0.1995  0.1100  0.4867
10784TIP3    H253844   2.071   5.769   2.077  1.1434  0.2816  0.3678
10785TIP3   OH253845   2.808   5.283   1.484  0.0448  0.2129 -0.3919
10785TIP3    H153846   2.854   5.200   1.474 -0.0589  0.0157  0.6760
10785TIP3    H253847   2.717   5.259   1.498 -0.4014  0.5930 -2.2533
10786TIP3   OH253848   5.580   2.401  10.372  0.4721 -0.5105 -0.6798
10786TIP3    H153849   5.533   2.346  10.309 -0.1595 -0.6131 -0.1306
10786TIP3    H253850   5.625   2.339  10.429 -0.5540 -0.4908  0.1814
10787TIP3   OH253851   2.129   5.414   3.222  0.0825  0.8231 -0.7314
10787TIP3    H153852   2.172   5.416   3.308  1.2667  2.4472 -1.3078
10787TIP3    H253853   2.036   5.428   3.242 -0.8148 -4.6448  0.7199
10788TIP3   OH253854   2.948   1.126  15.540 -0.2966 -0.3154 -0.2261
10788TIP3    H153855   2.932   1.171  15.457  3.1365  1.1568 -0.2627
10788TIP3    H253856   2.953   1.033  15.516 -0.4838 -0.0326 -1.4543
10789TIP3   OH253857   3.633   5.357   0.008  0.1699  0.2136  0.0472
10789TIP3    H153858   3.699   5.324  -0.052 -0.1320  0.3749 -0.3766
10789TIP3    H253859   3.604   5.440  -0.030  1.4967  1.4213  1.4981
10790TIP3   OH253860   3.154   4.656   0.750  0.2499 -0.1288  0.3005
10790TIP3    H153861   3.183   4.652   0.842  1.0252 -1.1649  0.0288
10790TIP3    H253862   3.235   4.670   0.701  0.1478 -1.7462 -0.3786
10791TIP3   OH253863   0.894   0.518   0.322  0.0674  0.0686  0.5249
10791TIP3    H153864   0.932   0.431   0.333  0.8323  0.5267  1.5864
10791TIP3    H253865   0.897   0.533   0.227  3.1156  0.3102  0.5577
10792TIP3   OH253866   1.185   1.331   2.304  0.0349 -0.1559 -0.7593
10792TIP3    H153867   1.196   1.252   2.250  0.5424 -0.2302 -0.5466
10792TIP3    H253868   1.095   1.325   2.336  0.7737 -1.8664  1.1778
10793TIP3   OH253869   4.078   6.220  12.250  0.4045  0.2924 -0.0994
10793TIP3    H153870   4.131   6.144  12.270  0.7475  0.1442 -1.4565
10793TIP3    H253871   4.137   6.295  12.262 -0.1081  0.4311  1.8483
10794TIP3   OH253872   4.921   3.714   1.959 -0.4412 -0.3086  0.5253
10794TIP3    H153873   4.989   3.668   1.909 -1.2766 -0.4359 -0.5524
10794TIP3    H253874   4.942   3.696   2.050  0.5618 -0.9413  0.1918
10795TIP3   OH253875   4.642   6.837  17.063 -0.9135 -0.5115 -0.4301
10795TIP3    H153876   4.665   6.930  17.068 -1.7076 -0.3136 -0.1871
10795TIP3    H253877   4.725   6.791  17.068 -0.4864  0.1995 -0.8421
10796TIP3   OH253878   3.197   0.167  13.600  0.1939 -0.0777 -0.4387
10796TIP3    H153879   3.271   0.217  13.635 -0.2515  0.1097  0.2567
10796TIP3    H253880   3.232   0.123  13.523  0.6339  1.2167 -1.0018
10797TIP3   OH253881   0.183   6.167  14.894  0.2404  0.1658  0.2126
10797TIP3    H153882   0.248   6.231  14.867  2.2591 -2.1521 -0.8151
10797TIP3    H253883   0.179   6.174  14.989  3.0122 -0.4311  0.4517
10798TIP3   OH253884   0.171   5.470   4.712 -0.5136 -0.0526  0.2059
10798TIP3    H153885   0.113   5.544   4.729  0.7863  0.3728  3.7898
10798TIP3    H253886   0.182   5.428   4.798  1.4964 -2.3622 -1.0436
10799TIP3   OH253887   0.275   4.985   5.517  0.3927  0.0933  0.1797
10799TIP3    H153888   0.253   4.997   5.609 -1.9946 -1.1338 -0.1436
10799TIP3    H253889   0.319   4.899   5.514  1.3702  0.5720  0.2582
10800TIP3   OH253890   6.840   0.057  13.611 -0.3386 -0.5089  0.1013
10800TIP3    H153891   6.893  -0.006  13.563 -0.7594  0.3172 -1.5231
10800TIP3    H253892   6.768   0.005  13.647  1.4213 -1.6212  2.2342
10801TIP3   OH253893   6.344   3.356   1.558 -0.3510  0.0296 -0.2111
10801TIP3    H153894   6.320   3.364   1.466  1.1003  0.2514 -0.5879
10801TIP3    H253895   6.342   3.262   1.575 -0.0150 -0.0562 -0.6396
10802TIP3   OH253896   5.292   0.587   6.514 -0.0542 -0.4913 -0.1005
10802TIP3    H153897   5.362   0.546   6.565 -0.3604 -0.8149  0.0694
10802TIP3    H253898   5.215   0.533   6.533 -0.0811 -0.8559 -1.2243
10803TIP3   OH253899   5.944   5.570   4.058 -0.1170 -0.1001 -0.3026
10803TIP3    H153900   5.857   5.595   4.089  0.3847  1.2518  0.0498
10803TIP3    H253901   5.999   5.571   4.136  0.4402  0.0878 -0.6913
10804TIP3   OH253902   3.205   3.167  15.096 -0.2351  0.8932  0.0837
10804TIP3    H153903   3.172   3.092  15.045 -3.3774  1.6292  0.8365
10804TIP3    H253904   3.171   3.153  15.184  0.8262  2.2090  0.7319
10805TIP3   OH253905   1.268   6.770   2.893 -0.2192 -0.1177  0.5580
10805TIP3    H153906   1.357   6.801   2.878 -0.0559 -0.5352  0.6522
10805TIP3    H253907   1.268   6.680   2.860 -0.5709 -0.1601  0.6704
10806TIP3   OH253908   2.152   6.427  11.810  0.7805 -0.7048  0.2731
10806TIP3    H153909   2.229   6.389  11.851  1.5372 -0.3966 -0.8063
10806TIP3    H253910   2.112   6.355  11.762  1.1385 -0.5863 -0.2154
10807TIP3   OH253911   4.653   4.319   5.335  0.0140  0.4598  0.4082
10807TIP3    H153912   4.632   4.352   5.423 -0.0608 -0.5488  0.7778
10807TIP3    H253913   4.746   4.341   5.323  1.1223 -2.6024  2.2812
10808TIP3   OH253914   4.327   4.491   3.045 -0.1168 -0.1443  0.6701
10808TIP3    H153915   4.328   4.542   2.964  2.6244  0.1673  0.8007
10808TIP3    H253916   4.283   4.409   3.022 -2.4568  1.2509 -0.1673
10809TIP3   OH253917   4.790   4.854   3.952 -0.2145  0.4922  0.0462
10809TIP3    H153918   4.852   4.848   4.025  0.5306  1.1772 -0.5051
10809TIP3    H253919   4.710   4.890   3.990 -0.1384  0.0040  0.6880
10810TIP3   OH253920   0.411   3.956  16.879  0.0668  0.8697 -0.0198
10810TIP3    H153921   0.488   3.987  16.832  1.0970 -2.6579 -0.9900
10810TIP3    H253922   0.347   3.935  16.811 -0.2610  0.1828  0.4841
10811TIP3   OH253923   1.774   0.350  14.135  0.0276  0.5963  0.0303
10811TIP3    H153924   1.783   0.284  14.203 -1.4012  1.9756  1.6542
10811TIP3    H253925   1.823   0.425  14.167 -0.1401  1.0582 -0.7533
10812TIP3   OH253926   3.648   2.708  16.330 -0.5027  0.6152  0.3266
10812TIP3    H153927   3.570   2.763  16.322 -0.5493  0.4792 -0.1504
10812TIP3    H253928   3.663   2.702  16.425 -1.9270 -0.5358  0.5194
10813TIP3   OH253929   6.847   0.709  12.104 -0.1674  0.6287  0.3776
10813TIP3    H153930   6.917   0.740  12.162 -0.0709  0.5252  0.3173
10813TIP3    H253931   6.768   0.713  12.158  0.1758 -1.0798  1.0773
10814TIP3   OH253932   6.669   0.609   5.508  0.0037  0.0007 -0.2562
10814TIP3    H153933   6.592   0.570   5.468  0.2173  1.0068 -1.7582
10814TIP3    H253934   6.711   0.657   5.436 -0.3025  3.0303  1.4432
10815TIP3   OH253935   2.776   3.382   4.350  0.0164 -0.0820  0.4100
10815TIP3    H153936   2.781   3.407   4.443  0.3155  0.7062  0.1949
10815TIP3    H253937   2.841   3.312   4.341  1.0023  0.7771  0.5272
10816TIP3   OH253938   5.168   4.367  12.865 -0.1323  0.4873 -0.4695
10816TIP3    H153939   5.126   4.281  12.862 -0.8402  0.7735  0.6665
10816TIP3    H253940   5.258   4.350  12.838 -0.8413 -0.2033 -2.5572
10817TIP3   OH253941   3.334   1.103  16.853 -0.7207 -0.5565  0.1422
10817TIP3    H153942   3.384   1.102  16.935 -0.3387 -0.3250 -0.0844
10817TIP3    H253943   3.355   1.188  16.814 -2.1148  0.0081  0.5505
10818TIP3   OH253944   2.077   2.513  15.723 -0.2909  0.3084 -0.1734
10818TIP3    H153945   2.145   2.573  15.754 -1.1912  1.0258  0.4560
10818TIP3    H253946   2.057   2.458  15.800  0.0401 -0.3592 -0.5517
10819TIP3   OH253947   4.846   2.767  11.048 -0.2578 -0.3888 -0.1526
10819TIP3    H153948   4.936   2.768  11.016 -0.0987 -1.1853  0.2408
10819TIP3    H253949   4.800   2.829  10.993  0.6042  0.2653 -0.1521
10820TIP3   OH253950   4.885   2.319   0.368  0.2669  0.1306 -0.8900
10820TIP3    H153951   4.960   2.299   0.313 -0.3787 -3.9569 -0.5810
10820TIP3    H253952   4.811   2.322   0.307  0.1576  0.1540 -0.7561
10821TIP3   OH253953   1.777   6.134  15.583  0.1405  0.1566  0.1121
10821TIP3    H153954   1.770   6.216  15.633  1.3987 -0.4537  1.3418
10821TIP3    H253955   1.867   6.134  15.551  0.4484 -1.1858  0.9270
10822TIP3   OH253956   2.215   3.751   5.962  0.2053  0.5721 -0.2037
10822TIP3    H153957   2.122   3.752   5.987 -0.1355  3.1979 -1.2312
10822TIP3    H253958   2.217   3.701   5.880  0.1111 -1.2998  0.8598
10823TIP3   OH253959   5.055   5.252  16.375 -0.3393  0.3542  0.0895
10823TIP3    H153960   5.099   5.279  16.456 -0.8654  1.2321  0.0909
10823TIP3    H253961   5.106   5.176  16.345 -0.7282 -0.6167  1.7539
10824TIP3   OH253962   1.273   3.583  12.591 -0.0672 -0.0068 -0.1185
10824TIP3    H153963   1.305   3.493  12.600 -0.3871  0.0546  2.5565
10824TIP3    H253964   1.330   3.634  12.648 -0.8321  1.2258 -0.4201
10825TIP3   OH253965   2.121   3.545  13.856  0.8571 -0.6484  0.1529
10825TIP3    H153966   2.140   3.587  13.772 -2.3817 -0.6087 -0.7085
10825TIP3    H253967   2.160   3.458  13.849  1.7761 -0.1882 -0.8289
10826TIP3   OH253968   1.484   1.664   0.791  0.1151  1.2167 -0.2488
10826TIP3    H153969   1.441   1.708   0.864 -2.0457  0.9545 -1.2866
10826TIP3    H253970   1.440   1.697   0.713  2.0592  1.1588 -1.4556
10827TIP3   OH253971   5.010   4.091   5.838  0.4856 -0.5569 -0.6486
10827TIP3    H153972   5.087   4.098   5.782  0.7400 -1.4502 -0.4313
10827TIP3    H253973   5.014   4.001   5.872  1.1964  0.3838  1.9963
10828TIP3   OH253974   3.194   0.719   3.663  0.1257 -0.0087 -0.9438
10828TIP3    H153975   3.288   0.703   3.669 -0.1760 -2.1642 -1.2843
10828TIP3    H253976   3.156   0.634   3.643 -1.9355  0.7739 -0.6305
10829TIP3   OH253977   5.602   3.428  14.721  0.2096  0.3272 -0.5222
10829TIP3    H153978   5.532   3.454  14.780 -0.5774 -1.1188 -0.7720
10829TIP3    H253979   5.580   3.470  14.637  0.1008  0.5311 -0.3917
10830TIP3   OH253980   6.663   5.386   3.327 -0.1629  0.4451 -0.9756
10830TIP3    H153981   6.570   5.411   3.331 -0.2993  0.0746 -1.7229
10830TIP3    H253982   6.662   5.296   3.295  0.4977  0.7479 -1.8547
10831TIP3   OH253983   6.416   2.457  10.980  0.4632  0.0991 -0.2602
10831TIP3    H153984   6.410   2.543  10.940  1.8162  0.3002 -0.0859
10831TIP3    H253985   6.401   2.473  11.074 -1.0248 -0.1286 -0.4383
10832TIP3   OH253986   2.020   6.625  11.941  0.6680  0.2362  0.7582
10832TIP3    H153987   1.979   6.600  12.024 -0.7554  0.2983  0.0942
10832TIP3    H253988   2.048   6.543  11.902 -1.2664 -0.0998 -0.0138
10833TIP3   OH253989   0.510   0.389  13.825 -0.5230 -0.4447  0.0409
10833TIP3    H153990   0.556   0.471  13.842 -0.0138 -0.8885  0.8129
10833TIP3    H253991   0.418   0.411  13.839 -0.4876  0.2147 -0.6339
10834TIP3   OH253992   1.595   4.255   4.669  0.1144  0.0002  0.5390
10834TIP3    H153993   1.685   4.255   4.634 -0.2814  0.2918 -0.5378
10834TIP3    H253994   1.591   4.334   4.723 -0.4314  1.9904 -2.1395
10835TIP3   OH253995   5.001   3.184   0.428  0.2689  0.1881 -0.3688
10835TIP3    H153996   5.002   3.159   0.520 -0.6529  1.4696  0.0309
10835TIP3    H253997   4.964   3.273   0.428 -0.4342 -0.0570 -2.0250
10836TIP3   OH253998   2.628   0.464   0.166 -0.0344 -0.1717  0.0550
10836TIP3    H153999   2.673   0.386   0.134  0.0391  0.2661 -0.9305
10836TIP3    H254000   2.698   0.520   0.198 -0.0589 -0.3458  0.4250
10837TIP3   OH254001   4.209   3.050   5.304 -0.2154  0.6301 -0.2544
10837TIP3    H154002   4.126   3.082   5.270  0.1284  1.7243 -0.1106
10837TIP3    H254003   4.220   2.963   5.264 -1.2583  0.6160 -0.5256
10838TIP3   OH254004   1.330   2.312  12.323 -0.0688  0.2163 -0.1027
10838TIP3    H154005   1.341   2.349  12.236 -0.3594 -1.6633 -0.9844
10838TIP3    H254006   1.420   2.299  12.355  0.2958 -3.5511 -2.1780
10839TIP3   OH254007   3.920   3.414  14.778 -1.0813  0.3261 -0.2956
10839TIP3    H154008   3.951   3.324  14.768 -2.9132 -0.6288  2.0180
10839TIP3    H254009   3.850   3.422  14.714 -1.1372  0.0039 -0.2766
10840TIP3   OH254010   1.336   1.391  13.313 -0.0630  0.0425  0.9628
10840TIP3    H154011   1.242   1.395  13.298  0.0264  1.1552  0.5579
10840TIP3    H254012   1.373   1.449  13.246  1.1075 -2.0954 -0.3832
10841TIP3   OH254013   2.298   4.477  15.867 -0.2098 -0.8453  1.0256
10841TIP3    H154014   2.317   4.511  15.954 -1.3783  0.2794  0.8633
10841TIP3    H254015   2.207   4.446  15.873 -0.7268  0.3900 -0.1184
10842TIP3   OH254016   1.840   0.280   3.541 -0.1634  0.1648  0.3475
10842TIP3    H154017   1.819   0.362   3.586  0.2040  0.7397 -0.5043
10842TIP3    H254018   1.858   0.306   3.450 -0.5164 -0.9186 -0.0511
10843TIP3   OH254019   5.236   1.060   4.962 -0.2382 -0.1321 -0.0446
10843TIP3    H154020   5.284   1.068   5.044 -0.8893 -1.2696  0.4688
10843TIP3    H254021   5.259   1.139   4.913 -0.1327  0.7611  1.3801
10844TIP3   OH254022   6.281   4.433   6.224  0.7904 -0.7254 -0.0997
10844TIP3    H154023   6.221   4.397   6.159  0.4893  1.2491 -0.9988
10844TIP3    H254024   6.310   4.357   6.275 -1.3762 -1.9370 -0.5245
10845TIP3   OH254025   2.592   2.706   2.346  0.1809  0.3887 -0.2767
10845TIP3    H154026   2.635   2.691   2.430 -0.6748 -1.4371 -0.1300
10845TIP3    H254027   2.585   2.620   2.306 -0.7795  1.0276 -1.5731
10846TIP3   OH254028   5.709   2.704  10.266  0.0790  0.0067 -0.9705
10846TIP3    H154029   5.614   2.715  10.264  0.1136  1.0855  0.7591
10846TIP3    H254030   5.743   2.794  10.272  1.0985 -0.4158 -0.0020
10847TIP3   OH254031   3.359   0.648  15.225  0.1473  0.5157  0.3645
10847TIP3    H154032   3.367   0.720  15.161 -0.7612 -0.4092 -0.8291
10847TIP3    H254033   3.450   0.631  15.252  0.9546 -0.8801 -2.7858
10848TIP3   OH254034   5.074   4.117  10.507  0.0464 -0.3858 -0.2955
10848TIP3    H154035   5.013   4.126  10.433  0.9564 -0.0755 -1.0306
10848TIP3    H254036   5.155   4.156  10.475 -0.2665  2.2939  1.8064
10849TIP3   OH254037   4.081   0.796  11.834 -0.3228  0.2960 -0.3653
10849TIP3    H154038   4.176   0.809  11.834 -0.2196 -0.4592 -0.5003
10849TIP3    H254039   4.053   0.820  11.745 -0.3700  1.2893 -0.0914
10850TIP3   OH254040   2.503   6.829  14.929  0.7111  0.7677  0.9088
10850TIP3    H154041   2.512   6.832  15.024 -1.0289  1.6144  1.0871
10850TIP3    H254042   2.421   6.781  14.914  1.2895  0.0922 -0.1954
10851TIP3   OH254043   1.970   1.583  15.091  0.3806 -0.3473 -0.0278
10851TIP3    H154044   1.924   1.590  15.174 -0.8873  0.0691 -0.7296
10851TIP3    H254045   1.918   1.520  15.040  2.1989 -2.0928  0.1510
10852TIP3   OH254046   2.621   2.524   0.916 -0.5178 -0.4939  0.1406
10852TIP3    H154047   2.562   2.482   0.979  0.5145  0.5234  1.9029
10852TIP3    H254048   2.575   2.520   0.833 -1.5322 -2.7835  0.7489
10853TIP3   OH254049   1.711   3.601  11.676 -0.1457  0.2901 -0.3087
10853TIP3    H154050   1.740   3.531  11.618  1.5434  0.0940  0.7141
10853TIP3    H254051   1.660   3.659  11.620 -1.6138 -1.7333 -1.1892
10854TIP3   OH254052   3.638   3.343   5.670 -0.1388 -0.1344  0.2021
10854TIP3    H154053   3.567   3.406   5.658 -1.5475 -1.6094  0.4642
10854TIP3    H254054   3.594   3.260   5.688  1.6569 -1.2185 -0.1505
10855TIP3   OH254055   2.602   0.344  16.668  0.1291 -0.1282 -0.0756
10855TIP3    H154056   2.646   0.401  16.731  1.0192 -0.9365  0.0464
10855TIP3    H254057   2.659   0.344  16.592  0.0139 -0.6658 -0.1646
10856TIP3   OH254058   0.395   5.571  14.236  0.1627 -0.1178 -0.6027
10856TIP3    H154059   0.404   5.477  14.252  1.2349  0.0036 -0.4260
10856TIP3    H254060   0.484   5.605  14.244 -0.1567  0.8532 -1.0771
10857TIP3   OH254061   2.816   6.236   3.732  0.3251  0.2048 -0.6226
10857TIP3    H154062   2.820   6.140   3.728 -0.0756  0.2249 -2.5783
10857TIP3    H254063   2.726   6.255   3.759  0.5307  0.0389  0.2012
10858TIP3   OH254064   1.289   4.809   4.763 -0.5210  0.0445 -0.7314
10858TIP3    H154065   1.200   4.775   4.756 -0.6728 -0.1123  1.3442
10858TIP3    H254066   1.333   4.751   4.826  0.7427  0.7209 -0.9469
10859TIP3   OH254067   3.269   0.161   2.914  0.3000 -0.1521 -0.1207
10859TIP3    H154068   3.277   0.164   3.010 -1.4384  2.4903  0.0384
10859TIP3    H254069   3.267   0.253   2.888 -0.4871 -0.8116 -2.5855
10860TIP3   OH254070   4.104   5.226  12.313  0.3168 -0.2473 -0.1816
10860TIP3    H154071   4.152   5.179  12.245 -0.7767  0.2407 -1.3401
10860TIP3    H254072   4.166   5.292  12.344  0.9402 -0.6874 -0.4742
10861TIP3   OH254073   4.345   0.039  14.970  0.0959  0.0488 -0.1330
10861TIP3    H154074   4.349   0.113  14.909  1.8083  1.3993  1.4921
10861TIP3    H254075   4.381   0.074  15.051 -1.8584 -1.7475  1.6243
10862TIP3   OH254076   0.101   5.601   5.712  0.5218 -0.2502 -0.4853
10862TIP3    H154077   0.037   5.630   5.777  2.5911 -1.3937  2.1992
10862TIP3    H254078   0.115   5.678   5.657 -2.1752  0.4042 -0.4166
10863TIP3   OH254079   1.873   4.649   0.463 -0.3552  0.1531  0.1275
10863TIP3    H154080   1.822   4.627   0.541  0.4301  0.2934  0.6907
10863TIP3    H254081   1.844   4.586   0.398  1.4177 -2.2782  1.5312
10864TIP3   OH254082   4.722   3.215   0.242  0.0202  0.2529 -0.7886
10864TIP3    H154083   4.631   3.190   0.228  0.1516 -1.2610  0.7839
10864TIP3    H254084   4.760   3.218   0.154 -1.2844 -0.0851 -1.3886
10865TIP3   OH254085   5.794   4.603  13.196  0.2249  0.4817 -0.2154
10865TIP3    H154086   5.827   4.514  13.185  1.3699  0.9876 -1.0165
10865TIP3    H254087   5.698   4.593  13.198  0.3536 -0.9135  1.2116
10866TIP3   OH254088   2.999   4.770   2.611 -0.5892 -0.1742  0.3918
10866TIP3    H154089   3.086   4.745   2.641  0.1091  0.5953 -0.8871
10866TIP3    H254090   3.012   4.853   2.566 -1.2640 -1.7558 -3.0693
10867TIP3   OH254091   4.386   5.193   2.411  0.0409 -0.0791 -0.4460
10867TIP3    H154092   4.293   5.200   2.433  0.6911  3.4144  2.0343
10867TIP3    H254093   4.417   5.119   2.464 -1.1084 -0.6448 -0.5262
10868TIP3   OH254094   5.889   3.054   5.012  0.0002 -0.6834  0.7078
10868TIP3    H154095   5.880   3.060   4.917  0.1724 -1.0690  0.6664
10868TIP3    H254096   5.799   3.055   5.044 -0.0399  0.3245  0.6005
10869TIP3   OH254097   2.090   2.548  13.672  0.5854 -0.2488  0.2811
10869TIP3    H154098   2.145   2.522  13.598  1.2972  1.7444  0.0397
10869TIP3    H254099   2.066   2.466  13.714  1.6034 -1.3319 -1.1361
10870TIP3   OH254100   5.462   6.764  17.091  0.1487  0.0875 -0.1563
10870TIP3    H154101   5.390   6.724  17.041  0.6429 -0.7360 -0.2315
10870TIP3    H254102   5.454   6.725  17.178  0.8277 -0.4300 -0.3192
10871TIP3   OH254103   3.324   0.445  12.255  0.4812 -0.4391 -0.3194
10871TIP3    H154104   3.327   0.441  12.351  2.1000 -0.4107 -0.3329
10871TIP3    H254105   3.401   0.497  12.231  0.4571 -0.9825 -1.6504
10872TIP3   OH254106   1.254   2.321   3.498  0.2583 -0.5490 -0.7074
10872TIP3    H154107   1.213   2.322   3.584 -0.6098 -2.2686 -1.0614
10872TIP3    H254108   1.348   2.313   3.515  0.0952 -0.8468  0.0681
10873TIP3   OH254109   3.223   2.816  11.215  0.2811  1.2920 -0.1644
10873TIP3    H154110   3.286   2.885  11.195 -1.4401  2.6974 -0.9618
10873TIP3    H254111   3.277   2.742  11.244  2.4066  1.9548 -2.0928
10874TIP3   OH254112   4.674   2.653   1.054  0.3936 -0.0896 -0.1349
10874TIP3    H154113   4.644   2.743   1.065  1.8233  0.2728  1.0197
10874TIP3    H254114   4.705   2.649   0.964 -0.3745  0.3391 -0.4292
10875TIP3   OH254115   3.243   0.134   1.910 -0.5854  0.1324  0.3095
10875TIP3    H154116   3.235   0.107   1.818 -2.6328 -1.3718  0.8598
10875TIP3    H254117   3.322   0.188   1.912  1.1532 -2.0716 -1.8183
10876TIP3   OH254118   0.544   4.866  13.114  0.1970  0.3759  0.8134
10876TIP3    H154119   0.492   4.798  13.072  0.2803  1.4742 -1.1981
10876TIP3    H254120   0.604   4.896  13.046  0.2454  2.3576  1.6549
10877TIP3   OH254121   0.580   2.994   3.579  0.3748 -0.1963  0.6876
10877TIP3    H154122   0.634   3.016   3.654  1.3265 -1.2986  0.3503
10877TIP3    H254123   0.541   3.077   3.552  0.3421  0.2829  2.1243
10878TIP3   OH254124   1.862   5.624  13.524  0.5598 -0.1262  1.0280
10878TIP3    H154125   1.801   5.664  13.587  1.4940 -0.2010  2.0141
10878TIP3    H254126   1.808   5.561  13.476 -1.4763  3.3995 -1.8965
10879TIP3   OH254127   0.192   0.750   2.260 -0.9657 -0.1732  0.1076
10879TIP3    H154128   0.113   0.765   2.311 -1.1661 -0.9550  0.0457
10879TIP3    H254129   0.226   0.837   2.241 -0.9716  0.1354  1.4426
10880TIP3   OH254130   5.634   0.454   4.470  0.2704  0.7269  0.3884
10880TIP3    H154131   5.627   0.516   4.542  2.3526  0.4627  0.8573
10880TIP3    H254132   5.727   0.450   4.450 -0.1711  0.2301 -1.8376
10881TIP3   OH254133   2.833   5.263  16.264 -0.2869  0.5595  0.0365
10881TIP3    H154134   2.836   5.358  16.269  0.5160  0.5887 -0.6874
10881TIP3    H254135   2.925   5.236  16.262 -0.4275 -0.4025  2.6318
10882TIP3   OH254136   6.845   0.625   0.791 -0.5859  0.0765  0.4342
10882TIP3    H154137   6.914   0.613   0.856  1.2732  1.3852 -1.1768
10882TIP3    H254138   6.883   0.591   0.710 -2.4102 -0.4895 -0.2290
10883TIP3   OH254139   1.176   2.759  15.329  0.1732  0.2761  0.2186
10883TIP3    H154140   1.182   2.832  15.390 -3.2224 -0.3464  1.5002
10883TIP3    H254141   1.182   2.681  15.384 -1.4294 -0.3012 -0.3633
10884TIP3   OH254142   0.635   4.327   5.606 -0.1368  0.2282 -0.2231
10884TIP3    H154143   0.668   4.242   5.579 -0.5950  0.2272 -0.8141
10884TIP3    H254144   0.698   4.390   5.571  0.2533  0.1317  0.2971
10885TIP3   OH254145   3.588   3.989   2.074  0.3588 -0.4539 -0.5785
10885TIP3    H154146   3.497   3.961   2.062  0.0737 -0.0712  0.5559
10885TIP3    H254147   3.582   4.060   2.138  1.2871  0.7322 -1.7585
10886TIP3   OH254148   4.655   6.742   2.962  0.2957  0.1182 -1.0708
10886TIP3    H154149   4.676   6.667   2.907  3.2038 -1.3182  1.6724
10886TIP3    H254150   4.581   6.713   3.015 -0.7710  0.5279 -2.2776
10887TIP3   OH254151   2.620   6.709   6.112 -0.4724  0.6757  0.3083
10887TIP3    H154152   2.545   6.761   6.143  0.2725  0.5722  2.4061
10887TIP3    H254153   2.688   6.774   6.094 -0.6284  0.6666 -0.3345
10888TIP3   OH254154   0.231   4.771  16.084 -0.0697 -0.1746 -1.0795
10888TIP3    H154155   0.226   4.866  16.093  4.0172  0.3795 -2.5518
10888TIP3    H254156   0.156   4.748  16.029 -1.0074  2.2129 -0.8997
10889TIP3   OH254157   6.392   1.276  15.448 -0.5512  0.2566 -0.1249
10889TIP3    H154158   6.370   1.366  15.474  1.1332  0.3663  1.0657
10889TIP3    H254159   6.370   1.223  15.524  0.6949  0.0201  0.0973
10890TIP3   OH254160   5.355   0.802   5.325  0.1318  0.3032  0.6706
10890TIP3    H154161   5.324   0.818   5.414 -0.4377  0.0866  0.5165
10890TIP3    H254162   5.296   0.735   5.290  0.6598  0.0106  0.3015
10891TIP3   OH254163   4.516   4.139   5.959  0.4739  0.5049 -0.2587
10891TIP3    H154164   4.542   4.135   5.867  0.8592 -0.2619 -0.1249
10891TIP3    H254165   4.557   4.219   5.992  0.2388  0.8448 -0.7756
10892TIP3   OH254166   0.943   3.372   3.937 -0.3233  0.2159 -0.0743
10892TIP3    H154167   0.890   3.293   3.944  0.3565 -0.4517 -1.7420
10892TIP3    H254168   1.009   3.364   4.005 -0.5488 -0.4338  0.0719
10893TIP3   OH254169   5.359   6.009   5.648  0.2030 -0.2604 -0.1338
10893TIP3    H154170   5.292   6.075   5.635  0.5400  0.1274  0.0719
10893TIP3    H254171   5.333   5.963   5.727  1.0354  0.9785  0.9046
10894TIP3   OH254172   0.075   5.138  15.563 -0.9177  0.0619 -0.4419
10894TIP3    H154173   0.053   5.098  15.479 -2.5873  0.1650 -0.0744
10894TIP3    H254174   0.033   5.083  15.628  1.5829 -0.8964  0.4909
10895TIP3   OH254175   2.292   4.935   5.377  0.6302  0.0816 -0.0159
10895TIP3    H154176   2.363   4.980   5.331 -1.1475  0.7183 -2.3144
10895TIP3    H254177   2.237   5.006   5.410  0.5582 -0.4149  0.9513
10896TIP3   OH254178   1.365   3.938  15.671  0.2594 -0.0432  0.1365
10896TIP3    H154179   1.335   3.962  15.759 -0.5468  0.6798 -0.3316
10896TIP3    H254180   1.445   3.989  15.659  0.3576 -0.1219  0.4401
10897TIP3   OH254181   1.576   5.576  11.111 -0.3360 -0.1286  0.0511
10897TIP3    H154182   1.583   5.482  11.129 -1.3640  0.0186  1.4337
10897TIP3    H254183   1.663   5.601  11.078 -0.2313 -1.6535 -0.9027
10898TIP3   OH254184   0.392   2.609  16.382 -0.4834  0.2878 -0.3257
10898TIP3    H154185   0.309   2.655  16.375 -0.5100  0.2680 -0.1410
10898TIP3    H254186   0.380   2.548  16.455 -0.2909  0.3237 -0.2615
10899TIP3   OH254187   0.045   4.688   1.592 -0.1164 -0.1656 -0.5532
10899TIP3    H154188   0.093   4.745   1.653 -0.5900  0.2357 -0.5455
10899TIP3    H254189   0.033   4.607   1.641  2.2229 -1.0150 -1.2298
10900TIP3   OH254190   2.995   1.600  12.278 -0.6572 -0.6396  0.0945
10900TIP3    H154191   2.960   1.645  12.201 -0.2443 -0.6449 -0.0953
10900TIP3    H254192   3.087   1.584  12.257  0.0853  1.4267  1.5025
10901TIP3   OH254193   4.442   4.369  16.050  0.3669 -0.7962 -0.2650
10901TIP3    H154194   4.506   4.435  16.075  1.4845 -1.6881 -0.6861
10901TIP3    H254195   4.383   4.414  15.990  2.0952 -0.5578 -1.8800
10902TIP3   OH254196   5.633   1.512   0.971 -0.3860  0.1524  0.3826
10902TIP3    H154197   5.643   1.426   1.012 -0.0183  0.3104  0.6319
10902TIP3    H254198   5.678   1.572   1.031  0.3904  0.3485 -0.3777
10903TIP3   OH254199   4.173   1.939  12.589  0.0327  0.1751  0.0458
10903TIP3    H154200   4.218   1.895  12.517 -0.3732 -0.7039  0.3147
10903TIP3    H254201   4.092   1.972  12.549  0.3743  0.7630 -0.1749
10904TIP3   OH254202   2.858   1.243   3.853 -0.2065  0.5171  0.1649
10904TIP3    H154203   2.931   1.270   3.908  0.7985 -0.0114 -0.8608
10904TIP3    H254204   2.781   1.251   3.909  0.7468  0.2439  1.5530
10905TIP3   OH254205   0.689   6.273   3.199  0.0194 -0.0918 -0.0771
10905TIP3    H154206   0.611   6.218   3.206 -0.9595  1.4473  2.9300
10905TIP3    H254207   0.716   6.288   3.290  1.8326  2.1554 -0.8897
10906TIP3   OH254208   4.093   1.641   1.558  1.1093  0.0682 -0.2298
10906TIP3    H154209   4.041   1.656   1.479  0.6993 -1.3415 -0.2550
10906TIP3    H254210   4.051   1.695   1.625 -0.0667 -0.5911 -0.3963
10907TIP3   OH254211   2.591   4.787  17.016  0.1214  0.2197 -0.0665
10907TIP3    H154212   2.637   4.861  17.055 -0.5841  1.4308 -1.4075
10907TIP3    H254213   2.561   4.735  17.090  0.0498  1.6528  0.9491
10908TIP3   OH254214   2.683   1.066   3.503 -0.3507 -0.0267  0.1395
10908TIP3    H154215   2.613   1.065   3.438  0.4731 -0.6041 -0.7741
10908TIP3    H254216   2.644   1.105   3.581 -1.4297  0.4706 -0.6327
10909TIP3   OH254217   6.712   1.956   4.642  0.5831 -0.4244 -0.5073
10909TIP3    H154218   6.634   1.986   4.690 -0.5365  0.6935 -2.8495
10909TIP3    H254219   6.740   1.878   4.689  0.0884  0.9844  2.3980
10910TIP3   OH254220   3.386   0.051  14.085  0.3576 -0.2443 -0.4143
10910TIP3    H154221   3.310   0.110  14.085  1.4406  1.3323  2.1518
10910TIP3    H254222   3.361  -0.020  14.144  0.3985 -0.4712 -0.6649
10911TIP3   OH254223   6.205   2.837  17.066 -0.7302 -0.0178 -0.7543
10911TIP3    H154224   6.244   2.852  16.980 -0.8099  1.1708 -0.6008
10911TIP3    H254225   6.127   2.892  17.068  0.7450  2.2367  1.0538
10912TIP3   OH254226   0.689   3.171  16.807  0.4336 -0.8804  0.2088
10912TIP3    H154227   0.601   3.142  16.829  0.3445  1.1137  3.0528
10912TIP3    H254228   0.737   3.090  16.788 -1.2654 -2.3042  1.6438
10913TIP3   OH254229   0.772   5.776  15.569  0.1174  0.1884 -0.1042
10913TIP3    H154230   0.779   5.855  15.623  1.4754  1.1735 -1.6208
10913TIP3    H254231   0.680   5.751  15.574 -0.1289  1.2812  1.2245
10914TIP3   OH254232   3.863   4.554   5.714 -0.3945 -0.2238 -0.2806
10914TIP3    H154233   3.892   4.636   5.754  1.7218  0.4889 -2.9664
10914TIP3    H254234   3.892   4.486   5.775 -0.9485  0.8942  1.3137
10915TIP3   OH254235   6.303   0.247   5.874 -0.1016  0.0052 -0.2255
10915TIP3    H154236   6.286   0.259   5.967 -0.5155 -1.3062 -0.1007
10915TIP3    H254237   6.222   0.276   5.831 -0.8953 -1.6889  0.0281
10916TIP3   OH254238   5.521   3.213   0.749  0.4759 -0.1828  0.4329
10916TIP3    H154239   5.593   3.261   0.709  0.8070 -1.5693 -0.7111
10916TIP3    H254240   5.468   3.183   0.676 -1.3097  0.8174  1.2576
10917TIP3   OH254241   0.786   3.015  12.201  0.0830 -0.1748  0.0930
10917TIP3    H154242   0.788   3.034  12.295  1.2424  0.2608 -0.0053
10917TIP3    H254243   0.867   2.966  12.185 -0.6030 -1.1401 -0.5073
10918TIP3   OH254244   6.223   4.367  16.062  0.3108 -0.1074 -0.4379
10918TIP3    H154245   6.300   4.310  16.059 -0.8248 -1.8487  1.0034
10918TIP3    H254246   6.151   4.308  16.083 -1.2485  1.6443 -0.6099
10919TIP3   OH254247   2.485   2.144  12.372  0.1808  0.1860 -0.2888
10919TIP3    H154248   2.576   2.143  12.400 -0.2581  0.2164  1.2104
10919TIP3    H254249   2.447   2.221  12.414 -0.2667  0.8569 -1.8591
10920TIP3   OH254250   4.833   1.629  10.665 -0.3233 -0.2145 -0.1226
10920TIP3    H154251   4.861   1.555  10.719 -0.5839  0.5231  1.0626
10920TIP3    H254252   4.914   1.672  10.639 -0.2454  0.7805  1.6620
10921TIP3   OH254253   3.155   5.171   1.548  0.5768 -0.6785  0.6764
10921TIP3    H154254   3.082   5.109   1.546 -0.0287  0.0232  0.5192
10921TIP3    H254255   3.214   5.140   1.479  0.1983 -0.9777  0.4814
10922TIP3   OH254256   2.474   0.530   2.122 -0.2732  0.1214 -0.1106
10922TIP3    H154257   2.527   0.562   2.196 -0.8164 -0.5215  0.5742
10922TIP3    H254258   2.510   0.444   2.102 -0.1801  0.2612 -0.5512
10923TIP3   OH254259   2.151   4.797  15.707 -0.7127  0.1705  0.2424
10923TIP3    H154260   2.218   4.764  15.647  1.8284  1.6456  2.0892
10923TIP3    H254261   2.141   4.889  15.682 -3.7514 -0.4399 -1.3487
10924TIP3   OH254262   6.632   3.263  14.469 -0.0113 -0.1545  0.4632
10924TIP3    H154263   6.599   3.337  14.519  2.3011  1.8687 -0.7869
10924TIP3    H254264   6.640   3.192  14.533  0.4414  1.5670  2.4085
10925TIP3   OH254265   3.780   4.311  10.619 -0.0442 -0.2931 -0.6788
10925TIP3    H154266   3.772   4.232  10.672 -0.2482 -0.1848 -0.5504
10925TIP3    H254267   3.859   4.296  10.567  0.5957 -0.0690  0.2066
10926TIP3   OH254268   0.785   1.154  12.410  0.0808  0.2570 -0.5599
10926TIP3    H154269   0.813   1.064  12.430 -1.0703 -0.0276 -0.1966
10926TIP3    H254270   0.784   1.157  12.314 -0.4291 -0.3014 -0.5788
10927TIP3   OH254271   0.581   1.460  13.322 -0.2810 -0.0517 -0.5654
10927TIP3    H154272   0.531   1.541  13.328  1.0959  0.9375 -1.6923
10927TIP3    H254273   0.665   1.481  13.362  0.3204 -0.7153 -1.4327
10928TIP3   OH254274   6.278   1.300  12.540 -0.0094  0.4574  0.5606
10928TIP3    H154275   6.314   1.343  12.618  0.8917  0.5976  0.0771
10928TIP3    H254276   6.314   1.349  12.467  0.4527 -0.6686  0.0103
10929TIP3   OH254277   2.347   5.810  14.438 -0.3705  0.0569 -0.0458
10929TIP3    H154278   2.276   5.765  14.485  0.6314 -1.2929  0.2280
10929TIP3    H254279   2.364   5.755  14.362  1.1572 -0.2704  0.5102
10930TIP3   OH254280   6.070   4.199  13.587  0.5842 -0.5162  0.1303
10930TIP3    H154281   6.121   4.270  13.548 -1.2937 -0.3725 -2.2900
10930TIP3    H254282   6.113   4.119  13.557 -0.4959 -0.3960 -1.9449
10931TIP3   OH254283   1.446   5.834  14.275  0.5487 -0.1803 -0.2951
10931TIP3    H154284   1.424   5.895  14.204 -1.4998  2.1622  2.1352
10931TIP3    H254285   1.540   5.847  14.289  1.1157 -1.0538 -2.7950
10932TIP3   OH254286   5.511   4.044   2.629  0.0634 -0.0455 -0.4168
10932TIP3    H154287   5.541   4.019   2.717 -2.0420 -1.4781 -0.0419
10932TIP3    H254288   5.489   4.137   2.637  2.7932  0.6877 -0.3295
10933TIP3   OH254289   6.447   5.941  12.200 -0.5478  0.3891  0.3468
10933TIP3    H154290   6.539   5.919  12.213 -0.0116  1.4929 -1.2691
10933TIP3    H254291   6.417   5.970  12.286  1.1491  1.7825  0.5174
10934TIP3   OH254292   0.535   2.678  13.033  0.1574  0.3410 -0.2829
10934TIP3    H154293   0.568   2.762  13.000  0.5887 -0.0102 -0.7561
10934TIP3    H254294   0.505   2.632  12.956 -0.3531  0.1708  0.0135
10935TIP3   OH254295   2.066   6.432   4.759  0.0260 -0.1457 -0.2456
10935TIP3    H154296   2.105   6.519   4.753 -0.0074  0.1230  2.2709
10935TIP3    H254297   1.978   6.447   4.791  0.1279 -1.1002  0.5414
10936TIP3   OH254298   5.070   4.676  12.561  0.2005  0.3189  0.3439
10936TIP3    H154299   5.096   4.767  12.546  0.7313  0.2075  0.5519
10936TIP3    H254300   5.119   4.649  12.639  0.9112 -0.4814 -0.3542
10937TIP3   OH254301   4.630   0.999   2.892 -0.1879 -0.0546  0.1182
10937TIP3    H154302   4.557   0.938   2.879  0.4129 -0.9471  0.7304
10937TIP3    H254303   4.604   1.050   2.969 -1.5090  1.7695 -1.4702
10938TIP3   OH254304   0.063   2.348   4.797 -0.1726 -0.4650 -0.0179
10938TIP3    H154305   0.012   2.416   4.841 -1.7062 -0.9477 -0.9448
10938TIP3    H254306   0.015   2.332   4.715  0.8830 -1.7403 -0.4221
10939TIP3   OH254307   2.754   1.778   0.639  0.0550  0.2545  0.3157
10939TIP3    H154308   2.833   1.757   0.590 -0.2114 -0.1932  0.0781
10939TIP3    H254309   2.727   1.864   0.605  1.0547  0.9465  1.1796
10940TIP3   OH254310   5.620   0.711  12.159  0.3742  0.2380  0.0246
10940TIP3    H154311   5.662   0.740  12.240  1.1264 -1.6085  0.3457
10940TIP3    H254312   5.573   0.631  12.184 -0.7467  0.5335 -1.0270
10941TIP3   OH254313   6.514   3.698   2.692 -0.1559 -0.3632 -0.2274
10941TIP3    H154314   6.599   3.741   2.687  0.6527 -1.6881  1.0473
10941TIP3    H254315   6.533   3.606   2.672 -0.6150 -1.3474  3.1528
10942TIP3   OH254316   5.290   3.113  14.812 -0.2994 -0.3687  0.1703
10942TIP3    H154317   5.239   3.097  14.733 -0.0826 -1.5624  0.2466
10942TIP3    H254318   5.284   3.208  14.826  0.4287  0.0075 -1.7810
10943TIP3   OH254319   6.341   2.934   2.798  0.1030  0.4861 -0.1970
10943TIP3    H154320   6.294   2.987   2.862 -0.3884  0.8161 -0.8164
10943TIP3    H254321   6.372   2.858   2.847 -1.5249 -0.0024  0.1326
10944TIP3   OH254322   6.389   2.500   6.268  0.2796  0.0252  0.0604
10944TIP3    H154323   6.302   2.519   6.233 -0.4469  0.7463  2.0806
10944TIP3    H254324   6.375   2.426   6.328  1.0409  0.1681  0.4284
10945TIP3   OH254325   2.521   1.564  11.131  0.0278  0.1463  0.2765
10945TIP3    H154326   2.557   1.548  11.044 -0.6192 -0.4498  0.1073
10945TIP3    H254327   2.539   1.484  11.179  0.7521  0.6317  0.8263
10946TIP3   OH254328   6.540   6.239   4.100  0.0098 -0.0711  0.5461
10946TIP3    H154329   6.568   6.150   4.083  1.6360  0.5867 -0.4581
10946TIP3    H254330   6.615   6.281   4.142  0.8511  1.8852 -2.6051
10947TIP3   OH254331   5.916   2.337   3.043  0.1228  0.3220  0.5409
10947TIP3    H154332   5.854   2.340   3.115 -1.6090  0.6294 -0.8874
10947TIP3    H254333   5.867   2.369   2.967  1.1909 -1.9195 -1.2271
10948TIP3   OH254334   4.465   5.632  11.377  0.3734 -0.5317 -0.1610
10948TIP3    H154335   4.489   5.547  11.342  0.6696 -1.3069  1.8085
10948TIP3    H254336   4.443   5.684  11.300 -2.4312 -3.1484 -1.3366
10949TIP3   OH254337   0.707   3.479   0.735 -0.0859 -0.0661  0.0298
10949TIP3    H154338   0.627   3.474   0.683 -0.8403 -0.2171  1.1613
10949TIP3    H254339   0.710   3.395   0.782  0.7141 -0.0418  0.0329
10950TIP3   OH254340   5.627   2.262  14.321  0.3607 -0.0295 -0.5105
10950TIP3    H154341   5.564   2.320  14.279 -0.6616  0.1248  1.1353
10950TIP3    H254342   5.578   2.182  14.339  1.2695 -0.7561 -1.1623
10951TIP3   OH254343   6.219   0.560   6.077 -0.0254 -0.1450  0.0003
10951TIP3    H154344   6.225   0.617   6.153 -0.1830 -0.4286  0.2280
10951TIP3    H254345   6.128   0.531   6.076  0.0960 -0.5373 -0.0040
10952TIP3   OH254346   0.540   6.534  17.088 -0.2156  0.1291 -0.3899
10952TIP3    H154347   0.476   6.463  17.073  1.2706 -0.9459 -1.9813
10952TIP3    H254348   0.589   6.505  17.165  0.1677 -0.4399 -0.8348
10953TIP3   OH254349   3.472   5.059  12.678 -0.4953  0.2972  0.0282
10953TIP3    H154350   3.414   5.136  12.680 -1.8186 -0.6407 -0.7098
10953TIP3    H254351   3.542   5.083  12.618 -1.7840  0.3641 -1.5218
10954TIP3   OH254352   0.526   1.809   2.373 -0.2629 -0.0705 -0.3578
10954TIP3    H154353   0.457   1.790   2.437  0.5114  0.3462  0.6207
10954TIP3    H254354   0.597   1.847   2.424  1.1059 -1.3905 -1.1815
10955TIP3   OH254355   5.182   3.918   5.313 -0.5598  0.0532  0.1316
10955TIP3    H154356   5.246   3.961   5.256  0.4451 -0.8363  0.5604
10955TIP3    H254357   5.102   3.913   5.260  0.2177 -0.3394 -1.0402
10956TIP3   OH254358   3.608   1.539  16.263 -0.3491  0.1755  0.2928
10956TIP3    H154359   3.576   1.512  16.348 -1.1859  0.3140  0.0343
10956TIP3    H254360   3.603   1.460  16.209 -0.3832  0.2274  0.2192
10957TIP3   OH254361   1.772   1.315   4.762 -0.1705 -0.3552 -0.2077
10957TIP3    H154362   1.733   1.259   4.829  2.6339 -1.4052  0.7147
10957TIP3    H254363   1.734   1.402   4.777 -2.7225 -1.4021 -0.0315
10958TIP3   OH254364   3.882   0.727   2.282 -0.6293 -0.2007 -0.3384
10958TIP3    H154365   3.795   0.695   2.308 -1.1334  2.2959  1.4366
10958TIP3    H254366   3.865   0.783   2.206 -0.3877 -0.6513 -0.7271
10959TIP3   OH254367   5.552   5.145  11.579 -0.3589  0.1024 -0.0051
10959TIP3    H154368   5.534   5.061  11.537 -1.1978  1.1029 -1.7623
10959TIP3    H254369   5.470   5.168  11.624 -0.8006  0.8507 -1.1508
10960TIP3   OH254370   2.549   3.029  11.779  0.3901 -0.0080  1.0967
10960TIP3    H154371   2.498   2.961  11.737 -0.0759  1.3442 -0.6138
10960TIP3    H254372   2.562   2.997  11.869  0.7260 -2.6024  0.2141
10961TIP3   OH254373   2.768   2.504  13.557 -0.0391 -0.7252 -0.4649
10961TIP3    H154374   2.758   2.598  13.571  1.5421 -0.3786 -1.4004
10961TIP3    H254375   2.818   2.474  13.633 -0.8316 -0.8829  0.0007
10962TIP3   OH254376   3.197   4.356  13.634 -0.2725  0.5810 -1.0268
10962TIP3    H154377   3.103   4.366  13.644 -0.1767  1.1141 -0.6016
10962TIP3    H254378   3.230   4.446  13.628  0.3249  0.4407 -0.0307
10963TIP3   OH254379   3.867   2.610   3.139 -0.7117 -0.3349 -0.2919
10963TIP3    H154380   3.925   2.643   3.208 -0.1191 -0.9157 -0.5071
10963TIP3    H254381   3.788   2.664   3.146 -0.2428  0.2989  0.1640
10964TIP3   OH254382   6.752   3.065   3.813  0.3317 -0.4012  0.2823
10964TIP3    H154383   6.768   3.151   3.773  0.3780  0.9289  2.9844
10964TIP3    H254384   6.667   3.074   3.856  0.2156 -1.8312  0.4101
10965TIP3   OH254385   3.661   3.530  13.188  0.3623 -0.1525  0.1855
10965TIP3    H154386   3.584   3.586  13.199 -0.5303 -1.5211  1.2270
10965TIP3    H254387   3.726   3.567  13.248  0.1987  0.4489 -0.0023
10966TIP3   OH254388   1.375   4.996  14.762 -0.0489 -0.4897  0.3162
10966TIP3    H154389   1.405   4.937  14.831 -0.2672  2.2268  2.9290
10966TIP3    H254390   1.306   5.048  14.803 -1.1142  0.4169 -2.3981
10967TIP3   OH254391   0.891   1.327  11.477 -0.4970 -0.7029  0.2787
10967TIP3    H154392   0.820   1.360  11.532 -0.4610  0.9657 -0.6355
10967TIP3    H254393   0.849   1.308  11.393 -0.1918 -1.4271  0.2838
10968TIP3   OH254394   0.629   3.331  15.132  0.0399  0.5059 -0.0297
10968TIP3    H154395   0.657   3.385  15.058  0.4942  0.1664 -0.1075
10968TIP3    H254396   0.547   3.292  15.104  0.0770  0.5883 -0.2546
10969TIP3   OH254397   1.631   4.261   0.772 -0.0992  0.0972 -0.0403
10969TIP3    H154398   1.597   4.247   0.860  0.6229 -0.7669  0.1187
10969TIP3    H254399   1.723   4.283   0.786  0.2517 -0.9534 -0.6118
10970TIP3   OH254400   0.714   5.834  15.888  0.7009  0.1928 -0.4389
10970TIP3    H154401   0.647   5.794  15.834 -1.1449  0.5071  1.4920
10970TIP3    H254402   0.712   5.927  15.864  4.3404 -0.4462 -4.2469
10971TIP3   OH254403   4.171   4.307  12.146  0.2364 -0.0593  0.0638
10971TIP3    H154404   4.178   4.314  12.051 -0.7717 -1.1532 -0.1173
10971TIP3    H254405   4.191   4.216  12.166  1.4164  0.3888  1.0234
10972TIP3   OH254406   3.970   3.376   2.188 -0.0328  0.1288 -0.0767
10972TIP3    H154407   4.024   3.402   2.263 -0.0021 -0.8591  0.2537
10972TIP3    H254408   3.901   3.321   2.226 -0.8585  0.7792 -0.5890
10973TIP3   OH254409   5.079   3.644   1.553 -0.1868  0.6440  0.4221
10973TIP3    H154410   5.025   3.706   1.603 -0.5411  0.7297 -0.0649
10973TIP3    H254411   5.163   3.645   1.599 -0.2640  1.3019  0.5704
10974TIP3   OH254412   6.263   2.101   4.450  0.5536  0.2143  0.5288
10974TIP3    H154413   6.270   2.155   4.371  1.7078  0.4518  0.7656
10974TIP3    H254414   6.314   2.022   4.429 -0.8917 -0.6965  0.2803
10975TIP3   OH254415   2.413   2.303   2.130  0.1201 -0.4394  0.1168
10975TIP3    H154416   2.473   2.236   2.097 -0.2067 -0.2086 -0.9748
10975TIP3    H254417   2.326   2.264   2.121  0.0330 -0.4499  0.9167
10976TIP3   OH254418   2.249   0.624   0.924 -0.5687 -0.4471 -0.2452
10976TIP3    H154419   2.330   0.637   0.876 -1.1644  1.6534 -0.7571
10976TIP3    H254420   2.260   0.672   1.006 -0.7364 -1.4553  0.3999
10977TIP3   OH254421   1.664   6.761  11.907 -0.4928 -0.2434  0.3620
10977TIP3    H154422   1.744   6.813  11.920  0.1848 -1.0891 -0.2724
10977TIP3    H254423   1.646   6.723  11.993  0.4762 -0.9670  0.2746
10978TIP3   OH254424   0.362   5.411  11.477 -0.4627  0.1749 -0.5751
10978TIP3    H154425   0.272   5.418  11.445  0.1747  0.1140 -2.4681
10978TIP3    H254426   0.369   5.321  11.509 -0.9130  0.0111 -0.9298
10979TIP3   OH254427   1.447   4.075  12.380 -0.1474 -0.0872 -0.6941
10979TIP3    H154428   1.532   4.036  12.359  0.0911 -0.0157  0.1108
10979TIP3    H254429   1.390   4.049  12.307  0.2828 -1.0492 -0.7067
10980TIP3   OH254430   3.058   3.242   6.124 -0.6170  0.1546  0.5964
10980TIP3    H154431   2.987   3.191   6.085 -0.0013  0.5643 -1.1532
10980TIP3    H254432   3.119   3.175   6.157 -0.4903 -0.2534 -0.4148
10981TIP3   OH254433   0.493   2.173  14.754 -0.1975 -0.2125 -0.8115
10981TIP3    H154434   0.502   2.120  14.834  0.0245 -1.2303 -1.4845
10981TIP3    H254435   0.516   2.112  14.684  0.3781  0.8828 -1.5943
10982TIP3   OH254436   2.936   2.368   1.866  0.0330  0.2567 -0.4205
10982TIP3    H154437   2.961   2.394   1.778 -0.2343  0.0835 -0.5480
10982TIP3    H254438   2.956   2.444   1.921  2.8736 -0.5627 -0.1480
10983TIP3   OH254439   1.134   4.602   5.625 -0.5934 -0.0829  0.3793
10983TIP3    H154440   1.153   4.682   5.577  1.9808 -1.5187 -1.2455
10983TIP3    H254441   1.212   4.588   5.680 -0.2419 -2.1823 -0.5271
10984TIP3   OH254442   2.094   5.563  14.183 -0.1649  0.4684  0.2163
10984TIP3    H154443   2.135   5.633  14.234  0.9731 -0.7349  0.9955
10984TIP3    H254444   2.126   5.482  14.222 -0.8589 -0.5081 -1.1501
10985TIP3   OH254445   6.759   3.263  13.798  0.0082 -0.2892  0.4143
10985TIP3    H154446   6.747   3.302  13.712  1.3102  0.0871  0.3771
10985TIP3    H254447   6.738   3.333  13.860 -3.2469 -1.2098  0.5295
10986TIP3   OH254448   6.309   6.698  12.756  0.2220  1.0587  0.6985
10986TIP3    H154449   6.358   6.656  12.826  0.2224 -1.0134 -0.4723
10986TIP3    H254450   6.349   6.785  12.747  0.2484  1.3625  3.1566
10987TIP3   OH254451   5.114   0.872   3.061 -0.3711 -0.5297  0.1808
10987TIP3    H154452   5.170   0.949   3.048 -0.8388 -0.4382 -1.4591
10987TIP3    H254453   5.040   0.885   3.002  0.1643 -2.8132 -1.1330
10988TIP3   OH254454   3.330   2.581  16.213  0.4268  0.0218  0.3731
10988TIP3    H154455   3.383   2.522  16.266 -2.0102 -3.1946 -0.4797
10988TIP3    H254456   3.242   2.572  16.247 -0.3498  1.9035 -0.9452
10989TIP3   OH254457   5.483   4.405  15.625  0.1668  0.2408 -0.4988
10989TIP3    H154458   5.481   4.457  15.706 -3.1199  0.6845 -0.7584
10989TIP3    H254459   5.508   4.468  15.557  0.4145  0.4511 -0.2210
10990TIP3   OH254460   6.268   6.546   0.373  0.1579  0.2674 -0.0952
10990TIP3    H154461   6.183   6.511   0.401  0.0103  0.2989 -0.4926
10990TIP3    H254462   6.317   6.558   0.454 -0.3812  0.6746  0.1753
10991TIP3   OH254463   6.486   2.712  13.171 -0.2538 -0.0250 -0.1114
10991TIP3    H154464   6.406   2.753  13.204  0.3385  0.7366  0.4174
10991TIP3    H254465   6.544   2.786  13.151 -0.1049 -0.5152 -1.6348
10992TIP3   OH254466   4.882   3.993   5.399  0.0252  0.2233 -0.0889
10992TIP3    H154467   4.793   3.993   5.362  0.6339 -0.6656 -1.6169
10992TIP3    H254468   4.903   3.901   5.411  1.3320  0.3411 -1.2707
10993TIP3   OH254469   1.203   0.640   2.874 -0.6187  0.0453 -0.3925
10993TIP3    H154470   1.240   0.696   2.942 -0.1064 -0.8124  0.0535
10993TIP3    H254471   1.109   0.639   2.893 -0.2872 -1.6523  1.4748
10994TIP3   OH254472   6.264   6.245  13.024  0.3571 -0.2214 -0.0735
10994TIP3    H154473   6.234   6.285  13.106  0.6224  0.3190 -0.2317
10994TIP3    H254474   6.306   6.163  13.052  2.0241  0.7781  0.5540
10995TIP3   OH254475   3.812   2.853  14.748  0.0398 -0.1602  0.5185
10995TIP3    H154476   3.794   2.907  14.671 -0.9221 -1.2848 -0.0848
10995TIP3    H254477   3.906   2.834  14.743 -0.0106 -0.2108 -0.3790
10996TIP3   OH254478   5.273   5.752  14.011 -0.0221 -0.1943 -0.1472
10996TIP3    H154479   5.342   5.807  14.050  0.4600 -0.0271 -1.1874
10996TIP3    H254480   5.289   5.665  14.047  1.1298 -0.2908 -0.8357
10997TIP3   OH254481   4.711   4.309   3.450  0.5120 -0.9604  0.6436
10997TIP3    H154482   4.677   4.347   3.368  0.9117  0.7605  1.2242
10997TIP3    H254483   4.636   4.311   3.510  0.8362  0.1430  1.0482
10998TIP3   OH254484   6.502   3.079   0.398 -0.9555  0.1465  0.4254
10998TIP3    H154485   6.440   3.030   0.345  0.3341 -0.0517 -0.9656
10998TIP3    H254486   6.535   3.147   0.340  0.7338 -0.2815  0.8254
10999TIP3   OH254487   3.743   5.262   3.475 -0.6549 -0.0771  0.3053
10999TIP3    H154488   3.739   5.167   3.490  1.2260  0.2234  3.4796
10999TIP3    H254489   3.817   5.273   3.414 -0.0583 -0.5900  0.9187
11000TIP3   OH254490   2.591   1.373  16.836  0.1461 -0.9790 -0.0133
11000TIP3    H154491   2.653   1.372  16.909 -0.4779 -1.0149  0.5337
11000TIP3    H254492   2.520   1.314  16.865 -1.5622  1.2523  0.6693
11001TIP3   OH254493   3.071   4.331   0.501  0.2016 -0.1707  0.1556
11001TIP3    H154494   3.113   4.402   0.453  0.9315 -0.2373  0.6794
11001TIP3    H254495   2.980   4.361   0.512 -0.0570 -0.2865 -1.4780
11002TIP3   OH254496   5.248   5.928   3.095 -0.2882  0.2925 -0.0216
11002TIP3    H154497   5.241   5.834   3.111 -2.8226  0.3075 -0.6000
11002TIP3    H254498   5.247   5.968   3.182  1.5157 -0.1982  0.2593
11003TIP3   OH254499   1.650   1.918   5.854 -0.1653  0.6671 -0.5966
11003TIP3    H154500   1.638   2.010   5.832 -0.5171  0.4333 -1.4074
11003TIP3    H254501   1.564   1.878   5.842 -0.6040  0.6537  1.9914
11004TIP3   OH254502   6.627   6.113  16.078 -0.2745  0.2603  0.2560
11004TIP3    H154503   6.606   6.172  16.151 -0.3582  0.3508  0.1580
11004TIP3    H254504   6.572   6.036  16.093 -0.3082  0.2883  0.2754
11005TIP3   OH254505   4.722   6.552   2.771 -0.0593  0.1554 -0.5851
11005TIP3    H154506   4.774   6.569   2.692  1.5836 -1.4188  0.0820
11005TIP3    H254507   4.728   6.457   2.783 -1.0169  0.2626  0.9497
11006TIP3   OH254508   0.615   3.273   4.024 -0.3683  0.5551 -0.0864
11006TIP3    H154509   0.684   3.215   3.990  0.0606  1.2438 -0.4011
11006TIP3    H254510   0.559   3.215   4.075  0.1066 -0.1289 -0.3243
11007TIP3   OH254511   0.016   1.275   0.535 -0.3978 -0.3913  0.4239
11007TIP3    H154512   0.111   1.262   0.535 -0.3447 -0.1683 -1.2623
11007TIP3    H254513   0.003   1.357   0.488 -1.5081 -1.1974 -0.7044
11008TIP3   OH254514   5.394   1.815   0.253 -0.5144 -0.1198  0.5487
11008TIP3    H154515   5.487   1.814   0.273  0.0425 -3.4060 -1.5062
11008TIP3    H254516   5.380   1.896   0.205  2.1729 -1.1266 -2.2571
11009TIP3   OH254517   5.661   2.498   4.842  0.0290 -0.1195  0.0731
11009TIP3    H154518   5.750   2.532   4.834  0.5275 -1.5620 -0.7106
11009TIP3    H254519   5.660   2.418   4.790 -1.8869  0.1522 -0.3991
11010TIP3   OH254520   0.683   1.913  11.829  0.1452  0.6867 -0.0878
11010TIP3    H154521   0.676   2.006  11.850 -1.7370  0.6023 -0.1857
11010TIP3    H254522   0.777   1.895  11.832  0.3790  1.9408  2.6719
11011TIP3   OH254523   2.480   6.271  13.278 -0.0508  0.4222 -0.1049
11011TIP3    H154524   2.499   6.231  13.363  0.0317  0.7960  0.0518
11011TIP3    H254525   2.501   6.203  13.214  1.8408  0.8273  0.0448
11012TIP3   OH254526   6.849   3.215  15.470  0.0178  0.2729  0.0434
11012TIP3    H154527   6.925   3.181  15.423 -0.5083 -0.6741 -0.1492
11012TIP3    H254528   6.803   3.269  15.406 -0.8420 -1.2290 -0.6612
11013TIP3   OH254529   4.183   2.237  14.520 -0.4053  0.5228 -0.2084
11013TIP3    H154530   4.155   2.272  14.605 -0.1470  1.4711 -0.5082
11013TIP3    H254531   4.271   2.272  14.507 -1.0224  1.6474 -1.5753
11014TIP3   OH254532   5.187   5.173   1.659  0.3646  0.1986 -0.3710
11014TIP3    H154533   5.274   5.213   1.653  0.4129  0.4300  1.3742
11014TIP3    H254534   5.191   5.120   1.738 -0.6742 -0.8772 -1.0123
11015TIP3   OH254535   2.177   4.409  11.900  0.6929  0.2960  0.0016
11015TIP3    H154536   2.247   4.428  11.837  0.7966  0.3076  0.1186
11015TIP3    H254537   2.201   4.460  11.978  0.2673  0.7238 -0.1424
11016TIP3   OH254538   4.142   3.202   1.649  0.0769 -0.2095  0.0212
11016TIP3    H154539   4.196   3.124   1.639 -0.4579 -0.6069  0.2031
11016TIP3    H254540   4.185   3.268   1.595  0.4462 -0.6767 -0.2601
11017TIP3   OH254541   1.457   5.705   3.230 -0.3317  0.4556  0.3276
11017TIP3    H154542   1.426   5.617   3.255  0.2014  0.2420  0.2466
11017TIP3    H254543   1.491   5.694   3.141 -1.6317  1.0748 -0.2699
11018TIP3   OH254544   0.466   4.990  16.831  0.4909 -0.6757 -0.5979
11018TIP3    H154545   0.548   4.986  16.782  0.2503 -1.0708 -0.9805
11018TIP3    H254546   0.439   5.081  16.824  1.9907 -0.0100  1.3962
11019TIP3   OH254547   4.358   5.156  15.688  0.0800  0.5772 -0.1577
11019TIP3    H154548   4.433   5.104  15.660 -0.2656  0.3747 -0.7158
11019TIP3    H254549   4.285   5.094  15.694 -0.2128  0.9001 -0.3166
11020TIP3   OH254550   0.829   1.222  15.752  0.1846  0.5321  0.3363
11020TIP3    H154551   0.807   1.236  15.660  2.2139  1.8095 -0.0073
11020TIP3    H254552   0.773   1.283  15.800 -0.5369  0.2053 -0.0729
11021TIP3   OH254553   1.773   6.453  16.412  0.3105  0.6981  0.2620
11021TIP3    H154554   1.867   6.463  16.431  0.6157  1.7740 -1.5900
11021TIP3    H254555   1.768   6.444  16.317 -1.3826 -0.9059  0.4433
11022TIP3   OH254556   6.844   1.121   3.512  0.1387  0.2889 -0.1752
11022TIP3    H154557   6.892   1.160   3.586  1.3776  0.9405 -1.2770
11022TIP3    H254558   6.910   1.113   3.443 -0.8582 -0.8603 -1.0185
11023TIP3   OH254559   4.718   0.389   2.770 -0.2787 -0.2316 -0.3628
11023TIP3    H154560   4.677   0.307   2.798 -1.9116  0.1444 -1.4789
11023TIP3    H254561   4.731   0.378   2.676 -0.9163  0.9305 -0.6100
11024TIP3   OH254562   6.155   1.466   5.145 -0.2950  0.0558  0.4660
11024TIP3    H154563   6.083   1.407   5.123  1.6270 -0.9775 -4.2586
11024TIP3    H254564   6.114   1.552   5.155 -2.3259 -0.7492 -0.5110
11025TIP3   OH254565   2.771   2.072  12.914  0.0812  0.7880  0.0808
11025TIP3    H154566   2.688   2.092  12.870  0.6955  0.2180 -1.3945
11025TIP3    H254567   2.784   2.145  12.975 -0.3482  2.1079 -1.3648
11026TIP3   OH254568   0.388   1.404   5.390 -0.2597 -0.4871  0.3523
11026TIP3    H154569   0.465   1.376   5.340 -0.2958 -1.6844  0.9290
11026TIP3    H254570   0.424   1.436   5.473 -0.3683 -1.0638  0.6288
11027TIP3   OH254571   6.573   2.059   6.268  0.0670 -0.1946  0.9416
11027TIP3    H154572   6.496   2.071   6.324 -0.7352 -1.3875  0.1398
11027TIP3    H254573   6.632   2.006   6.321 -0.3191 -0.5818  0.9908
11028TIP3   OH254574   5.844   4.117  11.602 -0.1970  0.1890  0.2442
11028TIP3    H154575   5.835   4.135  11.509 -0.1122 -0.0552  0.1854
11028TIP3    H254576   5.820   4.198  11.646 -2.1678 -0.2571  0.0971
11029TIP3   OH254577   4.115   4.646   3.137 -0.1380  0.1099  0.5116
11029TIP3    H154578   4.044   4.583   3.126  1.1848 -1.7107  1.7229
11029TIP3    H254579   4.193   4.599   3.109  0.8573  1.3444  1.0913
11030TIP3   OH254580   4.795   2.005   5.615 -0.1489  0.3695  0.3460
11030TIP3    H154581   4.792   2.069   5.686 -0.7955 -0.5325  1.1584
11030TIP3    H254582   4.733   2.038   5.550 -0.1942  0.7651  0.5851
11031TIP3   OH254583   2.361   3.896   0.931 -0.0520 -0.0263  0.0794
11031TIP3    H154584   2.323   3.975   0.970  1.2150  0.2969  0.7219
11031TIP3    H254585   2.357   3.831   1.001  1.3760  0.2835  0.4878
11032TIP3   OH254586   1.627   6.319   3.754  0.4344  0.2921  0.1525
11032TIP3    H154587   1.560   6.386   3.771  1.3346  0.9367  1.3330
11032TIP3    H254588   1.599   6.244   3.806 -0.5805 -0.2993 -1.1783
11033TIP3   OH254589   3.636   3.951   2.649 -0.0248  0.2263 -0.1386
11033TIP3    H154590   3.646   3.937   2.555  2.2110 -0.4536  0.1371
11033TIP3    H254591   3.547   3.921   2.668 -0.2115 -0.4601 -1.8949
11034TIP3   OH254592   5.188   6.830   5.426  0.3967  0.3239  0.1288
11034TIP3    H154593   5.095   6.842   5.404  0.6489 -0.6417 -1.6201
11034TIP3    H254594   5.216   6.756   5.372  3.3034  3.1956 -2.7745
11035TIP3   OH254595   0.035   5.645   0.421 -0.7165 -0.2053  0.0732
11035TIP3    H154596   0.121   5.672   0.389 -0.8779 -0.4431 -0.5724
11035TIP3    H254597   0.045   5.552   0.441 -0.4778  0.0474  1.2132
11036TIP3   OH254598   6.825   1.358   1.462  0.4811 -0.4406 -0.3600
11036TIP3    H154599   6.818   1.334   1.369  0.7861 -0.6549 -0.3323
11036TIP3    H254600   6.822   1.453   1.463  2.3164 -0.3410 -0.7826
11037TIP3   OH254601   1.685   6.396   1.418  0.4546  0.0015 -0.9953
11037TIP3    H154602   1.683   6.367   1.327  0.2135 -1.5794 -0.5065
11037TIP3    H254603   1.714   6.320   1.468  2.3041  1.3430  0.0949
11038TIP3   OH254604   0.975   5.744   2.088 -0.5220  0.0717 -0.0993
11038TIP3    H154605   0.896   5.725   2.037  0.0126 -0.5701 -0.7127
11038TIP3    H254606   0.982   5.672   2.151  1.6162 -2.1066 -2.5588
11039TIP3   OH254607   6.397   3.308   0.551 -0.6187 -0.1166 -0.2525
11039TIP3    H154608   6.467   3.256   0.511  0.3284 -0.1102  1.2941
11039TIP3    H254609   6.318   3.281   0.506  0.3319 -0.3233 -1.8820
11040TIP3   OH254610   2.116   0.363  16.610 -0.5476 -0.1274  0.0000
11040TIP3    H154611   2.112   0.279  16.656  0.3875 -0.6839 -0.8848
11040TIP3    H254612   2.203   0.364  16.570 -0.8568  0.8968 -0.6938
11041TIP3   OH254613   5.644   5.796  15.786  0.3366  0.0329  0.2436
11041TIP3    H154614   5.580   5.808  15.856  2.0751 -0.6089  2.0694
11041TIP3    H254615   5.616   5.854  15.716 -2.4551 -0.5681  0.7577
11042TIP3   OH254616   5.392   3.729   4.095  0.1996  0.3219 -0.0192
11042TIP3    H154617   5.316   3.676   4.074 -1.5846  2.3119  1.0051
11042TIP3    H254618   5.465   3.668   4.094 -1.6910 -2.1101  0.9703
11043TIP3   OH254619   5.849   2.557  16.525 -0.3471 -0.3607 -0.1406
11043TIP3    H154620   5.843   2.465  16.552  2.7426 -1.2720 -2.0661
11043TIP3    H254621   5.855   2.606  16.607 -1.0932 -1.9510  0.9113
11044TIP3   OH254622   6.414   1.004   5.173  0.7080 -0.0211 -0.3332
11044TIP3    H154623   6.388   0.981   5.262 -0.7167 -1.7312 -1.1330
11044TIP3    H254624   6.508   1.025   5.180  1.1120 -2.0334  1.2568
11045TIP3   OH254625   4.768   2.754  12.933 -0.6888 -0.1827 -0.2081
11045TIP3    H154626   4.850   2.744  12.884 -1.9247 -1.0880 -2.2344
11045TIP3    H254627   4.764   2.846  12.956  0.0948  0.2302 -1.6250
11046TIP3   OH254628   1.366   0.828  15.392 -0.3369 -0.3052 -0.1435
11046TIP3    H154629   1.318   0.795  15.316 -0.7040 -1.8279  0.7166
11046TIP3    H254630   1.345   0.922  15.395 -1.2232 -0.4492 -1.2470
11047TIP3   OH254631   5.669   1.460  12.709 -0.2889  0.0071 -0.2411
11047TIP3    H154632   5.651   1.552  12.731  0.2172  0.5211 -1.8273
11047TIP3    H254633   5.726   1.429  12.779  0.5787  1.3006 -0.3319
11048TIP3   OH254634   4.643   1.174  15.217 -0.3292  0.0521  0.3225
11048TIP3    H154635   4.692   1.169  15.135  0.4518  2.6597  0.5571
11048TIP3    H254636   4.606   1.262  15.217  0.8666  0.6636  3.3854
11049TIP3   OH254637   4.574   5.102  10.447  0.2753  0.7683 -0.4595
11049TIP3    H154638   4.560   5.007  10.442 -1.5187  0.9895 -0.3981
11049TIP3    H254639   4.511   5.132  10.513 -0.2300  2.1645 -1.5186
11050TIP3   OH254640   1.718   4.523   1.331 -0.4249 -0.0712  0.4755
11050TIP3    H154641   1.639   4.488   1.373  0.4882  0.3270  2.6526
11050TIP3    H254642   1.783   4.454   1.340  0.2460  0.6369  1.2080
11051TIP3   OH254643   4.091   4.388  11.367  0.8603  0.1883  0.0993
11051TIP3    H154644   4.089   4.355  11.277  2.3127 -0.5828  0.3142
11051TIP3    H254645   4.088   4.483  11.357  0.0173  0.0926 -0.7005
11052TIP3   OH254646   3.567   2.262  11.297 -0.3139 -0.0198  0.4745
11052TIP3    H154647   3.543   2.329  11.233  0.2156  1.5029  1.7945
11052TIP3    H254648   3.651   2.291  11.331  1.3406 -2.8679 -0.8628
11053TIP3   OH254649   5.145   4.786  15.117  0.3373 -0.3322 -0.1272
11053TIP3    H154650   5.209   4.805  15.048 -0.4666  1.4742 -0.4100
11053TIP3    H254651   5.107   4.702  15.091  2.3845 -1.3562 -0.0661
11054TIP3   OH254652   2.411   2.641  13.409 -0.4013  0.1911  0.5139
11054TIP3    H154653   2.344   2.575  13.393 -1.4859  1.2948  0.2875
11054TIP3    H254654   2.432   2.632  13.502  0.8516 -1.6733  0.1079
11055TIP3   OH254655   5.078   5.468  13.861  0.4677  0.3410 -0.5623
11055TIP3    H154656   5.019   5.525  13.813  0.4316  1.2974  0.5805
11055TIP3    H254657   5.158   5.519  13.871  1.5693 -0.9817 -2.1874
11056TIP3   OH254658   6.164   1.836  12.031 -0.2066  0.0846  0.2460
11056TIP3    H154659   6.242   1.811  12.081  0.8714 -0.4587 -1.5969
11056TIP3    H254660   6.194   1.907  11.975 -0.2884 -1.7026 -2.2355
11057TIP3   OH254661   0.057   3.259  14.375  0.1167 -0.0939 -0.1146
11057TIP3    H154662   0.066   3.180  14.428 -0.0455 -0.3695 -0.4970
11057TIP3    H254663   0.044   3.329  14.439  3.2344  0.1257  0.4324
11058TIP3   OH254664   1.736   4.967   0.324  0.0780  0.3717 -0.2106
11058TIP3    H154665   1.807   4.932   0.270 -1.3627 -1.1867 -1.2209
11058TIP3    H254666   1.707   5.045   0.277 -0.8125 -0.6764 -1.4993
11059TIP3   OH254667   1.330   4.329  11.061 -0.5983 -0.0103 -0.5796
11059TIP3    H154668   1.394   4.382  11.015 -0.9793 -0.8473 -2.1193
11059TIP3    H254669   1.350   4.342  11.154  0.0997  1.8141 -0.9538
11060TIP3   OH254670   0.120   4.859   4.113 -0.0406  0.1137 -0.0384
11060TIP3    H154671   0.056   4.877   4.182  1.3962  1.7797  0.9161
11060TIP3    H254672   0.163   4.778   4.142 -0.6129 -0.1373  0.1286
11061TIP3   OH254673   6.547   6.048   5.360  0.4968 -0.0646  0.0031
11061TIP3    H154674   6.539   6.143   5.352  0.2127 -0.1955 -1.4858
11061TIP3    H254675   6.458   6.015   5.352  0.7006 -0.5105 -0.5389
11062TIP3   OH254676   2.419   0.720   6.207 -0.2270  0.5862  0.4760
11062TIP3    H154677   2.363   0.725   6.285 -1.4808  0.8857 -0.4089
11062TIP3    H254678   2.486   0.655   6.230 -0.9739  0.1634  1.5502
11063TIP3   OH254679   5.313   3.421   4.266  0.0716 -0.2811  0.2255
11063TIP3    H154680   5.395   3.381   4.294  1.8236  2.2583 -0.9692
11063TIP3    H254681   5.290   3.482   4.336 -0.3821 -0.3775  0.1693
11064TIP3   OH254682   6.608   6.128  13.652 -0.2277  0.8686 -0.5153
11064TIP3    H154683   6.678   6.193  13.640  1.3463 -0.9493 -1.6770
11064TIP3    H254684   6.654   6.047  13.672 -1.9298 -0.6175 -2.2163
11065TIP3   OH254685   2.172   2.965  15.492 -0.1147  0.0120 -0.6094
11065TIP3    H154686   2.252   2.918  15.471 -0.1713  0.0497 -0.9128
11065TIP3    H254687   2.133   2.916  15.564 -0.6545 -0.9497 -1.5423
11066TIP3   OH254688   0.225   2.249   1.967  0.3668 -0.6880  0.0317
11066TIP3    H154689   0.216   2.179   1.902  1.3401 -0.3488 -0.4845
11066TIP3    H254690   0.287   2.310   1.928  1.4133 -0.7590  1.5217
11067TIP3   OH254691   1.198   2.618   4.193  0.0960 -0.2690 -0.2850
11067TIP3    H154692   1.205   2.585   4.104 -2.1816 -1.2314 -0.1698
11067TIP3    H254693   1.151   2.550   4.241  0.5858  0.5574  1.4745
11068TIP3   OH254694   5.673   2.775  11.017  0.3959  0.2489  0.3030
11068TIP3    H154695   5.593   2.731  11.046  0.2097  0.8130  0.6568
11068TIP3    H254696   5.721   2.794  11.097 -0.3858  2.3185  0.3369
11069TIP3   OH254697   3.196   0.646  12.631  0.1056 -0.6161 -0.1031
11069TIP3    H154698   3.172   0.738  12.621 -2.0642 -1.1194 -0.1004
11069TIP3    H254699   3.179   0.626  12.723  0.2758 -1.0814 -0.1666
11070TIP3   OH254700   3.545   0.734   6.534 -0.2128  0.4978  0.6541
11070TIP3    H154701   3.505   0.656   6.573 -0.3022  0.5398  0.6483
11070TIP3    H254702   3.515   0.806   6.589 -1.3735  0.7204 -0.2006
11071TIP3   OH254703   2.989   5.310   5.203  0.2056  0.1416  0.9460
11071TIP3    H154704   2.960   5.357   5.125  0.8127 -0.3146  0.4247
11071TIP3    H254705   3.085   5.321   5.203  0.7565 -3.1573 -0.6799
11072TIP3   OH254706   4.723   3.376  11.635 -0.1520 -0.9859 -0.0732
11072TIP3    H154707   4.657   3.328  11.685 -0.5971 -0.8663 -0.5442
11072TIP3    H254708   4.722   3.336  11.548  0.9155 -1.4691  0.1201
11073TIP3   OH254709   3.683   2.556  14.615  0.5021  0.7211 -0.0046
11073TIP3    H154710   3.754   2.595  14.666 -1.3868  0.6794  2.8701
11073TIP3    H254711   3.609   2.616  14.627 -0.4772 -0.1453 -1.4229
11074TIP3   OH254712   2.592   0.698  11.436  0.4569  0.0303  0.0494
11074TIP3    H154713   2.666   0.747  11.400 -0.1370 -1.2651 -3.3650
11074TIP3    H254714   2.515   0.735  11.393 -0.5119 -0.8568  0.9478
11075TIP3   OH254715   1.956   0.479   2.049  0.0963 -0.5857  0.2047
11075TIP3    H154716   2.039   0.495   2.004 -0.9116  1.6938 -0.9706
11075TIP3    H254717   1.977   0.488   2.142  1.3258 -0.8891 -0.0301
11076TIP3   OH254718   3.746   1.863   2.830  0.3551  0.5602 -0.0993
11076TIP3    H154719   3.759   1.887   2.739  2.2047  1.2693  0.3027
11076TIP3    H254720   3.742   1.767   2.830  2.1094  0.4490 -0.7755
11077TIP3   OH254721   3.380   2.370  15.447  0.0066  0.0027 -0.6211
11077TIP3    H154722   3.433   2.318  15.386 -0.4047 -0.6036 -0.4786
11077TIP3    H254723   3.295   2.326  15.447 -0.3615  0.6978 -0.5089
11078TIP3   OH254724   1.503   2.599   4.102 -0.1635 -0.1893 -0.5432
11078TIP3    H154725   1.500   2.562   4.190  0.4922 -0.6304 -0.6946
11078TIP3    H254726   1.417   2.581   4.065 -0.2082 -0.6158 -0.2370
11079TIP3   OH254727   3.598   4.065  12.581 -0.1550 -0.9005  0.2008
11079TIP3    H154728   3.553   4.001  12.636 -1.8212 -2.6719 -2.9670
11079TIP3    H254729   3.601   4.025  12.494  0.7011  2.4349 -1.4803
11080TIP3   OH254730   4.636   1.743  11.928  0.3922 -0.7545 -0.1777
11080TIP3    H154731   4.547   1.758  11.961 -0.1018 -1.3633 -1.1764
11080TIP3    H254732   4.667   1.830  11.902 -0.0673 -0.5906 -0.1861
11081TIP3   OH254733   1.027   0.491   3.722 -0.3695  0.4172 -0.2704
11081TIP3    H154734   0.936   0.472   3.748 -0.9487  2.1994 -0.8420
11081TIP3    H254735   1.077   0.478   3.802 -1.4465  1.3611  0.5957
11082TIP3   OH254736   2.852   1.304   1.719  0.2591 -0.1614  0.0256
11082TIP3    H154737   2.869   1.298   1.813 -1.3980  1.2286  0.4815
11082TIP3    H254738   2.848   1.213   1.689  0.2602 -0.6483  1.4175
11083TIP3   OH254739   2.977   3.383  12.230  0.3243  0.0290  0.7644
11083TIP3    H154740   3.027   3.302  12.242 -0.0924 -0.0842  1.8943
11083TIP3    H254741   3.044   3.451  12.224  0.6947 -0.4141 -0.5365
11084TIP3   OH254742   1.076   2.596   3.547 -0.1547  0.3421  0.2509
11084TIP3    H154743   1.112   2.509   3.531 -0.2491  0.6000 -1.6735
11084TIP3    H254744   1.128   2.654   3.490 -3.5018  0.7222 -2.7680
11085TIP3   OH254745   2.237   2.570   3.668  0.0414  0.0879 -0.5489
11085TIP3    H154746   2.172   2.505   3.643  0.0081  0.1662 -0.6678
11085TIP3    H254747   2.254   2.620   3.588  2.2442 -1.6291 -1.2455
11086TIP3   OH254748   0.890   0.578  10.475  0.5915 -0.2765  0.2472
11086TIP3    H154749   0.858   0.490  10.456 -0.0846 -0.3673  1.6822
11086TIP3    H254750   0.814   0.634  10.461  1.1741  0.1885 -1.2483
11087TIP3   OH254751   1.040   3.167   2.179  0.3816  0.1690 -0.1008
11087TIP3    H154752   0.988   3.178   2.099  0.4253  0.7175 -0.0583
11087TIP3    H254753   1.038   3.253   2.221  0.9131  0.0618  0.1505
11088TIP3   OH254754   2.681   4.698  12.156  0.7759  0.6661  0.6151
11088TIP3    H154755   2.771   4.712  12.185  0.7302  0.8400  0.6786
11088TIP3    H254756   2.641   4.785  12.159 -0.0651  0.2552  2.8321
11089TIP3   OH254757   3.754   1.469   5.295 -0.1725 -0.2638  0.4629
11089TIP3    H154758   3.692   1.407   5.257 -0.1268 -0.8093  1.2554
11089TIP3    H254759   3.773   1.434   5.383 -0.4694  1.0892  1.0921
11090TIP3   OH254760   2.089   4.705   5.244  0.2987  0.3645  0.1674
11090TIP3    H154761   2.008   4.748   5.218  0.6863  0.0898 -1.6887
11090TIP3    H254762   2.108   4.738   5.331 -2.1141 -0.0493  0.9169
11091TIP3   OH254763   3.758   3.881  16.627 -0.5798 -0.0702 -0.1149
11091TIP3    H154764   3.751   3.970  16.662  2.8454  0.9214 -1.5604
11091TIP3    H254765   3.752   3.892  16.532 -0.4113 -1.4254 -0.2972
11092TIP3   OH254766   2.033   2.723  13.433 -0.1796 -0.2009 -0.5951
11092TIP3    H154767   1.959   2.775  13.465  1.0967  1.0386  0.4221
11092TIP3    H254768   2.057   2.667  13.507  1.7218  1.4907  0.1549
11093TIP3   OH254769   1.030   0.607   0.897 -0.2567  0.3353 -0.8008
11093TIP3    H154770   0.960   0.653   0.944 -1.9657 -0.1854 -2.7008
11093TIP3    H254771   1.108   0.620   0.952 -1.6665  1.5132  1.0584
11094TIP3   OH254772   4.729   5.535  16.940 -0.2474 -0.0512 -0.1279
11094TIP3    H154773   4.742   5.600  17.009 -1.9483  0.7110 -0.4786
11094TIP3    H254774   4.634   5.517  16.941 -0.2143 -0.4947 -1.8457
11095TIP3   OH254775   4.056   6.038  15.658 -0.2296  0.1648  0.0691
11095TIP3    H154776   4.122   6.104  15.636  1.8366 -0.9424  2.3370
11095TIP3    H254777   4.092   5.956  15.623 -0.3336 -0.4670  1.3802
11096TIP3   OH254778   0.218   4.112   0.548  0.0139 -0.0443 -0.8455
11096TIP3    H154779   0.265   4.163   0.613 -1.6406  1.0430 -0.4334
11096TIP3    H254780   0.250   4.145   0.464 -1.4155  2.1922 -0.6070
11097TIP3   OH254781   3.456   0.014  14.751 -0.0406  0.2270 -0.2705
11097TIP3    H154782   3.504   0.095  14.733 -0.0171  0.1378 -0.6185
11097TIP3    H254783   3.412   0.030  14.834  0.2182  0.4818 -0.1828
11098TIP3   OH254784   3.578   6.154   1.439 -1.0979  0.2567 -0.0376
11098TIP3    H154785   3.590   6.249   1.434 -1.9869  0.3581 -0.4593
11098TIP3    H254786   3.628   6.120   1.365 -0.8349  0.3977  0.0722
11099TIP3   OH254787   6.625   2.287   4.108 -0.4292 -0.9544 -0.7760
11099TIP3    H154788   6.550   2.298   4.050 -0.8259  0.3315 -0.0628
11099TIP3    H254789   6.656   2.198   4.091 -1.6727 -1.2513 -1.6043
11100TIP3   OH254790   0.884   4.293   3.875 -0.3219  0.2147  0.0667
11100TIP3    H154791   0.928   4.341   3.806  0.3231  0.4885  0.6633
11100TIP3    H254792   0.914   4.333   3.956 -0.9612 -0.1925  0.5178
11101TIP3   OH254793   1.641   4.228   1.054  0.0765 -0.3519  0.3316
11101TIP3    H154794   1.574   4.251   1.118  0.8144 -0.0862  1.0335
11101TIP3    H254795   1.704   4.176   1.103 -0.0520 -1.3471 -0.5337
11102TIP3   OH254796   0.773   1.942   2.545  0.1405  0.2734  0.3452
11102TIP3    H154797   0.776   2.017   2.604 -0.9387  0.4903  0.1421
11102TIP3    H254798   0.767   1.980   2.457 -0.2524 -0.0470  0.2304
11103TIP3   OH254799   5.811   2.950   1.152  0.0281  0.2668  0.3242
11103TIP3    H154800   5.775   2.861   1.152 -0.5575  0.4979  1.1435
11103TIP3    H254801   5.747   3.002   1.102  1.2658 -0.0900 -1.7789
11104TIP3   OH254802   2.429   5.084  16.643  0.1636 -0.4504  0.4968
11104TIP3    H154803   2.484   5.086  16.565  0.8886 -0.5061  0.9956
11104TIP3    H254804   2.489   5.098  16.716 -0.3931 -1.1193  1.1070
11105TIP3   OH254805   3.456   6.433  16.867  0.4288 -0.1940 -0.3863
11105TIP3    H154806   3.435   6.355  16.917  0.1052 -0.5271 -1.0368
11105TIP3    H254807   3.401   6.428  16.789  2.2837 -0.6924 -1.7564
11106TIP3   OH254808   6.381   0.986  11.588  0.5768  0.9708  0.0979
11106TIP3    H154809   6.391   1.074  11.552 -5.2754  1.7286 -0.7147
11106TIP3    H254810   6.386   0.928  11.512 -1.8641  1.4825 -0.5482
11107TIP3   OH254811   5.707   1.092  12.671 -0.1363  0.0608  0.0146
11107TIP3    H154812   5.720   1.011  12.622 -1.5544 -1.4004  1.9276
11107TIP3    H254813   5.791   1.108  12.714 -0.0511 -0.7845  0.1716
11108TIP3   OH254814   1.759   2.750  16.739  0.1569  0.4271  0.1105
11108TIP3    H154815   1.817   2.806  16.791  2.0756 -0.8881 -0.4729
11108TIP3    H254816   1.725   2.686  16.801 -0.5971  1.1144  0.4278
11109TIP3   OH254817   6.409   0.935  13.691  0.4784  0.2789 -0.4019
11109TIP3    H154818   6.367   0.855  13.661 -0.1469  0.6802 -0.6136
11109TIP3    H254819   6.484   0.905  13.742 -0.8476 -0.4989  1.1821
11110TIP3   OH254820   3.149   4.786   5.026  0.1271 -0.0048 -0.6976
11110TIP3    H154821   3.190   4.714   4.977 -2.8679  0.1647 -3.8123
11110TIP3    H254822   3.189   4.865   4.989  1.0181  0.0643  0.3635
11111TIP3   OH254823   0.064   4.775   3.834  0.1672  0.5685 -0.4026
11111TIP3    H154824   0.114   4.787   3.914 -0.0168 -1.0166 -0.0148
11111TIP3    H254825  -0.016   4.731   3.861  0.6339 -1.1082 -1.5687
11112TIP3   OH254826   3.146   2.761  15.492  0.0416 -0.0426  0.2529
11112TIP3    H154827   3.239   2.776  15.477 -0.0680 -0.0912 -0.4920
11112TIP3    H254828   3.137   2.758  15.587  0.9740 -1.0519  0.3273
11113TIP3   OH254829   1.700   6.007   0.199  0.1430  0.0311  0.0774
11113TIP3    H154830   1.635   6.000   0.269  1.4595  1.0590  1.4494
11113TIP3    H254831   1.699   5.920   0.158 -0.6056 -0.6332  1.4101
11114TIP3   OH254832   1.349   1.863  11.735 -0.1824  0.3299  0.0008
11114TIP3    H154833   1.298   1.937  11.700  1.1803  1.6268  0.6095
11114TIP3    H254834   1.430   1.904  11.766  1.0070 -1.5790 -0.4731
11115TIP3   OH254835   1.843   2.089   5.028  0.1424 -0.2407  0.0424
11115TIP3    H154836   1.787   2.045   5.092  0.6186 -0.2613  0.4551
11115TIP3    H254837   1.932   2.063   5.053  0.2709 -1.1605 -1.3161
11116TIP3   OH254838   0.804   3.221  14.199  0.6016  0.6365 -0.1547
11116TIP3    H154839   0.799   3.221  14.104  2.0092 -1.6102 -0.3046
11116TIP3    H254840   0.718   3.191  14.228  0.1515  1.3782 -0.7091
11117TIP3   OH254841   1.011   0.957  14.600  0.3544 -0.0002  0.6978
11117TIP3    H154842   1.021   0.879  14.544  1.2093  0.6271 -0.0544
11117TIP3    H254843   0.916   0.967  14.609  0.1603  0.1611 -1.0749
11118TIP3   OH254844   5.756   6.731  13.089  0.0709  0.3179 -0.0653
11118TIP3    H154845   5.737   6.753  12.998 -0.3523  0.9147  0.1545
11118TIP3    H254846   5.674   6.695  13.123 -0.3345  1.7002  0.5355
11119TIP3   OH254847   3.952   5.351  15.630  0.1388 -0.1754  0.8052
11119TIP3    H154848   3.967   5.313  15.716 -0.7823  1.7857  1.9080
11119TIP3    H254849   3.864   5.323  15.606  1.3808 -3.0549 -0.8852
11120TIP3   OH254850   6.625   3.796   4.996  0.0211  0.4052 -0.0163
11120TIP3    H154851   6.551   3.737   5.009 -0.6145  0.7796 -1.6356
11120TIP3    H254852   6.617   3.861   5.065 -0.7099  0.0034  0.2813
11121TIP3   OH254853   4.907   3.472   5.098  0.4824  0.2384 -0.0029
11121TIP3    H154854   4.997   3.445   5.078  0.9055  1.0843  0.6773
11121TIP3    H254855   4.873   3.401   5.153  0.3297 -0.6324 -1.1813
11122TIP3   OH254856   1.154   0.601  13.559 -0.5627 -0.1055  0.0302
11122TIP3    H154857   1.194   0.517  13.535 -1.2901 -1.0678  1.9524
11122TIP3    H254858   1.092   0.579  13.629  0.3632  2.2482  1.7176
11123TIP3   OH254859   6.642   3.587   5.242 -0.3727  0.0439 -0.1523
11123TIP3    H154860   6.623   3.506   5.194 -0.3301 -1.0230  1.5374
11123TIP3    H254861   6.570   3.646   5.220 -1.5810 -1.2258  0.2078
11124TIP3   OH254862   6.157   3.741   2.618 -0.3398  0.2028 -0.5135
11124TIP3    H154863   6.202   3.801   2.678  1.1712  1.1373 -2.4743
11124TIP3    H254864   6.067   3.738   2.650 -0.0780  2.2824  0.5954
11125TIP3   OH254865   3.685   2.403  12.302  0.7700  0.7685 -0.3266
11125TIP3    H154866   3.679   2.392  12.207 -0.3314  1.0584 -0.3090
11125TIP3    H254867   3.623   2.474  12.322  0.3784  0.1686  0.6915
11126TIP3   OH254868   6.426   3.176  14.747 -0.1013  0.4740 -0.3514
11126TIP3    H154869   6.486   3.238  14.704  0.2116 -0.4539 -1.3151
11126TIP3    H254870   6.341   3.218  14.742  0.0391  0.6821 -1.3387
11127TIP3   OH254871   4.747   3.971  12.560 -0.8611  0.0809  0.6431
11127TIP3    H154872   4.662   3.938  12.588 -0.7887 -0.1967  0.5439
11127TIP3    H254873   4.735   4.065  12.551 -1.8787 -0.2126 -1.8403
11128TIP3   OH254874   5.432   6.064  17.048 -0.3183  0.2835  0.1811
11128TIP3    H154875   5.467   6.115  16.975  0.2392  0.1623  0.3572
11128TIP3    H254876   5.453   5.973  17.027  2.3948  0.4215  1.7683
11129TIP3   OH254877   1.017   0.668  14.506  0.1104  0.0495  0.0970
11129TIP3    H154878   0.947   0.675  14.441  1.2382 -1.0215 -1.2898
11129TIP3    H254879   0.976   0.625  14.580 -0.5893 -1.0869 -0.9162
11130TIP3   OH254880   1.450   5.300  13.783  0.2585  0.7025 -0.2341
11130TIP3    H154881   1.479   5.265  13.867 -1.2197  0.9101  0.3949
11130TIP3    H254882   1.376   5.357  13.805 -2.8758 -2.3232 -1.9314
11131TIP3   OH254883   5.584   4.846  15.347 -0.3447  0.0828  0.6651
11131TIP3    H154884   5.673   4.840  15.312 -0.3602  0.1154  0.6212
11131TIP3    H254885   5.597   4.871  15.439 -0.3392  0.8419  0.4608
11132TIP3   OH254886   1.579   1.926   4.502  0.0162  0.6553  0.1291
11132TIP3    H154887   1.536   1.880   4.430 -0.3573  0.9347  0.1696
11132TIP3    H254888   1.631   1.994   4.459 -0.1686  0.7910  0.1187
11133TIP3   OH254889   3.033   1.817   3.185 -0.6187  0.3192  0.2565
11133TIP3    H154890   3.062   1.908   3.184 -0.8917  0.4008 -0.5042
11133TIP3    H254891   3.110   1.768   3.214 -0.4905  0.7897  0.7358
11134TIP3   OH254892   2.884   4.874  14.886  0.5265  0.1842  0.1637
11134TIP3    H154893   2.852   4.820  14.814 -1.7318 -0.5562  1.6045
11134TIP3    H254894   2.960   4.826  14.920  0.5762 -0.3375 -0.6438
11135TIP3   OH254895   0.966   3.318   5.295 -0.4542  0.0101  0.0098
11135TIP3    H154896   1.027   3.349   5.362  1.2548  0.9493 -1.8806
11135TIP3    H254897   0.923   3.243   5.336 -0.9204  1.6651  2.8470
11136TIP3   OH254898   0.430   5.139  15.189  0.8139  0.2304 -0.0335
11136TIP3    H154899   0.518   5.104  15.180  1.1817  0.9993  0.4761
11136TIP3    H254900   0.403   5.158  15.099  1.7438  1.3272 -0.1146
11137TIP3   OH254901   0.033   3.283  12.941  0.1904 -0.1265  0.0728
11137TIP3    H154902  -0.038   3.299  13.004  0.5541 -1.4502  0.8602
11137TIP3    H254903   0.079   3.367  12.935 -0.4483  0.2911  0.8269
11138TIP3   OH254904   2.495   1.142   3.701  0.2479  0.3914  0.2988
11138TIP3    H154905   2.501   1.155   3.796 -0.5711 -1.6662  0.6959
11138TIP3    H254906   2.402   1.147   3.682  0.0622 -2.1699  0.1711
11139TIP3   OH254907   6.057   2.595   3.810 -0.2217 -0.1337 -0.1215
11139TIP3    H154908   6.081   2.601   3.718  0.2600  0.4041  0.0301
11139TIP3    H254909   5.985   2.657   3.820 -0.1172 -0.0173 -0.0883
11140TIP3   OH254910   4.439   3.098   1.717  0.2126  0.5057  0.3583
11140TIP3    H154911   4.388   3.021   1.694 -0.4028  1.2573 -0.8862
11140TIP3    H254912   4.493   3.115   1.640  1.8054  0.1829  1.3629
11141TIP3   OH254913   6.526   6.496   4.614  0.6369 -0.6986 -0.2960
11141TIP3    H154914   6.477   6.535   4.687  0.8119  2.4999 -1.6972
11141TIP3    H254915   6.606   6.463   4.654 -0.1840 -0.9493  1.2400
11142TIP3   OH254916   4.279   1.213   0.524 -0.2603  0.2820  0.5588
11142TIP3    H154917   4.254   1.167   0.604  1.7148 -0.8867  0.5662
11142TIP3    H254918   4.345   1.276   0.552  0.3820 -0.0768 -0.1259
11143TIP3   OH254919   2.819   1.165  13.954  0.6014  0.0025  0.4357
11143TIP3    H154920   2.795   1.253  13.981  1.0885  0.1951  0.2535
11143TIP3    H254921   2.765   1.147  13.877  2.5583  1.2839 -1.3245
11144TIP3   OH254922   4.856   4.168   1.198 -0.4838 -0.1014  0.3324
11144TIP3    H154923   4.939   4.165   1.245 -1.0742 -0.4822  1.3632
11144TIP3    H254924   4.860   4.093   1.138  0.7067  0.9815 -1.0244
11145TIP3   OH254925   4.227   0.651  13.615 -0.0271 -0.0148 -0.1669
11145TIP3    H154926   4.295   0.597  13.573  1.1505  1.0782  0.2698
11145TIP3    H254927   4.156   0.589  13.634  0.2226 -0.9139 -1.9480
11146TIP3   OH254928   4.769   4.020  14.905  0.1564 -0.7509 -0.6979
11146TIP3    H154929   4.684   4.057  14.930  2.2287  3.6152  0.9473
11146TIP3    H254930   4.793   3.963  14.978  0.4872  1.6763  1.2250
11147TIP3   OH254931   1.234   3.990   3.335  0.1427 -0.6556 -0.0763
11147TIP3    H154932   1.305   4.019   3.393  1.2608 -0.6458 -1.4007
11147TIP3    H254933   1.262   3.904   3.304 -1.1359 -1.3054  0.4859
11148TIP3   OH254934   0.828   2.340   2.135 -0.1525 -0.3466 -0.1884
11148TIP3    H154935   0.816   2.353   2.041 -0.9964  1.6072  0.1287
11148TIP3    H254936   0.900   2.400   2.158  0.0593 -0.8241  0.4196
11149TIP3   OH254937   5.950   0.766   2.290 -0.5604 -0.0588 -0.3583
11149TIP3    H154938   5.944   0.779   2.195 -0.1779 -1.7606 -0.6533
11149TIP3    H254939   6.002   0.840   2.321  0.6414 -0.2937 -1.7145
11150TIP3   OH254940   6.710   0.029  14.418 -0.6270  0.0032 -0.4407
11150TIP3    H154941   6.736  -0.029  14.489  1.5118 -1.0078 -1.9478
11150TIP3    H254942   6.644  -0.020  14.369 -1.2775  0.2566  0.1503
11151TIP3   OH254943   3.884   1.575  14.703 -0.2620 -0.0692  0.2861
11151TIP3    H154944   3.811   1.575  14.642 -2.4943  1.2477  2.7518
11151TIP3    H254945   3.962   1.584  14.648 -1.9556 -0.7421 -2.3990
11152TIP3   OH254946   6.115   3.757   6.221  0.1824 -0.1934  0.2244
11152TIP3    H154947   6.128   3.811   6.142 -2.4157  0.8689  0.4424
11152TIP3    H254948   6.183   3.787   6.281  0.0496  1.4517 -0.3946
11153TIP3   OH254949   0.044   5.305   3.496  0.3177  0.2402  0.6868
11153TIP3    H154950  -0.038   5.291   3.544 -1.4606 -2.3116 -2.6538
11153TIP3    H254951   0.018   5.356   3.419  1.8729 -0.5544 -0.4202
11154TIP3   OH254952   1.184   3.791  13.209  0.1852 -0.6124 -0.4069
11154TIP3    H154953   1.188   3.739  13.129 -1.2062  0.4235 -1.1780
11154TIP3    H254954   1.091   3.807  13.223  0.5576  1.4201 -0.0106
11155TIP3   OH254955   6.352   0.845  14.094 -0.3109  0.3160 -0.8330
11155TIP3    H154956   6.445   0.822  14.082 -0.2632  0.5073 -0.8277
11155TIP3    H254957   6.341   0.846  14.189 -0.6674 -1.1165 -0.8353
11156TIP3   OH254958   6.679   6.849   4.760  0.2653 -0.0330 -0.3151
11156TIP3    H154959   6.702   6.808   4.843  2.1226  0.0322 -0.7589
11156TIP3    H254960   6.605   6.797   4.728  1.7624 -2.3376 -0.2909
11157TIP3   OH254961   2.277   0.457  16.989  0.4886  0.3685 -0.0170
11157TIP3    H154962   2.316   0.542  16.971 -1.0240  0.7931 -1.5747
11157TIP3    H254963   2.249   0.462  17.081  2.3030  0.7191  0.5581
11158TIP3   OH254964   4.409   3.002  14.516  0.4751  0.1396 -0.6401
11158TIP3    H154965   4.409   2.920  14.466 -2.3062 -0.0384 -0.4646
11158TIP3    H254966   4.367   3.066  14.457  1.9894  1.3269 -0.5103
11159TIP3   OH254967   4.670   1.504  17.000 -0.2100 -0.3784 -0.0850
11159TIP3    H154968   4.725   1.562  16.948 -0.1371  1.1006  1.5633
11159TIP3    H254969   4.729   1.434  17.028  0.3084  0.0623 -0.0693
11160TIP3   OH254970   6.418   0.922   0.861  0.0632 -0.2240 -0.0389
11160TIP3    H154971   6.475   0.870   0.917  0.2133  1.2863  1.2897
11160TIP3    H254972   6.477   0.955   0.792 -0.0494 -1.7922 -0.9284
11161TIP3   OH254973   0.769   2.731  10.913  0.4351  0.6820  0.0807
11161TIP3    H154974   0.693   2.789  10.903 -0.5091 -0.3815  0.8335
11161TIP3    H254975   0.797   2.713  10.823 -1.0386  0.0510 -0.2912
11162TIP3   OH254976   3.886   2.105  13.584  0.5791  0.1937 -0.4198
11162TIP3    H154977   3.867   2.089  13.677  0.8461  0.6966 -0.2776
11162TIP3    H254978   3.891   2.017  13.546 -2.7860 -0.0222 -0.6650
11163TIP3   OH254979   3.020   2.198  13.554  0.0961  0.5881 -0.2829
11163TIP3    H154980   3.088   2.169  13.614  0.2219  0.8602 -0.2943
11163TIP3    H254981   2.938   2.186  13.602 -0.0753 -1.8783 -1.0443
11164TIP3   OH254982   3.184   1.531   5.533 -0.6405  0.0095  0.1390
11164TIP3    H154983   3.130   1.583   5.593 -2.6105 -0.0374 -1.4836
11164TIP3    H254984   3.180   1.442   5.567 -0.0104  0.3177  1.0637
11165TIP3   OH254985   4.960   4.528  14.298 -0.7854 -0.6396  0.4732
11165TIP3    H154986   4.879   4.549  14.345 -0.5469  0.2927  0.4819
11165TIP3    H254987   5.023   4.508  14.368 -0.8134 -0.6648  0.4917
11166TIP3   OH254988   5.168   4.624   2.399 -0.2098  0.0744 -0.3078
11166TIP3    H154989   5.205   4.553   2.348 -1.0626  0.8807 -2.1620
11166TIP3    H254990   5.073   4.608   2.397 -0.3042  0.4680  0.5177
11167TIP3   OH254991   1.096   3.765  15.348  0.1645  0.5900 -0.3130
11167TIP3    H154992   1.182   3.778  15.388 -0.0630  1.7370 -0.1422
11167TIP3    H254993   1.037   3.820  15.400 -0.6275  0.0043 -0.5752
11168TIP3   OH254994   6.184   3.081   4.408  0.4531 -1.0235  0.2050
11168TIP3    H154995   6.234   3.071   4.489  0.5424 -0.5386  0.2182
11168TIP3    H254996   6.172   3.176   4.400  0.4537 -1.0674 -0.3555
11169TIP3   OH254997   1.964   1.726  11.934 -0.7261  0.6723 -0.1235
11169TIP3    H154998   1.986   1.658  11.871 -1.4918  0.4197 -0.1312
11169TIP3    H254999   1.967   1.808  11.884 -3.5194  0.2854 -1.1175
11170TIP3   OH255000   2.990   6.814   0.136  0.2745  0.2538 -0.1163
11170TIP3    H155001   3.058   6.754   0.167 -0.0854 -0.2219 -0.2494
11170TIP3    H255002   2.993   6.806   0.040 -1.0632 -0.9910 -0.0800
11171TIP3   OH255003   3.519   4.787   3.412  0.1250 -0.2056  0.6665
11171TIP3    H155004   3.566   4.865   3.440  1.6782 -1.5980  2.2021
11171TIP3    H255005   3.469   4.815   3.335 -1.3367  2.8696  2.5625
11172TIP3   OH255006   0.267   2.109  11.760 -0.1622  0.7502  0.4759
11172TIP3    H155007   0.298   2.148  11.678 -1.4047 -1.0485 -0.9185
11172TIP3    H255008   0.342   2.061  11.794 -0.0312  0.3078 -0.4027
11173TIP3   OH255009   4.444   6.575   4.643 -0.0163  0.0313  0.3832
11173TIP3    H155010   4.414   6.653   4.688  1.5886  2.0394 -1.7643
11173TIP3    H255011   4.515   6.541   4.697 -1.4974 -0.7100  1.9377
11174TIP3   OH255012   3.078   1.358  12.582  0.3695  0.0138 -0.3217
11174TIP3    H155013   3.122   1.443  12.578  0.8966 -0.1007  1.8378
11174TIP3    H255014   3.131   1.300  12.528  2.0111  0.2716  0.9478
11175TIP3   OH255015   0.107   6.224  11.399 -0.4487 -0.0185  0.2282
11175TIP3    H155016   0.108   6.279  11.478 -1.3829  0.3395  0.0075
11175TIP3    H255017   0.060   6.277  11.334  0.4939 -0.2289 -0.6389
11176TIP3   OH255018   1.899   0.100  11.670 -0.6989  0.3432 -0.5010
11176TIP3    H155019   1.935   0.019  11.633  0.2128  0.9944 -1.1131
11176TIP3    H255020   1.912   0.092  11.764 -0.1855 -0.0318 -0.5996
11177TIP3   OH255021   1.157   6.721  12.037  0.7784 -0.0761 -0.2012
11177TIP3    H155022   1.161   6.712  11.941 -0.8035 -1.0112 -0.2139
11177TIP3    H255023   1.167   6.632  12.070  0.8119  0.1757  0.4822
11178TIP3   OH255024   5.528   5.296   2.303 -0.2919  0.3614  0.0542
11178TIP3    H155025   5.466   5.223   2.313  0.4802 -0.5315 -1.4017
11178TIP3    H255026   5.587   5.287   2.378 -1.8073  1.1551  1.3944
11179TIP3   OH255027   2.608   2.731  17.175  0.3926 -0.1966 -0.1779
11179TIP3    H155028   2.698   2.729  17.145  0.9356 -1.8078  1.3961
11179TIP3    H255029   2.613   2.761  17.266 -0.6291 -0.3549 -0.0526
11180TIP3   OH255030   5.340   2.646   4.052  0.3020  0.3036  0.0289
11180TIP3    H155031   5.308   2.732   4.077  0.6326  0.8467 -1.3318
11180TIP3    H255032   5.431   2.644   4.082 -0.3197 -0.4525  2.0399
11181TIP3   OH255033   2.012   0.829   1.024  0.1822  0.0836 -0.1453
11181TIP3    H155034   2.049   0.742   1.017 -0.9134 -0.3109 -1.6079
11181TIP3    H255035   2.045   0.876   0.948 -1.0770  0.1890 -0.6540
11182TIP3   OH255036   0.721   3.549   6.300 -0.2384 -0.3128 -0.0299
11182TIP3    H155037   0.737   3.641   6.319 -0.7296 -0.1474 -0.3807
11182TIP3    H255038   0.625   3.542   6.297 -0.2051 -0.5478 -1.3040
11183TIP3   OH255039   6.066   2.000  16.828  0.3827 -0.2777  0.3534
11183TIP3    H155040   6.105   1.982  16.914 -2.4418 -1.9035  1.4453
11183TIP3    H255041   5.980   1.959  16.832 -1.3769  2.8133 -1.9499
11184TIP3   OH255042   4.950   6.237  17.156  0.3636  0.3336  0.9778
11184TIP3    H155043   4.993   6.258  17.073 -1.9208 -0.8994 -0.6754
11184TIP3    H255044   4.967   6.144  17.169 -1.1003 -0.0188  0.6400
11185TIP3   OH255045   6.717   3.323   3.726  0.1702 -0.3173 -0.4089
11185TIP3    H155046   6.627   3.336   3.697  0.6231  0.8930 -1.3633
11185TIP3    H255047   6.766   3.395   3.686  0.9027  1.5058  3.3745
11186TIP3   OH255048   2.192   5.583  11.890  0.4702 -0.1369  0.3838
11186TIP3    H155049   2.136   5.541  11.955 -0.8356 -1.3545 -1.4351
11186TIP3    H255050   2.260   5.518  11.870  0.7282  0.1400  0.3462
11187TIP3   OH255051   3.738   4.847  11.753 -0.4462 -0.1566 -0.2500
11187TIP3    H155052   3.768   4.765  11.714  2.0613 -0.7601  2.5420
11187TIP3    H255053   3.694   4.821  11.834  0.8347  1.2172  0.9433
11188TIP3   OH255054   4.263   5.811  17.129 -0.0719 -0.0483  0.0592
11188TIP3    H155055   4.307   5.792  17.211  1.2677  1.1740 -0.3344
11188TIP3    H255056   4.333   5.839  17.070 -1.2745  1.3216 -0.7957
11189TIP3   OH255057   3.837   3.693  14.925 -0.7441 -0.7387  0.0267
11189TIP3    H155058   3.846   3.601  14.900 -0.9324 -1.0811  1.1427
11189TIP3    H255059   3.875   3.697  15.013 -3.0086 -0.3147  1.0659
11190TIP3   OH255060   5.622   3.390   4.866  0.3326 -0.1910 -0.3182
11190TIP3    H155061   5.549   3.424   4.918 -0.6468  0.0145 -1.7713
11190TIP3    H255062   5.700   3.409   4.918 -0.6986 -1.2650  1.7239
11191TIP3   OH255063   2.022   4.081  17.122 -0.4489  0.3668  0.0065
11191TIP3    H155064   2.041   4.154  17.063  0.6683  1.1681  1.3041
11191TIP3    H255065   2.041   4.003  17.069 -2.2005  0.9490 -1.5790
11192TIP3   OH255066   0.697   3.643  12.742  0.0516  0.2708 -0.0733
11192TIP3    H155067   0.617   3.663  12.693  1.2280  1.3293 -1.6344
11192TIP3    H255068   0.766   3.694  12.699  1.5359 -0.3704  1.4186
11193TIP3   OH255069   6.727   3.880   4.456  0.2642 -0.8471 -0.6944
11193TIP3    H155070   6.670   3.897   4.381 -0.7647 -1.7035 -0.1394
11193TIP3    H255071   6.735   3.965   4.499 -0.0232 -0.5709 -1.1713
11194TIP3   OH255072   4.608   2.189   5.539  0.0340 -0.3481 -0.5194
11194TIP3    H155073   4.586   2.278   5.567  0.0345 -0.6670  0.5352
11194TIP3    H255074   4.592   2.189   5.444 -1.1300  0.4269 -0.3451
11195TIP3   OH255075   0.852   2.117   1.925 -0.1609 -0.2146  0.1893
11195TIP3    H155076   0.819   2.152   2.008 -1.8750 -0.1851 -0.4592
11195TIP3    H255077   0.786   2.052   1.899  0.5071 -0.4374 -1.0023
11196TIP3   OH255078   5.554   3.957  12.659  0.0073  0.0551  0.0916
11196TIP3    H155079   5.553   3.874  12.611 -0.3509  0.1285 -0.0328
11196TIP3    H255080   5.581   4.022  12.594  1.1267 -0.0862  0.4008
11197TIP3   OH255081   4.790   6.029  16.603  0.3603  0.1190 -0.5252
11197TIP3    H155082   4.741   5.955  16.566 -0.1357  0.2551 -0.1526
11197TIP3    H255083   4.797   6.092  16.531  1.3048 -0.5309 -1.0241
11198TIP3   OH255084   0.963   3.648  15.634  0.4048  0.0099 -0.0866
11198TIP3    H155085   1.055   3.633  15.613  0.6398  0.1764  0.7750
11198TIP3    H255086   0.965   3.705  15.710 -0.4364  1.0304 -0.8093
11199TIP3   OH255087   4.564   5.459   2.384 -0.2111 -0.3966 -0.3544
11199TIP3    H155088   4.558   5.466   2.289  0.0075  0.7188 -0.3041
11199TIP3    H255089   4.505   5.387   2.408 -1.5178  0.3710 -1.1851
11200TIP3   OH255090   3.951   4.930   5.173 -0.0905  0.6846  0.2506
11200TIP3    H155091   3.873   4.983   5.188 -0.9329 -0.4583  0.0610
11200TIP3    H255092   3.931   4.879   5.095  2.4189  3.2010 -2.2651
11201TIP3   OH255093   4.592   0.517   5.074 -0.5072 -0.1670 -0.2335
11201TIP3    H155094   4.591   0.517   4.978 -0.0205 -2.3877 -0.3131
11201TIP3    H255095   4.648   0.591   5.097  1.9760 -1.3685 -1.8290
11202TIP3   OH255096   3.112   2.800  16.692 -0.0460 -0.2189 -0.3850
11202TIP3    H155097   3.031   2.765  16.656 -0.2542 -0.9381  0.7408
11202TIP3    H255098   3.095   2.808  16.786  1.0538  0.0117 -0.1912
11203TIP3   OH255099   6.848   5.486  15.543 -0.0529 -0.2617  0.2724
11203TIP3    H155100   6.836   5.420  15.611 -0.6474  0.0989  0.5258
11203TIP3    H255101   6.940   5.510  15.548  0.0743 -0.7740  0.4465
11204TIP3   OH255102   5.979   0.679  11.884 -0.2427  0.1029 -0.3125
11204TIP3    H155103   5.966   0.759  11.935  0.4597  0.6729 -0.9828
11204TIP3    H255104   6.050   0.702  11.824  1.7262 -1.8221  1.1517
11205TIP3   OH255105   6.674   4.025  17.183 -0.1659  0.0233  0.1563
11205TIP3    H155106   6.599   3.970  17.201 -0.3123 -0.4920 -1.7762
11205TIP3    H255107   6.643   4.114  17.197 -1.4006 -0.1365 -1.2646
11206TIP3   OH255108   3.143   4.092   4.331 -0.6622  0.2705  0.5165
11206TIP3    H155109   3.094   4.046   4.263  0.8500  0.0957 -0.5123
11206TIP3    H255110   3.180   4.023   4.385  0.1657  0.3155  0.0201
11207TIP3   OH255111   1.232   5.609  14.332 -0.0506  0.7036 -0.5251
11207TIP3    H155112   1.278   5.525  14.337  2.4886  1.7238 -3.7015
11207TIP3    H255113   1.273   5.663  14.399  0.1109  0.1949 -0.2083
11208TIP3   OH255114   4.002   0.799   3.789 -0.1680  0.1273  0.1000
11208TIP3    H155115   4.014   0.748   3.869  1.4007 -0.9311 -0.7561
11208TIP3    H255116   4.046   0.748   3.721 -0.6773  1.4429 -1.2780
11209TIP3   OH255117   6.370   1.286   4.518  0.5895  0.0799  0.2803
11209TIP3    H155118   6.280   1.255   4.528  0.3697  0.7703  0.5013
11209TIP3    H255119   6.413   1.219   4.465 -0.1269 -0.1188 -0.0583
11210TIP3   OH255120   4.583   1.209   0.124 -0.0464 -0.2020 -0.0074
11210TIP3    H155121   4.574   1.305   0.121 -1.0027 -0.3009 -1.0184
11210TIP3    H255122   4.677   1.194   0.130  0.2898  0.7926 -1.9254
11211TIP3   OH255123   6.831   4.252  15.314  0.5243  0.3584  0.1473
11211TIP3    H155124   6.821   4.347  15.315  0.2549  0.3294  0.1958
11211TIP3    H255125   6.923   4.238  15.291  0.4739  0.6239 -0.2214
11212TIP3   OH255126   5.836   6.475  13.800 -0.1532 -0.2255  0.2245
11212TIP3    H155127   5.926   6.490  13.774  0.1367  0.6696  1.6699
11212TIP3    H255128   5.842   6.410  13.870 -0.6790 -0.5316 -0.0075
11213TIP3   OH255129   6.384   4.209  16.781 -0.5115 -0.4288  0.2423
11213TIP3    H155130   6.350   4.218  16.693  0.1242  2.2166  0.1821
11213TIP3    H255131   6.310   4.178  16.833 -1.1061 -1.2349 -1.0397
11214TIP3   OH255132   3.615   4.628   2.286  0.1457  0.6305  0.2749
11214TIP3    H155133   3.530   4.648   2.324  0.4992  1.3381  0.7245
11214TIP3    H255134   3.673   4.615   2.362 -0.1879 -2.9747  0.0854
11215TIP3   OH255135   5.133   1.142  11.726  0.8742 -0.0994 -0.4912
11215TIP3    H155136   5.042   1.118  11.711  1.1424  0.1028 -2.9745
11215TIP3    H255137   5.150   1.118  11.817 -1.7123  0.1437  0.1350
11216TIP3   OH255138   2.822   1.418   3.133 -0.2048  0.0377  0.6235
11216TIP3    H155139   2.913   1.409   3.105 -0.0502  0.4371  0.9857
11216TIP3    H255140   2.812   1.356   3.205  0.2023  1.0231  1.5607
11217TIP3   OH255141   6.556   1.005   4.796  0.3298 -0.1075  0.1240
11217TIP3    H155142   6.463   1.028   4.799  0.5616  0.7518  1.2813
11217TIP3    H255143   6.580   0.988   4.887  0.8428 -2.3544 -0.3670
11218TIP3   OH255144   6.343   1.880   6.105 -0.0548 -0.6514  0.2705
11218TIP3    H155145   6.308   1.950   6.160  0.0532 -0.9749  0.7589
11218TIP3    H255146   6.296   1.801   6.134  0.6508 -0.9885  0.5405
11219TIP3   OH255147   6.563   5.396   2.886  0.4097  0.7472  0.0147
11219TIP3    H155148   6.570   5.474   2.942  0.0402  1.2346 -0.5962
11219TIP3    H255149   6.653   5.374   2.864  0.4986  1.3151 -0.2189
11220TIP3   OH255150   3.807   6.373   0.656 -0.2668  0.8079 -0.1603
11220TIP3    H155151   3.896   6.404   0.671  1.4826 -2.8611 -1.6626
11220TIP3    H255152   3.769   6.365   0.744  1.3245  1.2652  0.5971
11221TIP3   OH255153   0.482   0.395   3.191 -0.3126  0.6270  0.1508
11221TIP3    H155154   0.493   0.302   3.172 -0.1984  0.4137  1.2314
11221TIP3    H255155   0.393   0.402   3.224 -0.4203  0.9492 -0.2085
11222TIP3   OH255156   3.430   5.526   4.122  0.5027 -0.3410 -0.4078
11222TIP3    H155157   3.431   5.455   4.187 -1.8239 -1.8629 -1.8971
11222TIP3    H255158   3.352   5.577   4.143  0.9676  0.5145 -0.6952
11223TIP3   OH255159   4.934   1.899  14.489  0.0408  0.0781 -0.3651
11223TIP3    H155160   4.960   1.887  14.580 -1.4483 -2.3667 -0.1562
11223TIP3    H255161   4.878   1.977  14.489  1.2036  0.9462  0.4954
11224TIP3   OH255162   0.507   5.616  12.915 -0.2181  0.1614  0.2829
11224TIP3    H155163   0.592   5.583  12.885 -0.9792  1.2063 -3.5181
11224TIP3    H255164   0.528   5.697  12.961  0.9315 -0.6480  1.2659
11225TIP3   OH255165   2.131   1.374  14.493 -0.9008  0.1922 -0.1700
11225TIP3    H155166   2.178   1.291  14.488 -0.7212  0.3376 -1.0987
11225TIP3    H255167   2.111   1.385  14.586  0.9500  0.1493  0.2668
11226TIP3   OH255168   5.991   6.427   0.714  0.2017  0.1731  0.5467
11226TIP3    H155169   5.933   6.356   0.742  1.1887  0.0754  2.4993
11226TIP3    H255170   5.996   6.485   0.790  1.7442  0.7789  0.0090
11227TIP3   OH255171   3.953   5.559   0.540 -0.2627 -0.2765 -0.4915
11227TIP3    H155172   4.031   5.614   0.532 -0.4620  0.0673 -0.1458
11227TIP3    H255173   3.892   5.595   0.476 -1.0156  1.0132  0.8658
11228TIP3   OH255174   4.261   2.300   5.235  0.1356  0.4225  0.0775
11228TIP3    H155175   4.241   2.213   5.272 -0.0480  1.0583  1.5513
11228TIP3    H255176   4.331   2.333   5.291 -0.8045  1.8251  0.4742
11229TIP3   OH255177   3.414   3.833  13.079  0.0492  0.0126 -0.5625
11229TIP3    H155178   3.410   3.888  13.158 -0.5567 -0.3722 -0.3105
11229TIP3    H255179   3.507   3.820  13.063  0.1838  0.3676 -0.1012
11230TIP3   OH255180   0.853   5.142  17.014 -0.1643  0.4211 -0.0974
11230TIP3    H155181   0.944   5.162  16.995 -0.2468  0.0552 -0.9050
11230TIP3    H255182   0.856   5.071  17.078  0.1146  1.2813  0.8624
11231TIP3   OH255183   2.151   1.965  12.120 -0.0261  0.3012  0.6337
11231TIP3    H155184   2.102   1.894  12.161  0.2179  0.0689  0.5239
11231TIP3    H255185   2.096   2.042  12.132 -1.3497 -0.2848 -1.1729
11232TIP3   OH255186   2.798   4.615   5.985  0.4579 -0.2366 -0.0810
11232TIP3    H155187   2.818   4.697   5.941  1.7895 -0.0546  0.8166
11232TIP3    H255188   2.702   4.612   5.988  0.1493 -0.9391 -4.1839
11233TIP3   OH255189   2.447   2.220  11.956 -0.2391 -0.4145  0.6227
11233TIP3    H155190   2.539   2.225  11.929 -0.0434  0.0309  1.3384
11233TIP3    H255191   2.398   2.211  11.875  0.3162  1.1248  0.0885
11234TIP3   OH255192   0.693   1.927   1.733  0.2931  0.0124 -0.2914
11234TIP3    H155193   0.683   1.856   1.797 -0.1158  0.1475 -0.2043
11234TIP3    H255194   0.717   1.883   1.652  0.6886 -0.1716 -0.0794
11235TIP3   OH255195   0.669   4.763  17.024  0.4735  0.5117 -0.1388
11235TIP3    H155196   0.623   4.804  17.097 -2.5309 -0.1231 -1.5059
11235TIP3    H255197   0.646   4.817  16.948  2.0165  0.1153 -0.9342
11236TIP3   OH255198   0.696   5.557  11.433 -0.2149 -0.2123  0.8689
11236TIP3    H155199   0.748   5.534  11.510 -0.3716 -0.3059  0.9473
11236TIP3    H255200   0.620   5.498  11.437  0.0068 -0.5368  0.3966
11237TIP3   OH255201   3.113   4.437  14.765  0.0035 -0.0855  0.5767
11237TIP3    H155202   3.177   4.417  14.833 -1.2285 -0.3427  1.6863
11237TIP3    H255203   3.165   4.441  14.684  1.1495 -2.2450  1.1286
11238TIP3   OH255204   1.119   5.718   5.565  0.7411 -0.2761 -0.4460
11238TIP3    H155205   1.045   5.734   5.506  0.6860 -2.2525 -0.9852
11238TIP3    H255206   1.084   5.733   5.653  0.0336 -0.0122 -0.7697
11239TIP3   OH255207   2.594   4.003  13.923 -0.7949 -0.4154  0.1447
11239TIP3    H155208   2.565   4.042  13.841 -0.4176  0.0198  0.2117
11239TIP3    H255209   2.646   4.071  13.965 -1.6842 -0.3195  1.1483
11240TIP3   OH255210   0.136   6.166  12.998 -0.2819 -0.2679 -0.0989
11240TIP3    H155211   0.146   6.080  12.958  0.6168  0.0322 -0.5554
11240TIP3    H255212   0.220   6.209  12.982 -0.3734  0.3397  0.9778
11241TIP3   OH255213   5.792   3.479   6.522 -0.3072  0.6251  0.1484
11241TIP3    H155214   5.735   3.556   6.520 -0.1253  0.8629  2.0379
11241TIP3    H255215   5.758   3.422   6.453 -2.0316  1.2998  0.3850
11242TIP3   OH255216   1.205   0.468   6.463 -0.2816  0.0818 -0.3767
11242TIP3    H155217   1.147   0.404   6.421  0.8362 -1.1024 -0.1845
11242TIP3    H255218   1.252   0.417   6.529  2.1731  0.6036 -1.6212
11243TIP3   OH255219   3.734   2.508  14.354  0.2200 -0.1926  0.3581
11243TIP3    H155220   3.720   2.477  14.444  0.6532 -0.4569  0.3368
11243TIP3    H255221   3.660   2.566  14.337 -0.7049 -1.3423  0.3353
11244TIP3   OH255222   5.079   2.705   3.085 -0.1962  0.0772 -0.0878
11244TIP3    H155223   5.059   2.752   3.167 -1.6661  0.0114 -0.3747
11244TIP3    H255224   5.046   2.616   3.100  1.1882 -0.4518 -0.1067
11245TIP3   OH255225   5.152   3.507   2.672 -0.3621  0.5952 -0.1171
11245TIP3    H155226   5.160   3.418   2.705 -0.6259  0.8439  0.6405
11245TIP3    H255227   5.236   3.524   2.630 -0.5325 -0.2190 -0.8207
11246TIP3   OH255228   2.737   2.882   4.149  0.1742  0.1577 -0.1719
11246TIP3    H155229   2.762   2.960   4.197 -0.2247 -0.9498  1.9322
11246TIP3    H255230   2.807   2.870   4.084  1.0245  1.3776  0.4964
11247TIP3   OH255231   3.306   4.929   0.487  0.2073  0.0993 -0.0637
11247TIP3    H155232   3.214   4.906   0.496  0.3778 -0.4113  0.5042
11247TIP3    H255233   3.353   4.848   0.508  0.7779  0.2812 -0.6048
11248TIP3   OH255234   1.211   4.183   2.812 -0.2610  0.1221 -0.0146
11248TIP3    H155235   1.196   4.143   2.726  1.1119 -2.2509  0.7728
11248TIP3    H255236   1.131   4.165   2.861  0.3337 -1.8297  0.3294
11249TIP3   OH255237   5.540   4.491  13.172  0.5932  0.1111  0.2931
11249TIP3    H155238   5.528   4.444  13.255  1.2253  0.5802  0.6607
11249TIP3    H255239   5.452   4.515  13.144  0.3173 -0.6707  0.4666
11250TIP3   OH255240   6.357   1.831   4.356  0.0546  0.1294  0.1935
11250TIP3    H155241   6.348   1.758   4.418  2.3339  0.4163  0.9352
11250TIP3    H255242   6.400   1.792   4.280 -0.3808  0.3296 -0.1565
11251TIP3   OH255243   0.952   5.918   4.925 -0.4869 -0.2808 -0.4640
11251TIP3    H155244   0.949   5.874   4.839  1.4561 -1.3155 -0.0560
11251TIP3    H255245   1.035   5.890   4.963 -1.5168 -0.2182  1.9791
11252TIP3   OH255246   6.083   0.122   3.102 -0.6600  0.2136 -0.3122
11252TIP3    H155247   6.088   0.044   3.158 -0.0421  0.0317 -0.6176
11252TIP3    H255248   6.112   0.194   3.159 -1.1213  0.2103 -0.0648
11253TIP3   OH255249   0.240   0.505  13.596 -0.2375 -0.3549 -0.1502
11253TIP3    H155250   0.225   0.465  13.510 -1.6170  0.0195 -0.1055
11253TIP3    H255251   0.191   0.587  13.594 -0.1026 -0.2269  0.9061
11254TIP3   OH255252   1.484   2.316   1.603 -0.2470 -0.0881  0.2921
11254TIP3    H155253   1.548   2.358   1.661 -2.2042  3.7122 -0.0057
11254TIP3    H255254   1.462   2.234   1.647  1.8618  0.3446  2.3782
11255TIP3   OH255255   3.424   5.861   4.282  0.3659 -0.1043  0.3141
11255TIP3    H155256   3.375   5.784   4.311  0.6254 -0.2125  0.4630
11255TIP3    H255257   3.374   5.893   4.207 -1.5055  1.4211  2.1061
11256TIP3   OH255258   2.294   3.143  11.713  0.3664  0.4147  0.2295
11256TIP3    H155259   2.309   3.191  11.632 -0.0702  0.8139  0.3803
11256TIP3    H255260   2.381   3.116  11.742  0.4332 -0.7926 -1.0026
11257TIP3   OH255261   5.352   2.983   2.243  0.0573 -0.4160 -0.0147
11257TIP3    H155262   5.428   2.934   2.211  0.3282  0.8545 -1.4252
11257TIP3    H255263   5.326   2.937   2.322  0.8596 -2.2711 -0.7652
11258TIP3   OH255264   5.051   2.577   0.448 -0.0856  0.0924 -0.7757
11258TIP3    H155265   5.090   2.580   0.536  0.5842 -0.0980 -1.0603
11258TIP3    H255266   5.014   2.489   0.442  1.5037 -0.5601 -1.3615
11259TIP3   OH255267   3.732   5.182  13.021 -0.3917 -0.1182 -0.4027
11259TIP3    H155268   3.683   5.244  12.967 -0.0232  0.6900  0.1766
11259TIP3    H255269   3.812   5.229  13.045  0.0398 -0.9283 -0.2067
11260TIP3   OH255270   1.128   6.688   0.505 -0.0603  0.0418 -0.3509
11260TIP3    H155271   1.178   6.769   0.510 -1.1437  0.6621  1.2744
11260TIP3    H255272   1.037   6.717   0.499 -0.3464 -1.0661 -1.8694
11261TIP3   OH255273   5.971   6.027  15.004 -0.2369  0.5946 -0.8402
11261TIP3    H155274   5.945   5.975  14.928 -1.2732  2.6138 -1.9310
11261TIP3    H255275   5.892   6.031  15.058 -0.4106  1.6506 -1.1515
11262TIP3   OH255276   5.728   0.262  15.382  0.4213  0.0585 -0.1343
11262TIP3    H155277   5.752   0.332  15.321 -0.6951 -0.3947 -1.1373
11262TIP3    H255278   5.755   0.181  15.338 -0.5372 -0.2868 -0.1168
11263TIP3   OH255279   3.603   3.191   5.315  0.0816  0.7408 -0.2194
11263TIP3    H155280   3.549   3.209   5.238 -0.2798  0.3740 -0.0471
11263TIP3    H255281   3.545   3.149   5.377  1.1131 -2.0450 -0.9773
11264TIP3   OH255282   1.828   0.813  15.531  0.6008  0.1987 -0.3219
11264TIP3    H155283   1.916   0.828  15.497  0.2985  1.6918 -0.5032
11264TIP3    H255284   1.823   0.868  15.609 -0.3553  0.5622 -0.6298
11265TIP3   OH255285   5.067   4.176   5.449 -0.1133  0.0092  0.4745
11265TIP3    H155286   5.005   4.109   5.420  1.2194 -1.0022 -0.1638
11265TIP3    H255287   5.096   4.218   5.368  0.3870  0.1526  0.7261
11266TIP3   OH255288   4.497   5.879  17.018  0.0679 -0.1690  0.0103
11266TIP3    H155289   4.507   5.865  17.112  1.9156 -0.9293 -0.2623
11266TIP3    H255290   4.563   5.945  16.996 -1.1216  0.8674 -0.5940
11267TIP3   OH255291   2.798   5.932   1.061 -0.2818  0.8719  0.8024
11267TIP3    H155292   2.845   5.899   0.984 -0.5540  2.2441  0.0195
11267TIP3    H255293   2.711   5.891   1.054 -0.6742  1.8232 -0.2546
11268TIP3   OH255294   1.967   5.543   5.508 -0.2814  0.2836  0.0377
11268TIP3    H155295   1.873   5.542   5.493 -0.2247 -2.7481 -0.8093
11268TIP3    H255296   1.980   5.483   5.581  1.0817 -0.8161 -1.0470
11269TIP3   OH255297   3.629   0.006  13.012  0.0743 -0.7825  0.5174
11269TIP3    H155298   3.568   0.059  13.063  0.1649 -0.7838  0.6279
11269TIP3    H255299   3.663   0.066  12.945 -0.1581 -0.8214  0.3638
11270TIP3   OH255300   6.490   5.606   1.730 -0.2999 -0.0234  0.3293
11270TIP3    H155301   6.537   5.527   1.757  1.8730  0.8873 -0.5300
11270TIP3    H255302   6.433   5.577   1.659  0.9909 -0.7309 -0.4579
11271TIP3   OH255303   0.641   1.147  13.546 -0.4739 -0.1287  0.4290
11271TIP3    H155304   0.670   1.224  13.595 -1.6196  1.7669 -1.6804
11271TIP3    H255305   0.591   1.096  13.609 -0.3321  1.2625  1.7217
11272TIP3   OH255306   5.593   5.924   2.379  0.2119 -0.0924  0.3736
11272TIP3    H155307   5.615   6.017   2.376 -1.1845  0.3690  2.3109
11272TIP3    H255308   5.589   5.897   2.287 -0.7854  2.1273 -0.3091
11273TIP3   OH255309   4.392   0.004  12.599  0.0078 -0.0693 -0.2307
11273TIP3    H155310   4.449  -0.073  12.600 -0.7146 -0.6133  0.3700
11273TIP3    H255311   4.437   0.066  12.542  0.1379 -1.2802 -1.5061
11274TIP3   OH255312   5.895   2.830  13.427 -0.0058  0.0515 -0.2621
11274TIP3    H155313   5.828   2.798  13.367 -2.4044 -0.4938  2.4507
11274TIP3    H255314   5.867   2.920  13.446 -0.8708 -0.5982  1.8839
11275TIP3   OH255315   5.745   5.431  15.152  0.4261 -0.7255  0.2487
11275TIP3    H155316   5.668   5.374  15.152 -0.0225 -0.1406 -0.4099
11275TIP3    H255317   5.819   5.372  15.136  0.1312 -1.3057  0.9795
11276TIP3   OH255318   0.990   0.319   2.039  0.0742  0.3540 -0.8171
11276TIP3    H155319   0.967   0.226   2.036  1.7000 -0.1655  1.0076
11276TIP3    H255320   0.907   0.365   2.020 -0.7615 -1.4319 -1.6998
11277TIP3   OH255321   3.707   4.496  12.967  0.0143  0.0071 -0.4587
11277TIP3    H155322   3.714   4.415  12.916 -1.8276 -0.7827  0.4572
11277TIP3    H255323   3.798   4.522  12.982  0.6886 -2.2355 -0.2277
11278TIP3   OH255324   4.186   3.902   3.001 -0.3670  0.3101  0.0341
11278TIP3    H155325   4.114   3.845   2.973 -1.4488  2.0630 -0.9487
11278TIP3    H255326   4.233   3.850   3.066 -0.7820 -2.0188 -1.3960
11279TIP3   OH255327   4.267   3.232   0.899 -0.2706 -0.2517 -0.0339
11279TIP3    H155328   4.200   3.194   0.955 -0.8208 -0.1981 -0.6353
11279TIP3    H255329   4.222   3.301   0.851  0.2407 -0.1371 -0.3646
11280TIP3   OH255330   5.394   0.829   5.741 -0.8670  0.1788 -0.3018
11280TIP3    H155331   5.421   0.773   5.668  0.3858 -0.4000  0.5774
11280TIP3    H255332   5.463   0.819   5.806 -1.6373  1.1914  0.7135
11281TIP3   OH255333   6.369   6.604   2.251  0.0033 -0.3999  0.7109
11281TIP3    H155334   6.417   6.579   2.172 -0.2835  1.3578 -0.0819
11281TIP3    H255335   6.290   6.646   2.218 -0.6888 -0.6670  1.9679
11282TIP3   OH255336   3.717   5.875  15.805 -0.4420  0.0230 -0.2335
11282TIP3    H155337   3.666   5.841  15.879 -0.6480 -0.4537 -0.5926
11282TIP3    H255338   3.769   5.800  15.776  0.4008  0.4697  0.0640
11283TIP3   OH255339   2.084   3.803  13.193  0.3942  0.1920  0.5684
11283TIP3    H155340   2.162   3.764  13.232  0.2648 -0.7972 -0.1180
11283TIP3    H255341   2.084   3.772  13.103  0.4507  2.0829 -0.1220
11284TIP3   OH255342   5.771   0.675  17.106  0.2337  0.0921 -0.2502
11284TIP3    H155343   5.775   0.587  17.142  0.0638  0.0902 -0.2354
11284TIP3    H255344   5.846   0.680  17.046  0.9779  0.3495  0.6721
11285TIP3   OH255345   2.001   0.012  15.071 -0.0956  0.1167 -0.2319
11285TIP3    H155346   1.967   0.085  15.123 -1.0364 -1.5816  1.6910
11285TIP3    H255347   2.077   0.048  15.026 -0.2401  2.1460  1.0177
11286TIP3   OH255348   0.440   0.179  11.345  0.3851  0.4021  0.2316
11286TIP3    H155349   0.514   0.237  11.324  0.2094  0.1683 -1.0916
11286TIP3    H255350   0.374   0.238  11.381  0.5665  0.8897 -0.2057
11287TIP3   OH255351   2.933   1.436  11.352  0.0148  0.0723 -0.3456
11287TIP3    H155352   2.953   1.479  11.435 -1.3743  0.0049  0.0417
11287TIP3    H255353   2.848   1.472  11.326 -0.2550 -0.9945 -0.9932
11288TIP3   OH255354   2.807   3.659   4.501 -0.4414  0.3155 -0.5791
11288TIP3    H155355   2.715   3.687   4.493 -0.8869 -0.4115  1.3158
11288TIP3    H255356   2.812   3.621   4.589  2.1466  2.1308  0.1840
11289TIP3   OH255357   5.944   1.813   2.024  0.1896  0.0591  0.0057
11289TIP3    H155358   5.947   1.908   2.021  1.2428  0.0212 -2.5663
11289TIP3    H255359   5.853   1.793   2.048 -0.0356  1.6810  0.6173
11290TIP3   OH255360   6.593   1.108  16.394  0.4110 -0.3739 -0.2172
11290TIP3    H155361   6.573   1.034  16.336  0.4036  0.6782 -1.5983
11290TIP3    H255362   6.509   1.150  16.410  0.3904 -0.7343  0.7151
11291TIP3   OH255363   3.304   4.930   2.593  0.2056  0.3480  0.4133
11291TIP3    H155364   3.366   5.003   2.593  0.8847 -0.2217  0.2432
11291TIP3    H255365   3.249   4.945   2.517  0.0913  0.8875  0.5951
11292TIP3   OH255366   2.459   0.906  12.895  0.9158  0.3004  0.1769
11292TIP3    H155367   2.527   0.909  12.962 -0.2091  0.3980  1.3425
11292TIP3    H255368   2.377   0.905  12.943  0.0506  0.8243 -1.2092
11293TIP3   OH255369   1.611   1.843  15.298 -0.4914  0.0349  0.3787
11293TIP3    H155370   1.545   1.908  15.273  0.3596  0.3805 -1.0912
11293TIP3    H255371   1.695   1.885  15.279  0.1753 -0.4673  2.0319
11294TIP3   OH255372   3.777   6.779   1.962 -0.1106  0.3438 -0.2520
11294TIP3    H155373   3.725   6.698   1.963 -1.0088  0.8481 -2.1976
11294TIP3    H255374   3.721   6.844   2.006 -1.1600  0.8506 -2.2179
11295TIP3   OH255375   6.255   5.843  12.640  0.2526 -0.1077  0.2809
11295TIP3    H155376   6.280   5.795  12.719 -0.8516  1.8074  1.8810
11295TIP3    H255377   6.175   5.800  12.609  1.3123 -1.5920 -0.5528
11296TIP3   OH255378   4.565   3.520  14.429  0.3998 -0.2117  0.1628
11296TIP3    H155379   4.567   3.433  14.469 -0.8655  0.1328  1.0193
11296TIP3    H255380   4.633   3.516  14.362 -0.9980 -2.5590 -1.2597
11297TIP3   OH255381   4.088   4.975  16.025  0.2137  0.1192  0.6021
11297TIP3    H155382   4.084   4.892  15.979 -0.9084  0.3540  0.2523
11297TIP3    H255383   4.078   4.952  16.117  1.1518 -0.2312  0.6274
11298TIP3   OH255384   2.386   4.801  10.356  0.5112 -0.0941 -0.4049
11298TIP3    H155385   2.338   4.733  10.308  1.0431 -0.8168  0.0530
11298TIP3    H255386   2.328   4.877  10.355 -0.5715 -0.8808 -0.0219
11299TIP3   OH255387   1.416   5.536  15.961 -0.4813 -0.1036  0.0069
11299TIP3    H155388   1.494   5.581  15.928 -2.2724  2.2985 -1.2618
11299TIP3    H255389   1.393   5.582  16.042  0.2498 -1.8365  1.2550
11300TIP3   OH255390   6.788   3.938   3.051  0.1387  0.7894  0.4407
11300TIP3    H155391   6.845   3.890   3.111  1.8905  0.0245 -1.7077
11300TIP3    H255392   6.727   3.873   3.018 -0.5975  1.1318  1.1061
11301TIP3   OH255393   3.421   2.277   0.210  0.0069 -0.0289  0.5157
11301TIP3    H155394   3.438   2.245   0.299 -2.2581 -1.1482  0.6099
11301TIP3    H255395   3.386   2.365   0.223  1.3743  0.5347  0.5748
11302TIP3   OH255396   3.406   2.940  11.460  0.6185 -0.3776  0.2586
11302TIP3    H155397   3.312   2.957  11.469  0.5261 -0.6534 -0.1658
11302TIP3    H255398   3.411   2.857  11.411  1.0795 -0.4922  0.4962
11303TIP3   OH255399   1.600   5.380   0.310 -0.4676 -0.4636 -0.5266
11303TIP3    H155400   1.615   5.326   0.233  0.6192  0.3733 -0.9187
11303TIP3    H255401   1.671   5.444   0.310 -0.3496 -0.5239  1.2394
11304TIP3   OH255402   1.993   1.977  11.839  0.1857  1.1541 -0.0624
11304TIP3    H155403   1.949   2.058  11.866 -0.4804  0.9865 -0.5987
11304TIP3    H255404   2.041   2.001  11.760 -2.9746  0.2711 -2.4548
11305TIP3   OH255405   6.385   2.217   6.095  0.2863 -0.0680  0.2503
11305TIP3    H155406   6.350   2.145   6.147 -0.3777 -0.4928 -0.7602
11305TIP3    H255407   6.477   2.223   6.122  0.0271 -0.4272  1.2795
11306TIP3   OH255408   4.345   6.683  14.595  0.3100  0.0193 -0.0028
11306TIP3    H155409   4.407   6.626  14.639  0.0189  0.1946  0.6501
11306TIP3    H255410   4.262   6.637  14.600  0.0587  0.5120  0.5918
11307TIP3   OH255411   6.254   1.791  16.346 -0.4670 -0.2794  0.0702
11307TIP3    H155412   6.337   1.774  16.303  0.2591  0.6477  1.0338
11307TIP3    H255413   6.211   1.857  16.291  0.0389  0.2074  0.2415
11308TIP3   OH255414   4.227   1.175   1.327  0.7533  0.4640  0.1137
11308TIP3    H155415   4.198   1.210   1.243  2.1031  2.4708  0.4111
11308TIP3    H255416   4.176   1.223   1.392  1.1799  0.4179  0.4883
11309TIP3   OH255417   2.559   0.066  13.438 -0.5471 -0.7150 -1.1691
11309TIP3    H155418   2.589   0.133  13.498  0.3228  1.4223 -3.8070
11309TIP3    H255419   2.499   0.012  13.490  0.9935  0.2719  1.8376
11310TIP3   OH255420   3.698   4.141   5.176  0.3154 -0.0271 -0.3910
11310TIP3    H155421   3.723   4.114   5.264 -2.2193 -0.1593  0.3756
11310TIP3    H255422   3.669   4.231   5.186  1.4861  0.4920 -1.4373
11311TIP3   OH255423   0.590   6.550   4.814  0.1397  0.4381 -0.3244
11311TIP3    H155424   0.537   6.587   4.743  0.0928  2.0798  0.5346
11311TIP3    H255425   0.668   6.516   4.770 -1.3152 -1.5162 -1.5370
11312TIP3   OH255426   5.897   6.404  16.382  0.3772 -0.3531  0.1209
11312TIP3    H155427   5.913   6.365  16.296  0.5388 -1.3366  0.5817
11312TIP3    H255428   5.952   6.483  16.383  0.6435 -0.5247 -0.5369
11313TIP3   OH255429   0.698   0.711  16.788  0.1321 -0.6736 -0.4260
11313TIP3    H155430   0.777   0.686  16.740 -0.8603 -2.5802 -1.1805
11313TIP3    H255431   0.664   0.787  16.741  0.8223 -0.6479 -0.8867
11314TIP3   OH255432   0.676   5.576   3.582 -0.1814  0.1087 -0.1343
11314TIP3    H155433   0.744   5.509   3.593  0.1168  0.4646  0.2157
11314TIP3    H255434   0.694   5.640   3.651 -0.2327  0.7444 -0.7046
11315TIP3   OH255435   5.457   5.706   3.862 -0.4625  0.7699  0.1365
11315TIP3    H155436   5.408   5.690   3.943  1.2499 -0.0354  1.0534
11315TIP3    H255437   5.447   5.624   3.813  0.6061  0.2988  0.6858
11316TIP3   OH255438   0.087   5.804   4.151 -0.1904  0.1414  0.3115
11316TIP3    H155439   0.031   5.866   4.105 -0.9867  1.3476  2.7039
11316TIP3    H255440   0.156   5.858   4.191  0.3056 -0.7827  0.7532
11317TIP3   OH255441   3.375   1.848   6.340 -0.3044 -0.0090 -0.0521
11317TIP3    H155442   3.330   1.771   6.305 -1.8087  0.6439  0.3624
11317TIP3    H255443   3.349   1.852   6.432  0.5330  0.4670  0.1841
11318TIP3   OH255444   5.460   2.937   1.137 -0.0402  0.2616 -0.9941
11318TIP3    H155445   5.479   2.851   1.176  3.4320  1.4891  0.4584
11318TIP3    H255446   5.517   2.940   1.059  1.1581  1.7966 -0.1031
11319TIP3   OH255447   6.734   0.979  11.230  1.0074 -0.0546 -0.0385
11319TIP3    H155448   6.678   1.051  11.261  0.0994 -0.8917  0.3343
11319TIP3    H255449   6.775   1.013  11.151  0.4248  0.7954  0.0057
11320TIP3   OH255450   4.409   1.267   4.705  0.8423 -1.1805  0.6347
11320TIP3    H155451   4.315   1.250   4.699  0.4877  0.4761  1.1811
11320TIP3    H255452   4.438   1.217   4.781 -0.2083  0.6321  2.3159
11321TIP3   OH255453   5.634   0.444   0.488 -0.4360  0.1002  0.1992
11321TIP3    H155454   5.598   0.450   0.577 -0.9889 -0.3213  0.0070
11321TIP3    H255455   5.729   0.451   0.500 -0.4913 -0.2031  0.8482
11322TIP3   OH255456   4.172   1.384  15.207  0.0061  0.4942 -0.0003
11322TIP3    H155457   4.106   1.449  15.232 -0.6344 -0.1805  0.0950
11322TIP3    H255458   4.242   1.395  15.271 -1.4671 -0.9929  1.9877
11323TIP3   OH255459   1.976   2.883   4.873 -0.1947  0.3706 -0.6023
11323TIP3    H155460   1.931   2.830   4.807 -1.9363  0.8812  0.1406
11323TIP3    H255461   1.982   2.827   4.950  2.4395 -0.4709 -1.3019
11324TIP3   OH255462   1.330   6.082   4.034 -0.0144 -0.6535 -0.1089
11324TIP3    H155463   1.305   5.990   4.025 -1.5353 -0.1237 -1.6389
11324TIP3    H255464   1.261   6.120   4.089  0.9254 -0.5052  1.0217
11325TIP3   OH255465   3.258   5.868  13.157 -0.0592 -0.1032  0.0237
11325TIP3    H155466   3.227   5.791  13.110 -1.7764 -0.3498  1.4406
11325TIP3    H255467   3.205   5.940  13.123 -0.7492 -0.1449  0.9604
11326TIP3   OH255468   1.265   0.677   4.777 -0.1298 -0.6012  0.5509
11326TIP3    H155469   1.334   0.612   4.795  2.2848  2.1103  1.8703
11326TIP3    H255470   1.204   0.668   4.851 -1.3246 -2.9997 -0.6083
11327TIP3   OH255471   1.068   1.342  13.227 -0.1643 -0.1799 -0.5273
11327TIP3    H155472   1.036   1.418  13.276 -0.9130  1.7704 -3.7037
11327TIP3    H255473   0.993   1.283  13.222 -0.1389 -0.3133  0.4173
11328TIP3   OH255474   1.605   0.687   1.775 -0.1581  0.8102  0.1793
11328TIP3    H155475   1.617   0.639   1.693 -3.0307 -1.2981  0.8026
11328TIP3    H255476   1.630   0.624   1.843  3.0492  2.8188  1.0420
11329TIP3   OH255477   0.536   2.037  11.547  0.1594 -0.2695  0.3102
11329TIP3    H155478   0.569   2.080  11.626 -0.0540  0.8116 -0.1696
11329TIP3    H255479   0.610   1.984  11.517 -0.2786 -2.0371  2.1181
11330TIP3   OH255480   0.688   4.239   4.209  0.4646  0.6033 -0.2697
11330TIP3    H155481   0.751   4.295   4.162 -1.9409  2.0984 -1.9066
11330TIP3    H255482   0.621   4.219   4.145 -0.6254 -1.2011  1.3331
11331TIP3   OH255483   1.168   2.361   0.449 -0.0199  0.4522  0.1113
11331TIP3    H155484   1.160   2.282   0.396 -0.8874  1.2771 -1.0427
11331TIP3    H255485   1.254   2.354   0.490 -0.2844 -1.3149  0.4430
11332TIP3   OH255486   2.150   6.692   6.098 -0.2290 -0.1509 -0.5702
11332TIP3    H155487   2.094   6.749   6.151  0.5076 -0.4769  0.5926
11332TIP3    H255488   2.111   6.605   6.106  0.6221 -0.4410  0.5211
11333TIP3   OH255489   2.857   3.651  12.307 -0.4074 -0.3247 -0.1834
11333TIP3    H155490   2.906   3.594  12.365 -0.2004 -0.6819 -0.7021
11333TIP3    H255491   2.832   3.725  12.362  0.1923 -0.4278  0.2406
11334TIP3   OH255492   5.347   3.370   1.599  0.3868  0.0343 -0.4817
11334TIP3    H155493   5.400   3.303   1.555  0.9105 -0.7330  1.2422
11334TIP3    H255494   5.325   3.432   1.529  1.0575 -1.1949 -1.8454
11335TIP3   OH255495   0.183   3.773   3.442 -0.7370 -0.1210  0.6825
11335TIP3    H155496   0.278   3.762   3.449 -0.7335  0.3138  1.5231
11335TIP3    H255497   0.149   3.686   3.423 -0.1413 -0.2195  0.0540
11336TIP3   OH255498   4.437   3.644  17.158  0.5579 -0.3386 -0.5552
11336TIP3    H155499   4.401   3.692  17.233  3.0292 -0.0775  0.5784
11336TIP3    H255500   4.361   3.619  17.107 -1.0669  1.8392  0.6079
11337TIP3   OH255501   2.086   0.594   4.987  0.1487  0.3541  0.1203
11337TIP3    H155502   2.000   0.551   4.989  0.2489  0.1083 -0.5699
11337TIP3    H255503   2.135   0.552   5.058 -0.8003  1.5944  1.5748
11338TIP3   OH255504   5.400   0.057  13.093  0.3609 -0.1204 -0.0459
11338TIP3    H155505   5.336  -0.004  13.057  0.1641 -0.0421  0.1640
11338TIP3    H255506   5.390   0.136  13.041  0.2046 -0.0693  0.0601
11339TIP3   OH255507   4.428   2.640  11.111  0.1918  0.4070 -0.1177
11339TIP3    H155508   4.425   2.727  11.151  0.7291  1.6517 -2.5895
11339TIP3    H255509   4.338   2.625  11.080 -0.6947 -1.3422  2.8728
11340TIP3   OH255510   4.992   2.961   0.982 -0.3718 -0.3905  0.1717
11340TIP3    H155511   4.934   2.988   1.053 -0.8385  0.1963 -0.4183
11340TIP3    H255512   4.934   2.927   0.914  0.0897 -1.2061  0.1728
11341TIP3   OH255513   1.782   0.440  14.486  0.0979 -0.2282  0.3164
11341TIP3    H155514   1.770   0.350  14.457 -1.0708  0.4236 -1.3941
11341TIP3    H255515   1.845   0.477  14.424 -0.2170  0.4102  0.3662
11342TIP3   OH255516   0.134   0.976  14.473  0.0594  0.6102 -0.2255
11342TIP3    H155517   0.098   0.890  14.449 -0.7429  0.7564  0.4088
11342TIP3    H255518   0.229   0.964  14.467 -0.0424 -0.2934 -0.2619
11343TIP3   OH255519   4.498   0.693   1.064 -0.1262  0.0372 -0.5911
11343TIP3    H155520   4.524   0.696   0.972  2.3944 -0.6299  0.0183
11343TIP3    H255521   4.477   0.601   1.080 -1.7885  0.3578 -0.7544
11344TIP3   OH255522   2.882   1.381  15.655 -0.0710  0.3321 -0.0263
11344TIP3    H155523   2.931   1.304  15.627  1.1257  0.9597  0.2300
11344TIP3    H255524   2.904   1.448  15.590  0.0433  0.8464  0.5264
11345TIP3   OH255525   5.505   6.380  13.583 -0.2821  0.3353 -0.1675
11345TIP3    H155526   5.572   6.436  13.543  0.0344  0.2193  0.1946
11345TIP3    H255527   5.543   6.292  13.580 -1.1090 -0.0163 -1.4756
11346TIP3   OH255528   1.036   1.127  11.650  0.4070  0.3181 -0.0546
11346TIP3    H155529   1.011   1.205  11.601  1.6064  0.0433 -1.1609
11346TIP3    H255530   0.955   1.076  11.656  0.4292 -0.1899 -2.8586
11347TIP3   OH255531   1.777   5.415   4.232 -0.1538 -0.9468 -0.0780
11347TIP3    H155532   1.697   5.456   4.265  1.1782  0.3747  1.7385
11347TIP3    H255533   1.816   5.481   4.175  0.3115 -1.0083  0.1598
11348TIP3   OH255534   5.501   6.018  14.799 -0.0799  0.4490 -0.2690
11348TIP3    H155535   5.435   5.953  14.775  0.3213 -0.1532  0.2423
11348TIP3    H255536   5.453   6.083  14.851 -0.1803 -0.2248  0.4889
11349TIP3   OH255537   3.765   3.927   5.795 -0.7001  0.1838 -0.3584
11349TIP3    H155538   3.718   4.009   5.801 -1.1596 -0.1149  0.2459
11349TIP3    H255539   3.698   3.859   5.808 -0.2491 -0.2667 -0.3213
11350TIP3   OH255540   1.283   1.087   5.767  0.2653  0.1557 -0.1484
11350TIP3    H155541   1.315   1.163   5.815  1.5928 -0.6833  0.3545
11350TIP3    H255542   1.313   1.101   5.677 -1.4810  1.3071 -0.6071
11351TIP3   OH255543   3.442   5.886  10.926  0.4238  0.5980  0.1818
11351TIP3    H155544   3.403   5.906  10.841 -0.5071  0.7017  0.6220
11351TIP3    H255545   3.416   5.796  10.944  0.2026  0.7378  0.5752
11352TIP3   OH255546   6.013   6.754   2.906  0.3732  0.3080  0.9548
11352TIP3    H155547   5.954   6.734   2.978  0.0305 -0.3707  0.4935
11352TIP3    H255548   6.076   6.816   2.943  1.2264 -1.3193  2.3356
11353TIP3   OH255549   0.365   2.954  14.541  0.4313  0.0725  0.2001
11353TIP3    H155550   0.273   2.965  14.517  1.0753 -0.9194 -3.2607
11353TIP3    H255551   0.402   3.042  14.536  0.3126  0.0559 -1.9008
11354TIP3   OH255552   0.864   0.804   3.947  0.7197  0.5438  0.2612
11354TIP3    H155553   0.939   0.836   3.897  2.4242  0.4530  2.6376
11354TIP3    H255554   0.835   0.880   3.998  0.2208  0.1444  0.5871
11355TIP3   OH255555   2.886   4.791   2.905 -0.1852 -0.0627  0.2430
11355TIP3    H155556   2.951   4.733   2.944  1.2440  0.5213 -1.1697
11355TIP3    H255557   2.905   4.789   2.811 -1.3097  1.2218 -0.0487
11356TIP3   OH255558   5.830   0.785  10.167  0.2364  0.3580 -0.5786
11356TIP3    H155559   5.891   0.711  10.170  2.1276  1.8909  1.2398
11356TIP3    H255560   5.744   0.744  10.161  1.2503 -1.9662 -0.3564
11357TIP3   OH255561   0.338   5.362   2.164 -0.4995  0.6926 -0.2811
11357TIP3    H155562   0.325   5.414   2.244  0.1512  1.5187 -0.6981
11357TIP3    H255563   0.355   5.274   2.195 -2.3087  0.5474  0.4312
11358TIP3   OH255564   6.287   1.927  16.587 -0.2436  0.5414 -0.2792
11358TIP3    H155565   6.269   2.005  16.534 -2.3356  0.4012  0.1432
11358TIP3    H255566   6.247   1.856  16.538 -0.6938  0.1503  0.6327
11359TIP3   OH255567   5.211   2.994  15.166  0.6327  0.9314 -0.1081
11359TIP3    H155568   5.273   2.938  15.119  1.4058  1.9744 -0.3702
11359TIP3    H255569   5.148   2.933  15.204  0.5328 -0.0251 -1.6929
11360TIP3   OH255570   5.952   1.894  12.937 -0.0528  0.8038  0.1811
11360TIP3    H155571   5.956   1.823  13.000 -0.6480  0.6727  0.0841
11360TIP3    H255572   5.904   1.858  12.863  1.8773  0.4997 -0.9826
11361TIP3   OH255573   5.500   3.713   2.366 -0.8382  0.5547 -0.5159
11361TIP3    H155574   5.490   3.678   2.455 -1.0536 -0.5703 -0.9659
11361TIP3    H255575   5.461   3.646   2.310 -1.1997  1.5001 -1.4240
11362TIP3   OH255576   6.393   3.294   1.072  0.1629  0.5988 -0.4120
11362TIP3    H155577   6.481   3.322   1.095 -0.4532  1.3801  1.0601
11362TIP3    H255578   6.342   3.303   1.152 -1.0033 -0.9593 -0.9164
11363TIP3   OH255579   5.471   4.085   3.833 -0.6919 -0.0450  0.4308
11363TIP3    H155580   5.488   3.991   3.838  2.7754  0.5092  1.8269
11363TIP3    H255581   5.538   4.119   3.774 -1.1455  1.6729  0.8366
11364TIP3   OH255582   2.750   5.948   6.182  0.0367 -0.4323 -0.2530
11364TIP3    H155583   2.841   5.969   6.206  0.7292 -0.8028 -2.3242
11364TIP3    H255584   2.738   5.858   6.212  1.2015 -1.2281 -2.0327
11365TIP3   OH255585   2.558   0.665   3.245  0.0868  0.5671  0.1391
11365TIP3    H155586   2.597   0.746   3.277 -0.1618  0.5981  0.3698
11365TIP3    H255587   2.569   0.668   3.150 -0.0529  0.9394  0.1344
11366TIP3   OH255588   1.825   3.177   2.418 -0.3076  0.8205 -0.3037
11366TIP3    H155589   1.787   3.104   2.370 -2.4489  0.4476  1.7338
11366TIP3    H255590   1.882   3.136   2.483 -0.5258  1.0382  0.0278
11367TIP3   OH255591   5.948   6.687   0.405 -0.6974 -0.3729 -0.3881
11367TIP3    H155592   5.930   6.598   0.375  3.3679 -1.7640  0.6720
11367TIP3    H255593   5.929   6.685   0.499  0.1534 -0.3983 -0.2100
11368TIP3   OH255594   6.164   2.356  12.313 -0.1767 -0.0468 -0.3937
11368TIP3    H155595   6.121   2.317  12.390 -0.3577  0.8644 -0.0262
11368TIP3    H255596   6.253   2.375  12.342 -0.3590  0.6563 -0.2825
11369TIP3   OH255597   6.564   4.581  16.192 -0.4801 -0.4156  0.0186
11369TIP3    H155598   6.481   4.610  16.230  0.0611  0.3914  0.6454
11369TIP3    H255599   6.555   4.597  16.098 -1.3894 -1.2766 -0.0550
11370TIP3   OH255600   4.288   2.829   5.184 -0.1936  0.5589  0.0710
11370TIP3    H155601   4.380   2.841   5.208 -0.2796 -0.1456  0.7612
11370TIP3    H255602   4.272   2.736   5.195 -0.9107  0.6234 -0.3718
11371TIP3   OH255603   2.974   2.744  11.280 -0.2802 -0.5007 -0.5962
11371TIP3    H155604   3.057   2.789  11.262 -0.5312  0.7502  1.2303
11371TIP3    H255605   2.927   2.748  11.197  1.1824 -0.6364 -1.4810
11372TIP3   OH255606   3.256   1.125   5.831  0.3864  0.4220  0.2636
11372TIP3    H155607   3.336   1.072   5.823  1.2482  1.6287  0.5631
11372TIP3    H255608   3.208   1.086   5.903  1.1237  0.1750  0.6326
11373TIP3   OH255609   0.415   4.121   0.746  0.1059  0.0616 -0.8852
11373TIP3    H155610   0.484   4.133   0.810 -0.9747  0.8238  0.1782
11373TIP3    H255611   0.460   4.094   0.666  1.7406  1.7151 -0.5783
11374TIP3   OH255612   0.917   6.551   1.003 -0.5266  0.0901 -0.2842
11374TIP3    H155613   0.867   6.496   0.942 -0.5274  0.9855 -1.1039
11374TIP3    H255614   0.972   6.605   0.947 -1.8356  2.2459  0.3649
11375TIP3   OH255615   0.908   0.501   6.125 -0.6408  0.4336  0.6502
11375TIP3    H155616   0.816   0.501   6.151 -1.3047  1.8680 -1.3981
11375TIP3    H255617   0.909   0.545   6.039  1.4876 -2.5450 -1.0542
11376TIP3   OH255618   4.137   1.019  11.197 -1.3686 -0.4149 -0.2941
11376TIP3    H155619   4.191   0.943  11.179 -0.3215  0.5498 -1.4121
11376TIP3    H255620   4.047   0.985  11.200 -1.1193 -1.4514 -2.5237
11377TIP3   OH255621   2.744   0.327  13.543 -0.0503 -0.4098  0.8276
11377TIP3    H155622   2.787   0.295  13.622 -1.8755 -0.5907  1.7988
11377TIP3    H255623   2.795   0.289  13.471  1.3021 -0.7113  1.8990
11378TIP3   OH255624   1.101   0.938   5.929  0.0938 -0.3456  0.4333
11378TIP3    H155625   1.156   0.950   6.006 -1.5770 -0.3055  1.6664
11378TIP3    H255626   1.119   1.014   5.874  2.0198 -0.8633  0.2869
11379TIP3   OH255627   2.025   1.759  16.541  0.2426 -0.1547  0.3101
11379TIP3    H155628   2.098   1.761  16.479 -0.1461 -0.8057 -0.1830
11379TIP3    H255629   2.062   1.793  16.623  0.7025  0.9353 -0.3304
11380TIP3   OH255630   6.219   4.040   3.083 -0.0870 -0.1237 -0.1696
11380TIP3    H155631   6.279   3.975   3.120 -1.4182 -0.6135  1.2045
11380TIP3    H255632   6.207   4.104   3.152  0.5100  1.1381 -1.2033
11381TIP3   OH255633   4.257   2.535  16.998 -0.3764 -0.1582 -0.6966
11381TIP3    H155634   4.273   2.468  17.064  0.4777 -0.1710 -0.8976
11381TIP3    H255635   4.162   2.534  16.985 -0.8281  1.1334  1.8746
11382TIP3   OH255636   3.323   3.627  15.070  0.0579  0.6682 -0.3711
11382TIP3    H155637   3.342   3.637  14.977  0.2120 -0.6521 -0.5001
11382TIP3    H255638   3.275   3.706  15.093  0.0975  1.0571 -1.5493
11383TIP3   OH255639   2.237   4.592  11.503 -0.3799  0.2673  0.7923
11383TIP3    H155640   2.232   4.651  11.428 -0.2632 -0.9614 -0.2168
11383TIP3    H255641   2.146   4.570  11.524 -0.3713 -0.2548  0.2939
11384TIP3   OH255642   5.822   6.038  13.049  0.1171  0.4126 -0.4117
11384TIP3    H155643   5.868   6.111  13.091 -0.8296  0.5872  0.3603
11384TIP3    H255644   5.758   6.080  12.993  0.0143  0.1708 -0.4738
11385TIP3   OH255645   3.645   5.998  13.547  0.0754 -0.0002  0.6410
11385TIP3    H155646   3.643   5.906  13.522 -2.3449 -0.2313  1.3754
11385TIP3    H255647   3.595   6.043  13.478  0.7706  0.6940  0.5733
11386TIP3   OH255648   5.762   1.882   0.532  0.5342 -0.2453  0.1706
11386TIP3    H155649   5.762   1.934   0.452 -2.9552 -0.4996 -0.1648
11386TIP3    H255650   5.741   1.945   0.601 -0.4065 -0.6158  0.2430
11387TIP3   OH255651   3.792   2.138  16.580 -0.1650  0.1228 -0.0940
11387TIP3    H155652   3.706   2.113  16.614 -0.6736  0.2132 -1.2568
11387TIP3    H255653   3.818   2.065  16.524  0.5862  0.0423  0.3431
11388TIP3   OH255654   0.810   2.635   3.622  0.1996  0.0857 -0.5642
11388TIP3    H155655   0.773   2.671   3.542  1.0435 -0.3945 -1.1866
11388TIP3    H255656   0.902   2.619   3.601 -0.1918 -2.7079 -0.4248
11389TIP3   OH255657   0.095   5.186  10.718  0.3303  0.0291  0.9435
11389TIP3    H155658   0.054   5.239  10.649  2.4640  0.2942 -0.1998
11389TIP3    H255659   0.043   5.206  10.796 -1.2076  0.9206 -0.2328
11390TIP3   OH255660   4.133   4.092  13.660  0.1898  0.1259  0.4807
11390TIP3    H155661   4.099   4.118  13.574  0.8814 -0.1404  0.1201
11390TIP3    H255662   4.057   4.060  13.707 -1.0664  3.9574  1.4562
11391TIP3   OH255663   0.648   3.158   5.525  0.1856 -0.4129  0.4871
11391TIP3    H155664   0.731   3.142   5.481 -0.7183  1.2865 -2.0972
11391TIP3    H255665   0.610   3.071   5.539  0.3723 -1.1175 -2.6333
11392TIP3   OH255666   3.790   6.494  14.039  0.2588  0.0187 -0.1013
11392TIP3    H155667   3.827   6.575  14.076 -1.9002  1.7506 -1.4555
11392TIP3    H255668   3.726   6.525  13.974 -0.3947 -2.8179 -0.9289
11393TIP3   OH255669   5.493   5.911   5.163  0.1638  0.4388 -0.2401
11393TIP3    H155670   5.415   5.900   5.218 -0.3195  0.1518 -0.9647
11393TIP3    H255671   5.485   5.843   5.096 -0.3269  2.0099 -1.8724
11394TIP3   OH255672   2.269   4.288  10.705 -0.1639  0.3093  0.6492
11394TIP3    H155673   2.197   4.242  10.663  0.0819  0.2363  0.2963
11394TIP3    H255674   2.227   4.354  10.760 -0.5010  0.1350  0.6018
11395TIP3   OH255675   0.337   0.238   0.034 -0.5770 -0.0742 -0.1737
11395TIP3    H155676   0.268   0.173   0.022 -0.6163  0.1218 -1.0361
11395TIP3    H255677   0.300   0.301   0.096 -0.6654 -0.6839  0.4005
11396TIP3   OH255678   6.297   0.523  14.407  0.0146 -0.0285  0.2189
11396TIP3    H155679   6.335   0.449  14.360 -0.0833  1.3670 -2.1837
11396TIP3    H255680   6.206   0.498  14.421 -0.0716 -0.3004 -0.7675
11397TIP3   OH255681   1.803   2.723   5.827  0.3226  0.5362  0.2821
11397TIP3    H155682   1.765   2.740   5.741 -0.1762  0.1829  0.4231
11397TIP3    H255683   1.811   2.627   5.830  0.6121  0.5694  0.5099
11398TIP3   OH255684   2.307   2.833   5.406  0.7300  0.1522 -0.1845
11398TIP3    H155685   2.304   2.852   5.500 -0.3594 -0.0639 -0.1615
11398TIP3    H255686   2.235   2.885   5.369  0.2824 -0.8084 -0.7003
11399TIP3   OH255687   4.185   6.214   3.675 -0.5532  0.2758 -0.2315
11399TIP3    H155688   4.170   6.272   3.600 -1.7172  0.0948 -0.1445
11399TIP3    H255689   4.136   6.254   3.747 -0.4939 -0.2536  0.1085
11400TIP3   OH255690   3.483   2.356  16.931 -0.2507  0.5628 -0.0267
11400TIP3    H155691   3.538   2.399  16.865 -0.4286 -0.7742 -1.0855
11400TIP3    H255692   3.426   2.299  16.881  0.2317 -1.2073  1.3488
11401TIP3   OH255693   4.724   2.537  14.663  0.1361 -0.2565 -0.0009
11401TIP3    H155694   4.735   2.537  14.568 -0.3738  0.2580 -0.0695
11401TIP3    H255695   4.643   2.586  14.678  0.1680 -0.3946  0.6974
11402TIP3   OH255696   0.543   3.499  11.362  0.2076 -0.1995  0.5018
11402TIP3    H155697   0.580   3.411  11.369 -0.7031 -0.6770 -0.5762
11402TIP3    H255698   0.450   3.488  11.383 -0.0840  0.3540 -0.4728
11403TIP3   OH255699   1.224   2.769   4.441  0.2007 -0.1498  0.1847
11403TIP3    H155700   1.224   2.740   4.350  1.4262  0.4347 -0.0237
11403TIP3    H255701   1.315   2.791   4.459 -0.2772  1.2629  1.0556
11404TIP3   OH255702   2.490   2.867   1.388  0.1803  0.4238  0.3482
11404TIP3    H155703   2.456   2.925   1.456 -1.8096 -1.8581  1.4485
11404TIP3    H255704   2.454   2.903   1.306  2.0241  2.7801  0.4550
11405TIP3   OH255705   0.311   2.147  13.437  0.5467  0.0798 -0.1788
11405TIP3    H155706   0.273   2.218  13.386 -1.6625 -0.3060  0.7834
11405TIP3    H255707   0.261   2.148  13.519  2.0192 -1.1367  0.7831
11406TIP3   OH255708   5.928   4.091   6.111  0.0462  0.3529  0.5824
11406TIP3    H155709   5.941   4.181   6.142  2.2674  0.3664 -0.2218
11406TIP3    H255710   5.957   4.093   6.020 -0.4566 -1.0654  0.3702
11407TIP3   OH255711   4.241   2.707  13.286  0.1868 -0.3494 -0.4783
11407TIP3    H155712   4.310   2.672  13.342  0.9249 -1.0568 -1.7868
11407TIP3    H255713   4.248   2.657  13.205 -0.2005  1.3146 -1.5976
11408TIP3   OH255714   4.657   0.765  11.520  0.0614  0.4622  0.6456
11408TIP3    H155715   4.624   0.848  11.554 -0.2293  0.7843 -0.3542
11408TIP3    H255716   4.596   0.699  11.553  0.4082  0.6175  1.6056
11409TIP3   OH255717   0.342   0.480   1.471 -0.5223  0.8971  0.2042
11409TIP3    H155718   0.264   0.433   1.443  0.6943 -0.1735 -1.6044
11409TIP3    H255719   0.395   0.413   1.515 -1.0136  1.8466  2.3731
11410TIP3   OH255720   1.547   0.232   3.063  0.1969  0.2077 -0.3344
11410TIP3    H155721   1.508   0.238   3.150  0.0069  1.5378 -0.4950
11410TIP3    H255722   1.629   0.184   3.077 -0.0177  0.0732  0.5086
11411TIP3   OH255723   1.877   0.950   3.171  0.3255  0.7649 -0.3538
11411TIP3    H155724   1.781   0.950   3.180  0.1976  0.2226 -1.5322
11411TIP3    H255725   1.908   0.994   3.250 -0.8516  0.1200  0.5062
11412TIP3   OH255726   4.881   5.837  16.831  0.2216  0.3816  0.7426
11412TIP3    H155727   4.835   5.914  16.797 -1.4213 -0.6888  0.4274
11412TIP3    H255728   4.866   5.840  16.925 -1.7099 -0.6566  0.5154
11413TIP3   OH255729   1.733   5.884   3.356 -0.0651 -0.0085  0.1538
11413TIP3    H155730   1.669   5.955   3.362 -0.5609 -0.5095  1.0284
11413TIP3    H255731   1.773   5.881   3.443  0.4434 -0.3483 -0.0881
11414TIP3   OH255732   2.030   1.406   1.093 -0.4495  0.4753  0.3136
11414TIP3    H155733   2.107   1.447   1.133 -0.3144  3.1457 -2.3113
11414TIP3    H255734   2.064   1.331   1.045  0.1107  0.1444  1.2216
11415TIP3   OH255735   3.290   2.526  15.911  0.0061  0.0546  0.2024
11415TIP3    H155736   3.321   2.523  16.001  0.9506 -0.7492 -0.1329
11415TIP3    H255737   3.362   2.491  15.859 -0.1543  1.3513 -0.9824
11416TIP3   OH255738   3.880   1.989   3.047 -0.9924 -0.1405  0.1753
11416TIP3    H155739   3.975   1.991   3.036 -0.8376  2.6341  1.0682
11416TIP3    H255740   3.846   1.961   2.962  0.5858  3.5123 -1.9101
11417TIP3   OH255741   2.822   4.037   5.123 -0.0301 -0.7482  0.3769
11417TIP3    H155742   2.819   4.001   5.034  1.4862 -1.0811  0.4404
11417TIP3    H255743   2.859   4.124   5.113  0.8579 -1.0693  0.7420
11418TIP3   OH255744   3.289   5.555   2.055 -0.0780 -0.0177 -0.6062
11418TIP3    H155745   3.323   5.640   2.082 -0.0699 -0.2265  0.0524
11418TIP3    H255746   3.355   5.520   1.995  0.3652  0.0338 -0.1490
11419TIP3   OH255747   0.081   4.263  11.138  0.5001  0.3410  0.5743
11419TIP3    H155748   0.042   4.302  11.216 -1.5827 -0.6608  0.0971
11419TIP3    H255749   0.016   4.275  11.069  1.9258  0.4291 -0.8327
11420TIP3   OH255750   6.432   0.685  10.491 -0.4162  0.0473 -0.8788
11420TIP3    H155751   6.398   0.595  10.493 -1.1270  0.3045 -0.9471
11420TIP3    H255752   6.359   0.738  10.523 -0.3128  0.6957 -1.7154
11421TIP3   OH255753   5.457   0.493  15.200  0.1225 -0.0139 -0.5243
11421TIP3    H155754   5.484   0.561  15.139 -0.1395 -1.0886 -1.8980
11421TIP3    H255755   5.473   0.411  15.153  1.0826 -0.9499  1.3445
11422TIP3   OH255756   1.696   0.483  15.823 -0.0536 -0.3839  0.3711
11422TIP3    H155757   1.635   0.461  15.752  1.1297 -1.5092 -0.3411
11422TIP3    H255758   1.641   0.486  15.902 -1.6675  2.2810 -0.7175
11423TIP3   OH255759   6.185   0.441   6.456  0.4655 -0.2817 -0.3155
11423TIP3    H155760   6.176   0.387   6.535  0.4610  0.3143  0.0966
11423TIP3    H255761   6.112   0.414   6.401 -0.8920  0.8813  0.8399
11424TIP3   OH255762   5.793   0.868   3.410 -0.1139 -0.0909 -0.4086
11424TIP3    H155763   5.831   0.811   3.343  1.3138  1.4490 -1.0172
11424TIP3    H255764   5.719   0.910   3.367 -1.8723 -2.2226  0.3961
11425TIP3   OH255765   2.473   5.378  16.465 -0.1106  0.3664 -0.3590
11425TIP3    H155766   2.544   5.359  16.525 -0.3654  0.9559  0.1451
11425TIP3    H255767   2.440   5.463  16.493 -3.5410 -1.4933  1.9678
11426TIP3   OH255768   6.155   5.250   2.798  0.2468 -0.4059 -0.1192
11426TIP3    H155769   6.082   5.193   2.822 -0.9700  1.1853  0.1708
11426TIP3    H255770   6.168   5.305   2.875  2.1707 -1.0312  0.0428
11427TIP3   OH255771   2.817   4.869  13.078  0.3523 -0.2828  0.2286
11427TIP3    H155772   2.722   4.871  13.076  0.3362 -0.9998 -0.1391
11427TIP3    H255773   2.839   4.833  13.164  0.3561  1.9192  1.2034
11428TIP3   OH255774   1.050   5.225   4.041 -0.2069 -0.5812 -0.2191
11428TIP3    H155775   1.145   5.219   4.052 -0.0274  1.2252 -0.5907
11428TIP3    H255776   1.019   5.258   4.126 -0.0523  2.3296 -1.1866
11429TIP3   OH255777   4.066   5.447  16.971  0.3857  0.5818 -0.0692
11429TIP3    H155778   4.095   5.486  16.888  1.8878  0.6555  0.4608
11429TIP3    H255779   4.007   5.512  17.009  1.6953  1.7079  0.1023
11430TIP3   OH255780   0.305   3.252  15.602  0.3857 -0.7752  0.1849
11430TIP3    H155781   0.312   3.344  15.628 -0.7431 -0.6420  0.0648
11430TIP3    H255782   0.262   3.254  15.517  2.3552 -1.3204 -0.8634
11431TIP3   OH255783   4.606   0.133   6.508 -0.3173 -0.3650 -0.5992
11431TIP3    H155784   4.592   0.194   6.581 -1.8640 -1.3391 -0.0343
11431TIP3    H255785   4.525   0.083   6.502  0.9098 -2.4644 -0.9523
11432TIP3   OH255786   5.799   4.242  11.346  0.0726  0.3480 -0.1878
11432TIP3    H155787   5.763   4.317  11.394 -0.4264  0.7442 -1.1551
11432TIP3    H255788   5.850   4.281  11.275  1.5397 -0.2228  0.5152
11433TIP3   OH255789   1.840   1.095   1.677 -0.1210  0.2018  0.1831
11433TIP3    H155790   1.831   1.022   1.617 -0.9511  0.4793 -0.0374
11433TIP3    H255791   1.803   1.064   1.760  1.8817 -0.5185  0.8795
11434TIP3   OH255792   1.356   4.050  16.829  0.5166 -0.2305 -0.2056
11434TIP3    H155793   1.357   3.986  16.901  0.3972  0.1722  0.1550
11434TIP3    H255794   1.449   4.070  16.814  0.5376 -0.2723 -0.1303
11435TIP3   OH255795   1.627   5.193   1.833 -0.4222 -0.5822  0.1632
11435TIP3    H155796   1.593   5.104   1.834 -0.0421 -0.7303 -0.0823
11435TIP3    H255797   1.579   5.236   1.762  0.7639 -1.1351 -1.0091
11436TIP3   OH255798   2.133   2.597  13.923 -0.2983  0.3687  0.3447
11436TIP3    H155799   2.109   2.604  13.830 -1.1727 -1.5494  0.3667
11436TIP3    H255800   2.095   2.674  13.964 -1.3623  0.3919 -0.6303
11437TIP3   OH255801   0.195   5.795  14.186  0.6487  0.2258  0.5308
11437TIP3    H155802   0.216   5.886  14.162 -0.7076 -0.1391 -2.4285
11437TIP3    H255803   0.276   5.747  14.172  0.9972  0.7433  0.7521
11438TIP3   OH255804   4.654   3.606   4.430  0.5559  0.2903  0.0917
11438TIP3    H155805   4.580   3.589   4.372 -0.6297 -0.1231  1.6493
11438TIP3    H255806   4.642   3.697   4.458  1.8850  0.9450 -1.2935
11439TIP3   OH255807   5.421   6.666   2.501 -0.3699 -0.2794  0.1112
11439TIP3    H155808   5.487   6.597   2.509  0.3269  0.2559 -0.7915
11439TIP3    H255809   5.339   6.619   2.482 -0.3451 -0.9710  1.6295
11440TIP3   OH255810   0.677   5.927   4.508  0.7465  0.3902 -0.3460
11440TIP3    H155811   0.676   5.832   4.496  2.2804  0.5589 -2.2601
11440TIP3    H255812   0.588   5.955   4.489  0.5420 -0.5630 -0.8427
11441TIP3   OH255813   0.014   2.954  11.713  0.2414 -0.4745 -0.1388
11441TIP3    H155814   0.036   3.032  11.763 -1.7771 -0.4426  0.8011
11441TIP3    H255815   0.090   2.938  11.657  0.0245  3.2410 -1.7321
11442TIP3   OH255816   5.657   1.089   1.655 -0.5669  0.3166 -0.1803
11442TIP3    H155817   5.631   1.144   1.729 -2.9712  0.1716 -0.8445
11442TIP3    H255818   5.722   1.028   1.692 -0.5502  1.2520  1.4074
11443TIP3   OH255819   5.619   3.662   2.061 -0.1814  0.2964 -0.1689
11443TIP3    H155820   5.612   3.678   1.967 -1.7625 -0.7100 -0.2692
11443TIP3    H255821   5.529   3.673   2.094  0.5092  1.6652  1.4313
11444TIP3   OH255822   6.794   5.769  13.188  0.6764  0.1564 -0.0814
11444TIP3    H155823   6.725   5.821  13.230  0.4901  0.0666 -0.2772
11444TIP3    H255824   6.875   5.809  13.219  0.6061 -1.2733  2.1642
11445TIP3   OH255825   1.022   5.851  16.791 -0.4688  0.3930 -0.4419
11445TIP3    H155826   1.103   5.874  16.837 -0.2039  1.1025 -1.2288
11445TIP3    H255827   0.973   5.932  16.786  0.0044  0.6100 -2.3316
11446TIP3   OH255828   2.829   3.664  15.086  0.0987  0.0879  0.0495
11446TIP3    H155829   2.797   3.575  15.103  0.8646 -0.1918  0.0777
11446TIP3    H255830   2.828   3.672  14.991 -0.6811  0.3250  0.0704
11447TIP3   OH255831   4.996   2.746   5.731  0.1469 -0.0475 -0.1176
11447TIP3    H155832   5.071   2.741   5.672  0.4907 -0.7227  0.3715
11447TIP3    H255833   4.989   2.839   5.753  0.1494  0.1796 -1.0430
11448TIP3   OH255834   4.839   1.557  11.705 -0.7668 -0.3098 -0.0057
11448TIP3    H155835   4.786   1.593  11.776 -0.9993 -0.4689 -0.0979
11448TIP3    H255836   4.782   1.492  11.663 -0.2985 -0.9162  0.2662
11449TIP3   OH255837   3.942   2.078  16.978  0.2097 -0.0273 -0.0281
11449TIP3    H155838   4.032   2.048  16.966 -0.8195 -3.2768 -0.8284
11449TIP3    H255839   3.923   2.130  16.900  0.7174 -1.2879 -1.0300
11450TIP3   OH255840   4.548   3.563  16.573  0.0901  0.0666  0.0693
11450TIP3    H155841   4.489   3.637  16.583  0.6265  0.6041 -0.6256
11450TIP3    H255842   4.565   3.559  16.479  2.0218  0.6075  0.3693
11451TIP3   OH255843   2.004   2.144  15.750  0.6750  0.2688  0.0204
11451TIP3    H155844   1.954   2.188  15.818  1.3914  0.9965  0.0992
11451TIP3    H255845   1.992   2.051  15.767  0.3184  0.4426  0.7411
11452TIP3   OH255846   5.028   1.676  16.531  0.6722 -0.5539  0.7271
11452TIP3    H155847   5.074   1.633  16.603  0.1056 -1.3260  0.6376
11452TIP3    H255848   5.063   1.765  16.530  2.7397 -1.3224  0.1496
11453TIP3   OH255849   3.192   4.855   5.720 -0.1586  0.1753  0.4065
11453TIP3    H155850   3.204   4.944   5.753 -0.4233  0.3978 -0.0814
11453TIP3    H255851   3.106   4.829   5.753 -0.5058  0.4687 -0.2553
11454TIP3   OH255852   3.803   0.221  15.753 -0.0132 -0.2115 -0.0974
11454TIP3    H155853   3.743   0.261  15.691 -0.1359  1.6372  1.1328
11454TIP3    H255854   3.765   0.135  15.772 -1.1437  0.0963 -0.8943
11455TIP3   OH255855   5.042   5.081   2.029  0.0758  0.3853  0.2386
11455TIP3    H155856   5.084   5.027   1.963  2.0457  1.1054  0.8264
11455TIP3    H255857   5.059   5.034   2.112 -2.4868 -0.5926  0.3062
11456TIP3   OH255858   6.269   3.516   0.932  0.2070 -0.1389 -0.1188
11456TIP3    H155859   6.284   3.429   0.970 -1.9871 -0.9383 -0.9478
11456TIP3    H255860   6.210   3.500   0.859  1.6197  1.8059 -1.7724
11457TIP3   OH255861   2.239   2.773   1.661  0.2204 -0.3009 -0.3279
11457TIP3    H155862   2.176   2.792   1.730 -1.1360  3.0630 -2.2773
11457TIP3    H255863   2.238   2.678   1.654 -1.9434 -0.5839  2.0889
11458TIP3   OH255864   1.679   4.753   5.368  0.7874 -0.2173  0.3987
11458TIP3    H155865   1.616   4.807   5.415  1.1023 -0.8403  1.5843
11458TIP3    H255866   1.754   4.746   5.427  0.9526 -1.5285  0.0853
11459TIP3   OH255867   1.088   3.927   5.463 -0.2819 -0.3055 -0.6886
11459TIP3    H155868   1.001   3.901   5.431 -0.1010 -0.2660 -1.2237
11459TIP3    H255869   1.146   3.914   5.388  0.0087  0.5598 -0.6242
11460TIP3   OH255870   2.177   2.500   2.984 -0.1545 -0.8238 -0.1429
11460TIP3    H155871   2.161   2.482   2.891  0.9270 -1.5470 -0.2097
11460TIP3    H255872   2.214   2.419   3.018 -1.1417 -0.7898  1.0976
11461TIP3   OH255873   4.157   5.330   3.651  0.2081  0.5496 -0.0458
11461TIP3    H155874   4.165   5.335   3.556  0.3165 -0.8208 -0.1355
11461TIP3    H255875   4.082   5.386   3.672  0.3843  1.1190 -0.8957
11462TIP3   OH255876   6.292   4.554   0.972  0.0567 -0.0993  0.3722
11462TIP3    H155877   6.330   4.485   0.918  3.3480 -0.8502  3.3148
11462TIP3    H255878   6.363   4.618   0.982 -1.7501  1.9774  0.6334
11463TIP3   OH255879   5.427   1.824  16.164 -0.0368  0.1305 -0.0870
11463TIP3    H155880   5.516   1.805  16.195  0.0739  0.6169 -0.0838
11463TIP3    H255881   5.412   1.915  16.191 -0.8469 -0.2001  0.6430
11464TIP3   OH255882   2.051   2.282   0.711  0.0147  0.2665 -0.1261
11464TIP3    H155883   2.045   2.271   0.806  0.9199  0.1890 -0.0626
11464TIP3    H255884   1.964   2.312   0.684 -0.6242 -0.9332  0.5445
11465TIP3   OH255885   0.602   1.971  16.953 -0.1851  0.5594  0.1205
11465TIP3    H155886   0.668   1.907  16.927 -2.0036 -2.3003  1.9620
11465TIP3    H255887   0.561   1.998  16.871  0.0638 -1.3612 -0.6859
11466TIP3   OH255888   0.030   2.228  13.382  0.0735 -0.0951 -0.0980
11466TIP3    H155889  -0.063   2.253  13.386  0.3461  1.2476 -1.1048
11466TIP3    H255890   0.029   2.134  13.363 -1.0672 -0.2805  0.7879
11467TIP3   OH255891   0.029   6.739   1.712  0.0198 -1.0012  0.9015
11467TIP3    H155892   0.019   6.791   1.792  0.6363 -1.4367  1.2722
11467TIP3    H255893   0.069   6.657   1.742 -0.4461 -1.4798  0.2541
11468TIP3   OH255894   0.542   0.861   2.035  0.4435 -0.3481 -0.0407
11468TIP3    H155895   0.527   0.835   2.126 -0.1715 -0.3303 -0.1347
11468TIP3    H255896   0.636   0.847   2.021  0.6997  0.4259  0.8389
11469TIP3   OH255897   3.184   1.933  15.007  0.3703 -0.4470  0.5519
11469TIP3    H155898   3.174   1.846  14.967 -1.7373  0.1933 -0.4563
11469TIP3    H255899   3.185   1.915  15.101 -1.3426 -1.5192  0.4237
11470TIP3   OH255900   6.540   1.643   0.212 -0.1677 -0.1804 -0.7152
11470TIP3    H155901   6.532   1.550   0.189  0.4029 -0.0887 -1.3025
11470TIP3    H255902   6.591   1.681   0.141  0.2061  0.4471 -0.1234
11471TIP3   OH255903   6.010   6.392   2.958 -0.3816 -0.1132 -0.2059
11471TIP3    H155904   6.051   6.367   3.041 -0.4714 -0.6665 -0.3272
11471TIP3    H255905   5.971   6.477   2.976  0.9375  0.4992 -0.1263
11472TIP3   OH255906   1.311   0.065  12.686  0.4606  0.1595 -0.4497
11472TIP3    H155907   1.281   0.142  12.638  0.4032  0.6368  0.3457
11472TIP3    H255908   1.398   0.047  12.650  0.4397  0.5428 -0.7012
11473TIP3   OH255909   6.579   6.223  16.759  0.3391  0.6270 -0.2382
11473TIP3    H155910   6.646   6.291  16.766 -0.6538  1.5286  0.7437
11473TIP3    H255911   6.498   6.266  16.785 -0.2026 -1.0945  1.1056
11474TIP3   OH255912   0.380   5.132  12.909  0.1664  0.3297 -0.0310
11474TIP3    H155913   0.376   5.102  13.000  1.6005  0.2395  0.0224
11474TIP3    H255914   0.296   5.174  12.895 -1.5965 -2.8081  0.1856
11475TIP3   OH255915   1.066   5.086   1.092  0.1434  0.2344  0.2973
11475TIP3    H155916   1.127   5.021   1.059 -0.5001  0.4581 -1.4913
11475TIP3    H255917   1.004   5.036   1.145  1.6676 -0.0309  1.8807
11476TIP3   OH255918   4.977   3.757   0.858  0.5346 -0.2940  0.5470
11476TIP3    H155919   4.997   3.833   0.912  0.6054  0.5438 -0.6311
11476TIP3    H255920   4.882   3.748   0.865  0.4347  0.3606  0.1112
11477TIP3   OH255921   1.895   6.410  13.343 -0.0351  0.2998  0.3115
11477TIP3    H155922   1.977   6.362  13.341 -0.6261 -0.7303 -1.4539
11477TIP3    H255923   1.847   6.372  13.417  0.4491 -0.1888  0.3812
11478TIP3   OH255924   6.609   5.188   6.197 -0.1792 -0.3502 -0.3196
11478TIP3    H155925   6.548   5.148   6.258 -0.7587  1.1736  0.1405
11478TIP3    H255926   6.689   5.202   6.248 -0.0175 -0.7895 -0.4476
11479TIP3   OH255927   5.694   3.639   5.227 -0.0566 -0.5029  0.0709
11479TIP3    H155928   5.733   3.725   5.214 -0.0325 -0.5233  0.0090
11479TIP3    H255929   5.760   3.590   5.277  0.4783 -0.9056 -0.9991
11480TIP3   OH255930   5.830   3.659  13.724  0.2203 -0.0189 -0.1549
11480TIP3    H155931   5.816   3.713  13.647  0.2934 -1.1096 -0.9559
11480TIP3    H255932   5.825   3.720  13.798 -0.4975  0.9317 -0.9678
11481TIP3   OH255933   6.469   5.177   1.230 -0.0963 -0.0083  0.0672
11481TIP3    H155934   6.514   5.093   1.243  0.8690  0.4478 -0.1982
11481TIP3    H255935   6.381   5.163   1.265  0.4283 -0.7599  1.1522
11482TIP3   OH255936   1.601   0.009  13.734 -0.1812 -0.1977 -0.1900
11482TIP3    H155937   1.589  -0.044  13.655  1.7148  0.3552 -0.9025
11482TIP3    H255938   1.683  -0.023  13.772  1.7450  2.8778 -1.3175
11483TIP3   OH255939   4.487   3.470  16.279  0.4085  0.6491 -0.3462
11483TIP3    H155940   4.419   3.512  16.331  0.3889  1.3115 -0.8908
11483TIP3    H255941   4.451   3.383  16.259 -0.6217  1.2598 -1.2721
11484TIP3   OH255942   0.879   0.916   6.128 -0.1185 -0.3895  0.0485
11484TIP3    H155943   0.956   0.890   6.079 -0.6257 -0.4313 -0.7365
11484TIP3    H255944   0.805   0.900   6.069 -0.6613  0.4758  0.4576
11485TIP3   OH255945   2.803   5.922   4.058 -0.1383  0.1172  0.2042
11485TIP3    H155946   2.712   5.941   4.078  0.2880  2.8253 -0.0419
11485TIP3    H255947   2.851   5.954   4.135  0.6898 -0.3181 -0.1171
11486TIP3   OH255948   4.696   0.807   1.242 -0.0742 -0.5608 -0.7259
11486TIP3    H155949   4.772   0.784   1.189 -1.2940 -0.3034 -2.6749
11486TIP3    H255950   4.622   0.770   1.194 -1.3427  0.7190  0.1859
11487TIP3   OH255951   3.453   6.587  11.375  0.2582  0.2260  0.5298
11487TIP3    H155952   3.381   6.643  11.347  0.0070 -0.8276 -1.0559
11487TIP3    H255953   3.427   6.557  11.463 -0.1107  1.6717  0.9334
11488TIP3   OH255954   2.167   0.739   0.373  0.2640  0.1473  0.1412
11488TIP3    H155955   2.151   0.687   0.451  1.5366 -2.0305 -0.9523
11488TIP3    H255956   2.259   0.765   0.379 -0.3937  2.6412  0.7895
11489TIP3   OH255957   3.735   1.284   0.733  0.5927 -0.3878  0.2528
11489TIP3    H155958   3.729   1.247   0.821  0.9939 -1.7850 -0.2779
11489TIP3    H255959   3.825   1.319   0.728  0.4315  0.0786  0.5270
11490TIP3   OH255960   4.418   0.967  15.259  0.4055  0.4272 -0.5470
11490TIP3    H155961   4.473   0.929  15.191  0.1664 -0.0843 -0.4549
11490TIP3    H255962   4.453   1.056  15.270  0.4459  0.5245 -1.3387
11491TIP3   OH255963   1.310   2.132  12.632 -0.3108 -0.8347  0.2710
11491TIP3    H155964   1.341   2.223  12.636 -0.0393 -0.7896 -1.9528
11491TIP3    H255965   1.247   2.126  12.704 -1.8045  1.7185 -0.7047
11492TIP3   OH255966   1.904   1.115   6.063 -0.3402 -0.0013  0.3642
11492TIP3    H155967   1.902   1.030   6.019  0.7896  0.1689 -0.0551
11492TIP3    H255968   1.821   1.156   6.040 -1.1017 -1.1590  0.9447
11493TIP3   OH255969   1.977   3.436   3.254 -0.7615 -0.1067  0.2069
11493TIP3    H155970   2.049   3.441   3.318 -0.5029 -0.7740 -0.0259
11493TIP3    H255971   1.928   3.358   3.280 -1.1901  0.1405  0.1410
11494TIP3   OH255972   4.288   5.386  12.713  0.1223 -0.5633 -0.1785
11494TIP3    H155973   4.354   5.319  12.696 -0.2912 -0.4491 -2.7453
11494TIP3    H255974   4.334   5.469  12.698  0.0036 -0.3833  0.4540
11495TIP3   OH255975   2.274   6.838   4.407 -0.1710 -0.3547  0.5045
11495TIP3    H155976   2.257   6.752   4.370  1.0021 -0.4281  0.0814
11495TIP3    H255977   2.290   6.894   4.331 -0.9852  0.2592  0.7705
11496TIP3   OH255978   3.572   0.485  12.116  0.0063  0.7807 -0.4514
11496TIP3    H155979   3.531   0.444  12.039 -0.8774  0.4538  0.1793
11496TIP3    H255980   3.607   0.411  12.166 -1.1686  0.8144  0.4485
11497TIP3   OH255981   3.945   2.997  10.905  0.5470  0.3041 -0.7784
11497TIP3    H155982   3.946   2.942  10.827  0.3851  0.0584 -0.6103
11497TIP3    H255983   4.031   2.984  10.946  0.7705  0.7182 -1.1089
11498TIP3   OH255984   1.722   5.065   2.257  0.0755 -0.9428  0.1148
11498TIP3    H155985   1.690   5.000   2.194  0.3558 -0.0363 -1.0075
11498TIP3    H255986   1.647   5.123   2.271  0.1110 -0.9590  0.3687
11499TIP3   OH255987   6.683   4.644   1.400  0.5674  0.0656  0.2913
11499TIP3    H155988   6.747   4.661   1.469  0.2662 -0.5268  0.7230
11499TIP3    H255989   6.732   4.595   1.333  0.9329  0.8915 -0.0559
11500TIP3   OH255990   2.117   4.701   1.617  0.3715  0.1744  0.1258
11500TIP3    H155991   2.031   4.710   1.658  0.7986  0.8050  0.9295
11500TIP3    H255992   2.119   4.771   1.551  0.4290  0.4344  0.4023
11501TIP3   OH255993   5.433   4.947   6.267  0.6252  0.5446 -0.3941
11501TIP3    H155994   5.454   4.999   6.344  0.7486 -2.5106  1.8068
11501TIP3    H255995   5.450   5.006   6.193  0.2679  3.6988  1.8435
11502TIP3   OH255996   1.986   0.940  15.153 -0.0741  0.4351  0.3200
11502TIP3    H155997   1.917   0.979  15.206  0.0835  0.5515  0.4397
11502TIP3    H255998   2.024   1.013  15.105 -1.1813  0.1298 -1.0816
11503TIP3   OH255999   3.145   2.256   1.397 -0.2077  0.2830 -0.2897
11503TIP3    H156000   3.223   2.271   1.343  1.3062 -0.1507  1.6698
11503TIP3    H256001   3.171   2.284   1.485 -2.4346  0.5362  0.3489
11504TIP3   OH256002   0.325   0.195   4.595 -0.2372 -0.1173  0.5191
11504TIP3    H156003   0.411   0.186   4.636 -0.9263 -0.8918  1.8339
11504TIP3    H256004   0.345   0.207   4.502  1.3331  1.1336  0.9636
11505TIP3   OH256005   5.479   2.898  12.641 -0.3921  0.4866 -0.1901
11505TIP3    H156006   5.556   2.851  12.672 -0.8746 -0.4869 -0.4046
11505TIP3    H256007   5.406   2.841  12.665 -0.9757  0.9916 -0.7390
11506TIP3   OH256008   4.831   0.528   6.300 -0.3185  0.2866  0.7184
11506TIP3    H156009   4.923   0.549   6.285 -0.4016  0.5828  0.6238
11506TIP3    H256010   4.783   0.596   6.254 -0.6005 -0.7771 -0.6011
11507TIP3   OH256011   1.655   6.738   2.271 -0.5116 -0.5605  0.2543
11507TIP3    H156012   1.597   6.732   2.196 -0.7707 -1.4017  0.5086
11507TIP3    H256013   1.612   6.799   2.331 -0.5163 -0.2260 -0.0900
11508TIP3   OH256014   2.194   5.685  14.629 -0.1527 -0.0986 -0.4338
11508TIP3    H156015   2.110   5.719  14.598  0.0710 -0.3947 -1.3983
11508TIP3    H256016   2.184   5.590  14.626  0.1070 -0.1325 -0.2570
11509TIP3   OH256017   1.333   3.105   1.297  0.0368  0.1912 -0.0718
11509TIP3    H156018   1.393   3.054   1.243  0.0083  0.0282  0.0496
11509TIP3    H256019   1.390   3.162   1.348  0.0372  0.6846 -0.6189
11510TIP3   OH256020   3.018   2.167  15.132  0.3238  0.0341  0.3789
11510TIP3    H156021   2.962   2.144  15.058  2.0212 -1.1825 -0.5752
11510TIP3    H256022   2.968   2.139  15.209 -0.1184 -1.6270 -0.4726
11511TIP3   OH256023   1.994   3.290   2.673 -0.4878  0.2070  0.0347
11511TIP3    H156024   1.944   3.348   2.615  0.0641 -2.5684 -3.5665
11511TIP3    H256025   2.076   3.337   2.689 -0.7586  1.1973 -1.2764
11512TIP3   OH256026   0.362   0.916   0.550 -0.2632  0.3367 -0.2777
11512TIP3    H156027   0.439   0.934   0.605  0.0821  0.5778 -0.8307
11512TIP3    H256028   0.343   0.824   0.565 -0.9154  0.6802  1.1758
11513TIP3   OH256029   4.337   4.208   5.384  0.4288  0.4012  0.1135
11513TIP3    H156030   4.291   4.177   5.305  0.0036  2.2032 -0.3869
11513TIP3    H256031   4.394   4.135   5.408  0.4053 -0.2937 -1.7424
11514TIP3   OH256032   0.997   5.849   4.648 -0.0841 -0.3578  0.2450
11514TIP3    H156033   1.089   5.825   4.635  0.4670  0.9655  1.4777
11514TIP3    H256034   0.948   5.772   4.618  1.3904 -0.9398 -0.7898
11515TIP3   OH256035   2.466   3.572   1.601 -0.1606 -0.1798 -0.3017
11515TIP3    H156036   2.480   3.513   1.527  0.9818 -0.2725 -0.0286
11515TIP3    H256037   2.375   3.557   1.627  0.2490 -2.2601  0.1377
11516TIP3   OH256038   5.358   2.214  15.865  0.1791  0.2407  0.0490
11516TIP3    H156039   5.265   2.208  15.884  0.4154  0.1596  1.2694
11516TIP3    H256040   5.398   2.238  15.949  1.6050 -2.8846  0.4315
11517TIP3   OH256041   2.215   2.225  15.086 -0.1530 -0.6822 -0.5178
11517TIP3    H156042   2.163   2.157  15.129 -2.3426  0.5871 -0.9496
11517TIP3    H256043   2.203   2.302  15.141 -1.0838  0.3603 -2.0900
11518TIP3   OH256044   2.751   5.929   2.742 -0.0914 -0.2351 -0.1031
11518TIP3    H156045   2.711   5.981   2.673  0.1470 -0.6282 -0.5476
11518TIP3    H256046   2.816   5.875   2.696  0.9398  0.3771  0.5860
11519TIP3   OH256047   5.291   1.614   4.233  0.2830  0.8235  0.3202
11519TIP3    H156048   5.298   1.619   4.328 -0.6343 -0.6286  0.5062
11519TIP3    H256049   5.202   1.643   4.214  0.4809  1.1569 -0.0954
11520TIP3   OH256050   5.114   2.255  11.404  0.1124  0.1644 -0.7537
11520TIP3    H156051   5.097   2.223  11.316  0.2338 -1.0813 -0.3387
11520TIP3    H256052   5.099   2.350  11.398  0.8756  0.2206 -2.2819
11521TIP3   OH256053   3.292   3.069   5.791  0.6359 -0.0355  0.2639
11521TIP3    H156054   3.317   3.009   5.862  1.3478 -1.3333 -1.0237
11521TIP3    H256055   3.314   3.156   5.825 -0.4325 -0.4610  2.1966
11522TIP3   OH256056   2.629   4.870  11.894  0.0945  0.2153 -0.3254
11522TIP3    H156057   2.555   4.923  11.865  0.4658  1.7950  1.3899
11522TIP3    H256058   2.688   4.867  11.818 -1.5738 -0.9179 -1.6528
11523TIP3   OH256059   4.450   2.919  11.073  0.3353 -0.2544 -0.2107
11523TIP3    H156060   4.356   2.923  11.059  0.2813  1.7086  0.3225
11523TIP3    H256061   4.482   2.856  11.009 -1.5747 -2.8719  1.1963
11524TIP3   OH256062   5.428   1.085   2.569  0.8269 -0.7682  0.0356
11524TIP3    H156063   5.492   1.091   2.640  1.2470 -2.3033 -0.1813
11524TIP3    H256064   5.383   1.002   2.584 -1.5619  0.5298  0.5094
11525TIP3   OH256065   6.098   5.675   4.421 -0.0067  0.1682  0.0049
11525TIP3    H156066   6.133   5.599   4.468 -1.0006 -0.4081 -0.1809
11525TIP3    H256067   6.006   5.679   4.446 -0.4016  0.2467 -1.3716
11526TIP3   OH256068   2.121   2.239  16.214  0.3089  0.1134 -0.6166
11526TIP3    H156069   2.099   2.284  16.295  1.0388 -0.7991  0.0995
11526TIP3    H256070   2.072   2.286  16.146 -0.9651  0.3649  0.4554
11527TIP3   OH256071   2.190   1.605  12.059  0.0164  0.1816 -0.5556
11527TIP3    H156072   2.182   1.520  12.101 -1.2912  0.6211  0.1392
11527TIP3    H256073   2.100   1.627  12.033  0.1739  1.7885  0.1857
11528TIP3   OH256074   1.399   2.214  11.642  0.0630  0.6875 -0.4960
11528TIP3    H156075   1.469   2.201  11.579  0.0095 -2.5088 -0.0531
11528TIP3    H256076   1.443   2.246  11.721  0.8655 -0.0179 -0.6430
11529TIP3   OH256077   1.773   1.822  11.045  0.0459  0.3573 -0.3239
11529TIP3    H156078   1.749   1.793  10.957 -0.7943 -1.9416  0.5918
11529TIP3    H256079   1.754   1.747  11.102 -0.2290  2.0386  1.9611
11530TIP3   OH256080   4.970   1.590   0.287  0.0551  0.5375 -0.0210
11530TIP3    H156081   4.995   1.516   0.341 -0.2360  0.9523  0.6910
11530TIP3    H256082   5.051   1.616   0.243  0.7379  1.3631  1.6457
11531TIP3   OH256083   5.892   5.195  17.096  0.1090  0.5026 -0.1522
11531TIP3    H156084   5.846   5.112  17.086 -0.2089  0.6788 -0.1544
11531TIP3    H256085   5.960   5.194  17.029  1.0950 -0.4190  0.8176
11532TIP3   OH256086   6.833   1.787  14.898  0.1239  0.0542 -0.1651
11532TIP3    H156087   6.852   1.861  14.839  2.1256 -0.2357  0.0624
11532TIP3    H256088   6.757   1.745  14.858  1.1505  0.1107 -2.3438
11533TIP3   OH256089   0.675   0.526  11.001 -0.1617  0.3041  0.1559
11533TIP3    H156090   0.634   0.607  10.969  0.2476 -0.1098 -1.5162
11533TIP3    H256091   0.768   0.539  10.985 -0.0218 -0.2227  0.5310
11534TIP3   OH256092   3.721   3.739   0.953 -0.0634  0.0758 -0.5561
11534TIP3    H156093   3.708   3.802   0.882 -0.5933 -0.2080 -0.7195
11534TIP3    H256094   3.632   3.716   0.981  0.1391  0.6589  0.6285
11535TIP3   OH256095   4.425   1.791   1.324 -0.0550  0.1008 -0.6641
11535TIP3    H156096   4.396   1.703   1.301 -1.5462 -0.0718  1.5058
11535TIP3    H256097   4.346   1.835   1.356  0.8476  1.9105 -0.7490
11536TIP3   OH256098   5.010   3.031  16.064 -0.2141 -0.7902 -0.2299
11536TIP3    H156099   5.062   3.081  16.126 -0.3172 -0.8881 -0.0620
11536TIP3    H256100   4.949   3.094  16.026 -0.6019 -0.8607  0.2607
11537TIP3   OH256101   5.283   4.890   1.152  0.3135 -0.1543 -0.0556
11537TIP3    H156102   5.272   4.985   1.159 -0.4145 -0.1580 -0.8970
11537TIP3    H256103   5.263   4.870   1.060 -1.2416 -1.3215  0.4907
11538TIP3   OH256104   4.064   5.679  15.355  0.0438  0.4753 -0.1687
11538TIP3    H156105   4.111   5.758  15.328 -0.4597  0.5005 -0.9983
11538TIP3    H256106   4.107   5.608  15.308 -0.8127  0.5127 -1.0301
11539TIP3   OH256107   3.470   1.444  15.351  0.5363 -0.1916 -0.4438
11539TIP3    H156108   3.430   1.394  15.280  1.2238  1.5704 -2.1684
11539TIP3    H256109   3.397   1.487  15.395  0.2039 -0.3262 -0.8609
11540TIP3   OH256110   3.805   3.564  16.615 -0.3764 -0.4759 -0.5530
11540TIP3    H156111   3.777   3.473  16.623 -2.0013  0.0935  0.7808
11540TIP3    H256112   3.881   3.571  16.672 -2.2852 -0.2714  2.1774
11541TIP3   OH256113   0.592   2.360  11.512 -0.2929  0.6271  0.1441
11541TIP3    H156114   0.613   2.279  11.465 -1.2056 -1.9140  3.7159
11541TIP3    H256115   0.501   2.378  11.491 -0.3048  0.3170 -0.0717
11542TIP3   OH256116   0.492   6.077   3.131 -0.1053 -0.4188  0.1916
11542TIP3    H156117   0.441   6.066   3.051  0.1035 -1.2324  0.1658
11542TIP3    H256118   0.446   6.026   3.196 -0.4120  0.4400  0.6670
11543TIP3   OH256119   1.483   6.563  15.449 -0.5430  0.2547 -0.0037
11543TIP3    H156120   1.541   6.556  15.372  1.0435  2.0797  0.9255
11543TIP3    H256121   1.410   6.616  15.418 -0.7778 -0.4373 -0.6790
11544TIP3   OH256122   1.692   5.881  13.252 -0.8130  0.1497 -0.0460
11544TIP3    H156123   1.763   5.818  13.239 -0.6529  0.3955 -0.3554
11544TIP3    H256124   1.632   5.836  13.312 -0.5101 -0.1463  0.0423
11545TIP3   OH256125   0.324   4.336  12.774 -0.5051 -0.0217  0.3554
11545TIP3    H156126   0.302   4.429  12.769 -0.1818  0.0997  1.0494
11545TIP3    H256127   0.331   4.308  12.683 -4.2397 -0.2377 -0.0134
11546TIP3   OH256128   4.705   6.578  11.487  0.0604  0.0864 -0.0846
11546TIP3    H156129   4.646   6.584  11.562 -1.0238  1.8143 -0.9968
11546TIP3    H256130   4.661   6.518  11.426 -0.7341  1.2044 -0.6706
11547TIP3   OH256131   3.785   6.318  13.278  0.4434 -0.1469  0.2612
11547TIP3    H156132   3.720   6.361  13.334 -0.0796  0.5284 -0.8258
11547TIP3    H256133   3.814   6.242  13.328  1.1959  1.2949  2.1489
11548TIP3   OH256134   3.333   4.351   3.168 -0.0844 -0.0865  0.1199
11548TIP3    H156135   3.241   4.341   3.142 -0.0684 -1.1167  0.4266
11548TIP3    H256136   3.368   4.262   3.165  1.0671  0.3687 -0.5709
11549TIP3   OH256137   2.707   5.512   4.729  0.0071  0.5154  0.1827
11549TIP3    H156138   2.617   5.539   4.746  0.1162 -0.1830  2.1083
11549TIP3    H256139   2.747   5.588   4.688 -1.1153  1.2939  0.4754
11550TIP3   OH256140   0.620   4.119   1.877  0.4180 -0.1031  0.2099
11550TIP3    H156141   0.544   4.089   1.827  0.9984 -1.1618 -0.0789
11550TIP3    H256142   0.595   4.109   1.968  0.4821 -1.2609  0.1230
11551TIP3   OH256143   4.516   5.221  12.982 -0.6396 -0.0309 -0.3230
11551TIP3    H156144   4.604   5.184  12.987  0.0155  1.6069  1.5946
11551TIP3    H256145   4.465   5.170  13.044 -0.6025  0.1153 -0.1720
11552TIP3   OH256146   2.081   4.577  13.039 -0.7371  0.3075  0.1156
11552TIP3    H156147   2.083   4.629  13.119 -1.0226 -2.8955  2.4041
11552TIP3    H256148   2.115   4.491  13.065  2.6980  0.0552 -4.1016
11553TIP3   OH256149   5.586   4.377  17.184  0.7203  0.6078  0.1465
11553TIP3    H156150   5.677   4.357  17.163  0.0601 -0.6848 -1.7224
11553TIP3    H256151   5.543   4.386  17.100 -1.0377  0.4854  0.9840
11554TIP3   OH256152   4.252   3.203   4.265 -0.1500 -0.0392 -0.0353
11554TIP3    H156153   4.187   3.190   4.334  0.2772  0.2038  0.4215
11554TIP3    H256154   4.336   3.186   4.307 -0.0113 -2.4988 -1.1643
11555TIP3   OH256155   6.458   3.429   5.558  0.3476  0.0102  0.0875
11555TIP3    H156156   6.504   3.399   5.637 -0.2134 -0.0189  0.4061
11555TIP3    H256157   6.491   3.372   5.489  0.0890 -0.6383  0.4915
11556TIP3   OH256158   3.520   0.426  16.461  0.1644 -0.8345 -0.0546
11556TIP3    H156159   3.511   0.391  16.372  0.5933 -0.2653 -0.3284
11556TIP3    H256160   3.471   0.508  16.459  2.3581  0.5406 -0.5608
11557TIP3   OH256161   4.836   0.982  15.218  0.0571  0.6367  0.0516
11557TIP3    H156162   4.770   1.048  15.238 -0.7420 -0.1000 -0.0842
11557TIP3    H256163   4.831   0.971  15.123 -0.0318  0.1769  0.1039
11558TIP3   OH256164   0.514   5.511   0.489  0.3262 -0.2962  0.2909
11558TIP3    H156165   0.509   5.536   0.581  1.4808 -1.0168  0.5685
11558TIP3    H256166   0.458   5.434   0.482 -0.7998  0.5176  0.0908
11559TIP3   OH256167   4.354   1.374  15.396  0.1897  1.0557  0.5209
11559TIP3    H156168   4.351   1.295  15.450  1.7773 -0.1519 -1.0355
11559TIP3    H256169   4.420   1.429  15.439  1.0758  0.3206  0.1518
11560TIP3   OH256170   3.572   4.775  14.087 -0.2116 -0.3141 -0.3008
11560TIP3    H156171   3.509   4.766  14.159 -0.2706  0.2852 -0.2693
11560TIP3    H256172   3.532   4.727  14.015 -1.4728  1.3163 -0.7632
11561TIP3   OH256173   5.022   6.690  15.936 -0.3699  0.3453  0.2923
11561TIP3    H156174   5.102   6.702  15.987  1.6384  1.2557 -2.8017
11561TIP3    H256175   5.000   6.778  15.904 -1.4557 -0.1923 -0.5094
11562TIP3   OH256176   5.496   2.846   2.086  0.3477 -0.0412  0.6600
11562TIP3    H156177   5.433   2.814   2.021 -0.8737 -0.7303  2.1154
11562TIP3    H256178   5.582   2.820   2.051 -0.4572 -3.3026  0.7897
11563TIP3   OH256179   3.998   5.644   4.552  0.2066 -0.0353  0.1112
11563TIP3    H156180   4.053   5.601   4.487  0.3556 -1.0409  0.8895
11563TIP3    H256181   4.060   5.681   4.615  0.0062 -1.0056  0.8888
11564TIP3   OH256182   4.285   0.128   0.664  0.3909  0.2801  0.3966
11564TIP3    H156183   4.370   0.153   0.626  1.2386 -0.7586  1.5155
11564TIP3    H256184   4.252   0.060   0.606  0.3789  0.5949  0.0280
11565TIP3   OH256185   0.690   3.193  16.384  0.6755  0.0931 -0.5676
11565TIP3    H156186   0.725   3.243  16.458  0.3710  0.2246 -0.5128
11565TIP3    H256187   0.718   3.243  16.307  1.4767 -0.3434 -0.5775
11566TIP3   OH256188   3.127   0.355   3.960 -0.1626 -0.1840 -0.6204
11566TIP3    H156189   3.091   0.293   3.898  0.8826  0.1022 -1.5488
11566TIP3    H256190   3.072   0.433   3.952  0.1359 -0.0463 -1.4080
11567TIP3   OH256191   4.261   3.053   4.742  0.2807 -0.1628  0.2964
11567TIP3    H156192   4.302   2.967   4.729  0.3913  0.2507 -3.1049
11567TIP3    H256193   4.195   3.038   4.810  1.2873 -2.5511  0.8695
11568TIP3   OH256194   0.977   4.025   3.857  0.3326 -0.1903  0.4369
11568TIP3    H156195   0.969   4.115   3.826  1.2205 -0.0858  0.4862
11568TIP3    H256196   0.957   4.030   3.951  0.0707 -0.1027  0.3785
11569TIP3   OH256197   0.958   3.591  13.788 -0.4093  0.3629  0.2705
11569TIP3    H156198   1.029   3.646  13.753 -1.2914  0.9010 -0.7286
11569TIP3    H256199   0.917   3.646  13.855 -1.6363  1.2023 -1.1026
11570TIP3   OH256200   1.743   4.615  14.297  0.3440 -0.2185  0.0896
11570TIP3    H156201   1.691   4.628  14.218  1.0100 -0.3384 -0.3743
11570TIP3    H256202   1.830   4.591  14.265  1.1333  1.4992  0.7992
11571TIP3   OH256203   6.391   3.621   1.283  0.3777 -0.1759 -0.2077
11571TIP3    H156204   6.440   3.558   1.230 -0.0958 -1.7157  1.1266
11571TIP3    H256205   6.455   3.654   1.346  0.4272  0.0959 -0.3973
11572TIP3   OH256206   3.774   6.506   1.784  0.0738 -0.3158  0.2976
11572TIP3    H156207   3.721   6.450   1.725  0.6236  0.4365 -0.9502
11572TIP3    H256208   3.717   6.521   1.860 -0.7601 -1.1183 -0.1441
11573TIP3   OH256209   1.666   3.501  12.323  0.6994 -0.1152  0.3819
11573TIP3    H156210   1.714   3.542  12.250  1.0930 -1.0926  0.0820
11573TIP3    H256211   1.584   3.551  12.328  0.8079  0.1742 -0.5210
11574TIP3   OH256212   6.630   0.882  14.328 -0.5664  0.0604 -0.3148
11574TIP3    H156213   6.594   0.795  14.343  0.4368 -0.3340 -0.1452
11574TIP3    H256214   6.685   0.872  14.251  1.0524  0.0806  0.7992
11575TIP3   OH256215   2.876   1.305  14.506  0.0073  0.2040 -0.1513
11575TIP3    H156216   2.782   1.289  14.501  0.1707 -0.4434 -1.7087
11575TIP3    H256217   2.899   1.341  14.421  1.1911  0.3059  0.1921
11576TIP3   OH256218   1.575   1.616   1.200 -0.0263 -0.7077  0.3156
11576TIP3    H156219   1.660   1.610   1.245 -0.1384 -0.7716  0.5212
11576TIP3    H256220   1.511   1.597   1.269 -0.2903  0.8482  0.5419
11577TIP3   OH256221   3.122   6.071  15.292 -0.6223  0.2693  0.2604
11577TIP3    H156222   3.049   6.110  15.243 -2.1391 -1.7218  0.8101
11577TIP3    H256223   3.198   6.085  15.236 -1.9206 -0.0731 -1.7150
11578TIP3   OH256224   1.460   5.293  14.545 -0.1059  0.5027  0.8993
11578TIP3    H156225   1.409   5.315  14.467  0.3111  0.0363  0.4894
11578TIP3    H256226   1.430   5.355  14.612 -0.7553  0.6408  0.4867
11579TIP3   OH256227   2.665   3.496  11.094  0.2476  0.0962 -0.3614
11579TIP3    H156228   2.570   3.493  11.079 -0.2535 -0.4660  2.4375
11579TIP3    H256229   2.690   3.586  11.074 -1.6448  1.3861  2.4972
11580TIP3   OH256230   1.544   0.824   4.912  0.3067 -0.1314 -0.3353
11580TIP3    H156231   1.490   0.861   4.982 -1.1999  0.0488 -1.5247
11580TIP3    H256232   1.481   0.782   4.853  1.6595 -1.4579 -0.8959
11581TIP3   OH256233   2.081   1.080  13.957  0.0336  0.2847 -0.1718
11581TIP3    H156234   2.107   1.035  14.037  0.9885 -0.0403 -0.6520
11581TIP3    H256235   1.991   1.051  13.941 -0.0035  0.0029  0.5380
11582TIP3   OH256236   1.765   5.975   1.806  0.2285  0.4335  0.3290
11582TIP3    H156237   1.733   5.917   1.875  0.7817 -0.3087 -0.0243
11582TIP3    H256238   1.721   6.058   1.823  0.0324  0.1478  1.3254
11583TIP3   OH256239   2.606   6.727  15.803 -0.2709 -0.0515 -0.1660
11583TIP3    H156240   2.651   6.755  15.724 -1.1445 -0.8911 -0.9803
11583TIP3    H256241   2.674   6.689  15.858  0.4175  0.9388 -0.3026
11584TIP3   OH256242   2.996   4.138  16.142 -0.6876  0.1633 -0.4892
11584TIP3    H156243   3.040   4.077  16.083  2.2252  0.9969  0.5893
11584TIP3    H256244   2.984   4.217  16.090  0.0236  0.2338 -0.5634
11585TIP3   OH256245   6.498   0.692  14.461 -0.2182 -0.3658  0.3345
11585TIP3    H156246   6.432   0.627  14.436  0.9860 -2.2119  1.7180
11585TIP3    H256247   6.464   0.730  14.542 -0.5337  0.1935 -0.0492
11586TIP3   OH256248   1.153   2.145  12.255 -0.3157 -0.7981  0.2525
11586TIP3    H156249   1.216   2.075  12.240 -0.2762 -0.3460 -2.0897
11586TIP3    H256250   1.206   2.221  12.278 -0.0248 -0.5652 -1.1362
11587TIP3   OH256251   4.210   0.007  12.996  0.8053 -0.3021 -1.1192
11587TIP3    H156252   4.231  -0.083  13.020 -0.9546 -0.6724 -0.7632
11587TIP3    H256253   4.236   0.059  13.072 -0.7973 -0.9176 -0.0973
11588TIP3   OH256254   2.688   6.304   5.779  0.4811  0.1686  0.0048
11588TIP3    H156255   2.773   6.264   5.765  0.2922  0.1149 -1.0848
11588TIP3    H256256   2.703   6.370   5.847  0.7037 -2.0143  2.2550
11589TIP3   OH256257   4.504   4.030  12.091  0.4305  0.7529  0.6162
11589TIP3    H156258   4.487   4.044  12.184  2.4431  2.1725  0.8458
11589TIP3    H256259   4.491   3.936  12.078 -2.2514  0.8898  1.7388
11590TIP3   OH256260   6.709   0.152  12.765  0.3996  0.1250  0.5138
11590TIP3    H156261   6.742   0.062  12.772 -0.7887 -0.2220  2.3935
11590TIP3    H256262   6.786   0.207  12.782  1.7837 -0.3230 -3.2009
11591TIP3   OH256263   5.037   3.101   5.500  0.8820 -0.2028 -0.1048
11591TIP3    H156264   5.113   3.118   5.556  0.0123  0.7988  0.8016
11591TIP3    H256265   5.052   3.156   5.423 -0.1525  2.0661  1.2271
11592TIP3   OH256266   2.381   0.439   2.704 -0.2775 -0.0815  0.4787
11592TIP3    H156267   2.471   0.434   2.672 -0.5677 -0.0002 -0.3831
11592TIP3    H256268   2.342   0.356   2.676 -1.2023  0.9616 -1.5325
11593TIP3   OH256269   5.964   6.655   4.465  0.2129 -0.2054 -0.3343
11593TIP3    H156270   6.011   6.713   4.405 -4.0030  1.0320 -2.8669
11593TIP3    H256271   5.963   6.570   4.420 -1.1355  0.1736 -1.0747
11594TIP3   OH256272   3.540   4.165  16.154  0.2748 -0.0958  0.4488
11594TIP3    H156273   3.624   4.205  16.131 -0.5021  2.4988  1.6795
11594TIP3    H256274   3.547   4.150  16.249 -0.8600  0.8464  0.7062
11595TIP3   OH256275   6.177   0.956  11.331 -1.1109 -0.2439 -0.1003
11595TIP3    H156276   6.142   0.888  11.389  2.2657 -0.4663  1.9690
11595TIP3    H256277   6.248   0.912  11.283  0.4732  1.5058  0.5336
11596TIP3   OH256278   3.662   2.619   4.969 -0.0573 -0.2132 -0.1446
11596TIP3    H156279   3.637   2.601   5.059 -1.7094 -1.2839 -0.7588
11596TIP3    H256280   3.740   2.565   4.954  0.4874  0.3116  0.7442
11597TIP3   OH256281   5.524   5.997   1.156  0.0592 -0.1437  0.0617
11597TIP3    H156282   5.457   6.063   1.142 -0.2154 -0.6702 -1.2894
11597TIP3    H256283   5.597   6.044   1.197  0.6847  1.4937 -2.6960
11598TIP3   OH256284   0.298   5.285  10.891 -0.0227  0.3985 -0.1865
11598TIP3    H156285   0.219   5.235  10.873 -0.3543  1.2059 -1.1359
11598TIP3    H256286   0.326   5.316  10.805  0.0904  1.9233  0.3659
11599TIP3   OH256287   0.818   4.301  16.234 -0.0011  0.1875 -0.7551
11599TIP3    H156288   0.754   4.370  16.252 -1.2762 -0.8090 -1.2868
11599TIP3    H256289   0.794   4.231  16.294  0.1904 -0.4263 -1.3790
11600TIP3   OH256290   3.498   4.180  11.681 -0.0222 -0.3393  0.0731
11600TIP3    H156291   3.535   4.262  11.713 -0.8107 -0.0418  0.2494
11600TIP3    H256292   3.540   4.167  11.596 -1.3142  1.2911 -0.8828
11601TIP3   OH256293   4.612   4.367   6.062  0.6182 -0.5320 -0.3938
11601TIP3    H156294   4.626   4.436   6.127 -0.9470  0.4528 -1.0548
11601TIP3    H256295   4.701   4.342   6.035  1.2324  1.0197  0.0623
11602TIP3   OH256296   1.484   1.278   3.629 -0.0544 -0.1661 -0.1231
11602TIP3    H156297   1.496   1.362   3.585 -0.9401 -0.3682 -0.7901
11602TIP3    H256298   1.487   1.213   3.558  1.6215 -0.8165  0.4965
11603TIP3   OH256299   5.833   5.677   2.304  0.1805  0.1173 -0.3865
11603TIP3    H156300   5.793   5.683   2.391  0.5462 -1.5189 -0.0784
11603TIP3    H256301   5.910   5.733   2.308 -0.1325  0.5163  0.1377
11604TIP3   OH256302   1.894   6.752   0.512 -0.2378 -0.2042  0.2659
11604TIP3    H156303   1.954   6.796   0.572 -0.5130 -0.6513  0.8789
11604TIP3    H256304   1.946   6.683   0.470 -0.2897 -0.5146  0.7085
11605TIP3   OH256305   5.058   4.544  12.323  0.1652  0.0130 -0.1679
11605TIP3    H156306   5.060   4.617  12.385 -0.3691 -0.3366  0.2719
11605TIP3    H256307   5.088   4.581  12.240  0.8513  0.4951  0.2947
11606TIP3   OH256308   6.292   5.862   3.456 -0.0293  0.4595  0.4714
11606TIP3    H156309   6.228   5.791   3.450  0.2189  0.2986 -0.6412
11606TIP3    H256310   6.376   5.817   3.466 -0.0641  0.6658  1.8415
11607TIP3   OH256311   0.291   5.454   3.977  0.2956  0.1150 -0.3007
11607TIP3    H156312   0.245   5.431   3.897 -1.0133  0.7829  0.2420
11607TIP3    H256313   0.287   5.374   4.030  1.0106 -0.2709 -0.8102
11608TIP3   OH256314   5.837   6.770   1.503 -0.4811 -0.3544  0.2208
11608TIP3    H156315   5.773   6.701   1.516 -2.0204  1.1798  1.3213
11608TIP3    H256316   5.788   6.840   1.459  1.2084 -0.2106 -1.5826
11609TIP3   OH256317   2.004   3.031   2.621  0.4581  0.2049 -0.6267
11609TIP3    H156318   2.005   3.124   2.643 -1.9292  0.4202 -1.2612
11609TIP3    H256319   2.090   3.015   2.581  1.2952  1.8674  0.4126
11610TIP3   OH256320   1.139   3.013  12.402 -0.1690 -0.2266 -0.4215
11610TIP3    H156321   1.099   3.096  12.376  1.1986  0.8699  0.7974
11610TIP3    H256322   1.112   3.002  12.493 -1.5400 -1.9204 -0.9757
11611TIP3   OH256323   3.113   1.796   3.902  0.0230 -0.1608  0.3852
11611TIP3    H156324   3.031   1.805   3.951  0.5933 -0.5080  1.4504
11611TIP3    H256325   3.161   1.876   3.921 -1.2967  1.5347 -2.7756
11612TIP3   OH256326   0.219   0.509  15.573 -0.6125  0.3055 -0.8125
11612TIP3    H156327   0.230   0.432  15.628 -0.8950  0.5080 -0.4736
11612TIP3    H256328   0.251   0.582  15.627  0.6045  0.3055 -1.4919
11613TIP3   OH256329   0.115   6.692   1.461  0.2175 -0.1591 -0.0869
11613TIP3    H156330   0.038   6.733   1.421  0.0964 -0.0531  0.2526
11613TIP3    H256331   0.106   6.710   1.555 -0.0954 -1.3552  0.1373
11614TIP3   OH256332   1.590   4.878  15.654 -0.9509 -0.4758  0.2457
11614TIP3    H156333   1.685   4.868  15.663 -1.0996 -1.2629  1.1414
11614TIP3    H256334   1.574   4.870  15.561 -0.0251  0.7472 -0.0468
11615TIP3   OH256335   6.240   1.638   2.379  0.1502 -0.2915  0.2239
11615TIP3    H156336   6.150   1.669   2.372  0.0533 -0.5805  0.2133
11615TIP3    H256337   6.246   1.566   2.317  0.8908  0.8926 -1.1650
11616TIP3   OH256338   5.299   5.369  15.612 -0.1722 -0.1867  0.7636
11616TIP3    H156339   5.237   5.308  15.652 -2.4194  0.1730 -1.8793
11616TIP3    H256340   5.283   5.452  15.656 -0.1631 -0.5424  1.4432
11617TIP3   OH256341   0.024   2.258  12.379  0.2300 -0.3137 -0.0778
11617TIP3    H156342   0.043   2.192  12.446  0.9742 -0.1814 -0.1404
11617TIP3    H256343   0.050   2.217  12.297  0.3213 -0.0945 -0.1603
11618TIP3   OH256344   4.490   1.106   2.227  0.5799  0.1762  0.5684
11618TIP3    H156345   4.441   1.027   2.207 -0.2039  0.4480  1.3747
11618TIP3    H256346   4.574   1.074   2.262  0.8431 -0.2856 -0.4527
11619TIP3   OH256347   5.593   2.171  10.681  0.0318 -0.5193  0.0904
11619TIP3    H156348   5.613   2.241  10.743  1.1156 -0.0513 -0.7425
11619TIP3    H256349   5.499   2.177  10.667  0.0622  0.5699  0.2745
11620TIP3   OH256350   3.301   4.381  16.440 -0.1326  0.0348  0.0491
11620TIP3    H156351   3.368   4.439  16.477 -1.0777  0.4579  1.1763
11620TIP3    H256352   3.304   4.397  16.346  0.7403  0.7064  0.1818
11621TIP3   OH256353   4.300   3.709  12.773  0.2889 -0.0475 -0.5601
11621TIP3    H156354   4.249   3.787  12.752  0.9088  0.3448 -0.6336
11621TIP3    H256355   4.245   3.660  12.833 -1.4540 -1.0858 -2.8686
11622TIP3   OH256356   2.617   2.831  14.880 -0.1598 -1.1237  1.0647
11622TIP3    H156357   2.586   2.842  14.970 -0.8377 -1.1834  0.8450
11622TIP3    H256358   2.633   2.737  14.871  3.3680 -0.7938  2.2093
11623TIP3   OH256359   6.734   1.485   5.787  0.2072 -0.3742 -0.1384
11623TIP3    H156360   6.651   1.514   5.747  0.3072 -1.0972 -0.8987
11623TIP3    H256361   6.801   1.525   5.732  0.3777 -3.4499 -2.4267
11624TIP3   OH256362   1.035   6.162  13.855  0.5444  0.5672  0.1558
11624TIP3    H156363   1.064   6.084  13.902 -0.8415  2.0034  3.7767
11624TIP3    H256364   1.117   6.208  13.833  1.3537 -1.5470 -1.6438
11625TIP3   OH256365   5.231   0.475  16.237  0.1741  0.0274  0.3623
11625TIP3    H156366   5.275   0.561  16.242 -0.3062  0.6515 -3.4032
11625TIP3    H256367   5.150   0.487  16.286  0.0375  1.8211 -0.2200
11626TIP3   OH256368   1.156   1.361  11.425 -0.6315  0.1484 -0.4411
11626TIP3    H156369   1.148   1.407  11.342 -1.2044  2.2575  0.7003
11626TIP3    H256370   1.067   1.332  11.445 -0.1259 -2.4828 -1.6204
11627TIP3   OH256371   3.732   6.286   2.009  0.7903 -1.1186  0.2610
11627TIP3    H156372   3.747   6.226   1.935  2.3955  0.1770 -0.5391
11627TIP3    H256373   3.819   6.320   2.030  0.0624  0.1376  1.3777
11628TIP3   OH256374   2.504   3.359  10.727 -0.3945  0.0139  0.1424
11628TIP3    H156375   2.429   3.413  10.754 -0.2407  0.2001  0.2033
11628TIP3    H256376   2.567   3.422  10.691  0.2389  0.0134  1.2151
11629TIP3   OH256377   5.517   1.483   5.820  0.1558  0.2394 -0.1502
11629TIP3    H156378   5.537   1.430   5.743 -2.4831  0.5603 -1.1720
11629TIP3    H256379   5.461   1.427   5.875 -1.4146  1.3648 -0.5201
11630TIP3   OH256380   0.201   3.048  15.977  0.2831  0.2016  0.4930
11630TIP3    H156381   0.183   3.096  16.057  2.9959  1.3219  0.5328
11630TIP3    H256382   0.295   3.028  15.981  0.1078 -1.4259 -1.5119
11631TIP3   OH256383   6.693   2.328  15.437 -0.0495 -0.1545  0.7420
11631TIP3    H156384   6.654   2.296  15.518  0.5378 -2.0932  0.2931
11631TIP3    H256385   6.696   2.252  15.379 -0.9852  1.3081 -1.3489
11632TIP3   OH256386   3.136   6.446   2.757  0.0476 -0.2455 -0.0324
11632TIP3    H156387   3.049   6.430   2.793  0.2963 -2.1741 -0.1790
11632TIP3    H256388   3.158   6.535   2.784 -1.7087  0.0437  0.5286
11633TIP3   OH256389   5.824   5.390  16.837  0.3458  0.4434  0.1786
11633TIP3    H156390   5.783   5.462  16.885  1.0490 -0.9466  3.0662
11633TIP3    H256391   5.758   5.321  16.836  1.1830 -0.3948  1.3263
11634TIP3   OH256392   3.206   3.821   5.691  0.1840  0.9165  0.5989
11634TIP3    H156393   3.156   3.740   5.677 -1.9046  2.3200 -0.5261
11634TIP3    H256394   3.159   3.867   5.759  0.0982  2.1384 -0.2527
11635TIP3   OH256395   2.052   3.019   4.388 -0.2695  0.3794 -0.2897
11635TIP3    H156396   2.060   3.107   4.350 -0.5698  1.0383  1.0867
11635TIP3    H256397   1.968   3.022   4.436  0.7654  0.1364  1.6472
11636TIP3   OH256398   6.532   5.733  15.861  0.6314 -0.0192  0.5502
11636TIP3    H156399   6.521   5.642  15.889 -1.4644 -0.1486 -0.4753
11636TIP3    H256400   6.601   5.729  15.795 -0.2345 -1.1158 -0.3450
11637TIP3   OH256401   3.011   6.664  11.885 -0.2503  0.7048  0.2892
11637TIP3    H156402   2.966   6.745  11.909 -1.5188  0.3240 -0.6667
11637TIP3    H256403   2.971   6.638  11.802  2.2505  0.6903 -1.0062
11638TIP3   OH256404   4.049   0.974  14.480 -0.4304  0.1268  0.4046
11638TIP3    H156405   3.955   0.989  14.467 -0.4665 -0.1682  0.3346
11638TIP3    H256406   4.088   0.989  14.394 -0.3665  0.6005  0.5111
11639TIP3   OH256407   6.057   4.470   1.091 -0.3350 -0.0245  0.1756
11639TIP3    H156408   6.082   4.483   1.183  1.0142 -0.5785 -0.0878
11639TIP3    H256409   6.134   4.497   1.041 -0.9716  0.0457 -0.7938
11640TIP3   OH256410   5.013   6.116   1.940 -0.5204 -0.3425 -0.1596
11640TIP3    H156411   4.933   6.072   1.970  0.2649 -0.6979  1.5218
11640TIP3    H256412   4.989   6.209   1.940 -1.4075 -0.5463 -1.2622
11641TIP3   OH256413   1.309   1.139   3.060 -0.2758 -0.4628 -0.2563
11641TIP3    H156414   1.264   1.119   3.143 -1.2852 -1.0522 -0.9100
11641TIP3    H256415   1.281   1.228   3.039  0.7241  0.0409  0.4845
11642TIP3   OH256416   0.860   4.068  13.882 -0.0746 -0.2628  0.2371
11642TIP3    H156417   0.929   4.108  13.935 -1.7521  1.9261  0.9521
11642TIP3    H256418   0.849   4.128  13.808 -0.3314 -1.2734 -0.5641
11643TIP3   OH256419   6.729   5.021   3.421 -0.2965  0.2187  0.2628
11643TIP3    H156420   6.712   4.986   3.508  1.3135 -0.5049  0.3241
11643TIP3    H256421   6.649   5.068   3.398 -0.9465 -0.0044  1.9108
11644TIP3   OH256422   6.125   5.167  11.130 -0.4550  0.1463  0.6516
11644TIP3    H156423   6.184   5.091  11.132 -1.0739 -0.3548  2.6361
11644TIP3    H256424   6.183   5.242  11.121  0.2317 -0.5052 -0.6201
11645TIP3   OH256425   5.619   1.576  16.991 -0.5866  0.3445  0.2199
11645TIP3    H156426   5.631   1.627  17.071  0.3401  0.5742 -0.0472
11645TIP3    H256427   5.686   1.508  16.995  0.2887  1.0871 -0.8976
11646TIP3   OH256428   4.182   5.576  16.712  0.0129 -0.0765 -0.9071
11646TIP3    H156429   4.276   5.583  16.701  0.1166 -0.1414 -0.1321
11646TIP3    H256430   4.146   5.650  16.664  0.6868  2.2186  1.8472
11647TIP3   OH256431   3.915   3.150  13.315 -0.1790  0.3947 -0.5074
11647TIP3    H156432   3.879   3.104  13.391 -1.3000  0.4053 -1.0145
11647TIP3    H256433   3.884   3.099  13.240 -0.8973  1.6096 -1.0501
11648TIP3   OH256434   6.067   2.861  10.970 -0.0925 -0.3301  0.2368
11648TIP3    H156435   6.147   2.814  10.944  1.7420  3.3327 -1.5939
11648TIP3    H256436   6.006   2.846  10.898 -0.0215 -0.9207  0.2970
11649TIP3   OH256437   0.827   5.807  14.773 -0.0456 -0.2063  0.0233
11649TIP3    H156438   0.837   5.712  14.768 -0.4041 -0.1775 -1.7519
11649TIP3    H256439   0.898   5.841  14.719 -1.0401  0.4543 -0.9053
11650TIP3   OH256440   1.865   0.351  12.302 -0.2562  0.0576  0.2946
11650TIP3    H156441   1.846   0.425  12.244 -0.4741 -0.3636 -0.1827
11650TIP3    H256442   1.891   0.280  12.243 -0.4638 -0.3729  0.7095
11651TIP3   OH256443   2.379   4.118  16.667  0.1868  0.5087 -0.1018
11651TIP3    H156444   2.451   4.164  16.624  0.2763 -0.1994 -0.7321
11651TIP3    H256445   2.307   4.181  16.665  1.4297  2.1839  2.7807
11652TIP3   OH256446   2.540   5.530   1.728 -0.0812  0.0141 -0.4564
11652TIP3    H156447   2.544   5.437   1.750  1.1558  0.1906  0.1773
11652TIP3    H256448   2.464   5.538   1.671  0.0011 -1.4420 -0.8151
11653TIP3   OH256449   5.804   6.308  14.015 -0.0236 -0.6937 -0.0774
11653TIP3    H156450   5.813   6.294  14.109 -0.5871 -0.6534 -0.0115
11653TIP3    H256451   5.793   6.221  13.978 -0.2964 -0.6780 -0.0412
11654TIP3   OH256452   5.823   6.576   0.921  0.2418  0.3974 -0.3380
11654TIP3    H156453   5.739   6.611   0.949 -0.6088 -0.2274 -1.9423
11654TIP3    H256454   5.863   6.647   0.870  0.4904  0.5268  0.0298
11655TIP3   OH256455   6.170   5.161   3.790 -0.9798 -0.1985 -0.0361
11655TIP3    H156456   6.095   5.188   3.737 -0.3905  1.9918  0.1159
11655TIP3    H256457   6.133   5.143   3.877 -1.5128 -0.6257 -0.3447
11656TIP3   OH256458   3.699   6.019  15.079 -0.0054 -0.3735 -0.0614
11656TIP3    H156459   3.761   5.946  15.078  0.2030 -0.1942 -0.1606
11656TIP3    H256460   3.675   6.031  14.987 -0.6462 -0.8324  0.0426
11657TIP3   OH256461   5.542   0.402  13.683 -0.4278 -0.0069  0.2000
11657TIP3    H156462   5.635   0.423  13.689 -0.7003  1.0915  0.9141
11657TIP3    H256463   5.521   0.410  13.590 -0.0626  0.8617  0.1885
11658TIP3   OH256464   4.131   6.500  11.151  0.0771  0.2208 -0.5809
11658TIP3    H156465   4.066   6.552  11.104 -0.1456 -1.1150 -1.8181
11658TIP3    H256466   4.106   6.409  11.135  0.9811 -0.3003  0.7608
11659TIP3   OH256467   0.915   6.311   2.769  0.0416 -0.5518 -0.6089
11659TIP3    H156468   0.839   6.252   2.766 -0.1050 -0.5325  1.4026
11659TIP3    H256469   0.906   6.357   2.852  1.4781  0.5386 -1.0296
11660TIP3   OH256470   2.006   0.557   4.241  0.0276 -0.7635 -0.0262
11660TIP3    H156471   2.076   0.529   4.301 -1.1261  0.0877  1.8024
11660TIP3    H256472   1.982   0.477   4.194  1.8807 -1.1725 -0.3445
11661TIP3   OH256473   0.969   0.567  16.671 -0.1668  0.1735  0.5330
11661TIP3    H156474   1.014   0.484  16.658  0.5497  0.6096  0.1339
11661TIP3    H256475   1.007   0.602  16.752  1.0336  1.0356 -0.3596
11662TIP3   OH256476   1.343   2.576  13.358 -0.2277 -0.0112  0.1829
11662TIP3    H156477   1.317   2.641  13.424 -1.1425  0.9003 -1.0130
11662TIP3    H256478   1.261   2.554  13.313  0.4181 -0.3654 -0.8436
11663TIP3   OH256479   3.952   5.212   3.263 -0.0593  0.3788 -0.2690
11663TIP3    H156480   3.978   5.120   3.253  1.5400  0.8741 -0.9771
11663TIP3    H256481   4.031   5.256   3.296  0.0440  1.9337 -2.3699
11664TIP3   OH256482   6.221   1.871   0.702 -0.7863  0.1593 -0.4274
11664TIP3    H156483   6.256   1.947   0.747  0.5240 -0.4369 -0.4013
11664TIP3    H256484   6.231   1.891   0.609 -0.2657 -0.0566 -0.4190
11665TIP3   OH256485   2.765   3.154   4.122 -0.0141 -0.2666  0.8892
11665TIP3    H156486   2.725   3.183   4.204 -1.3268  2.4395 -0.5888
11665TIP3    H256487   2.692   3.147   4.060  1.3141  2.4640 -1.2520
11666TIP3   OH256488   6.750   3.435  12.219 -0.2252 -0.5320  0.0785
11666TIP3    H156489   6.829   3.382  12.209  0.5071  0.3692  0.7940
11666TIP3    H256490   6.683   3.389  12.170  0.7193 -1.3962 -0.4326
11667TIP3   OH256491   2.400   1.234  16.252  0.3022 -0.4991  0.3086
11667TIP3    H156492   2.358   1.318  16.272 -1.5133 -1.4802  0.8845
11667TIP3    H256493   2.370   1.213  16.164 -0.1962 -1.0771  0.6129
11668TIP3   OH256494   4.552   4.527  14.617  0.1477  0.1572 -0.7378
11668TIP3    H156495   4.542   4.614  14.579 -1.0377  0.0308 -0.7687
11668TIP3    H256496   4.486   4.524  14.687  2.5003  0.5386  1.6632
11669TIP3   OH256497   0.930   5.841  13.310  0.5489  0.4170 -0.4381
11669TIP3    H156498   0.885   5.865  13.230  0.4395  1.5959 -0.0414
11669TIP3    H256499   1.023   5.852  13.290  0.5501  0.1214 -0.5902
11670TIP3   OH256500   4.694   4.842   4.663  0.1944 -0.4200  0.0339
11670TIP3    H156501   4.695   4.929   4.703 -0.4717 -0.1111 -0.5925
11670TIP3    H256502   4.602   4.816   4.663  0.2687 -0.7128 -0.6329
11671TIP3   OH256503   1.229   5.210   1.305  0.4716 -0.5544  0.3114
11671TIP3    H156504   1.223   5.305   1.320  1.4432 -0.5635  0.8549
11671TIP3    H256505   1.139   5.183   1.289  0.3187  0.6465 -1.0856
11672TIP3   OH256506   3.926   2.354  15.009 -0.3571  0.0356 -0.3046
11672TIP3    H156507   4.016   2.378  14.986 -0.7965  0.7893 -1.3164
11672TIP3    H256508   3.909   2.400  15.092  0.0471  0.2439 -0.3368
11673TIP3   OH256509   2.692   5.451   0.153  0.4564  0.2756 -0.2913
11673TIP3    H156510   2.721   5.374   0.104 -0.7750  0.6350 -1.6608
11673TIP3    H256511   2.754   5.458   0.226  0.9496 -1.6522 -0.4681
11674TIP3   OH256512   6.261   6.149   5.316 -0.3311  1.2102  0.4029
11674TIP3    H156513   6.216   6.136   5.233 -0.3654  1.1278  0.4340
11674TIP3    H256514   6.259   6.244   5.330  0.3153  1.2940 -0.0414
11675TIP3   OH256515   3.484   5.437   6.020 -0.7821  0.3613  0.0827
11675TIP3    H156516   3.548   5.451   6.090  0.8278 -0.3728 -1.1551
11675TIP3    H256517   3.454   5.525   5.997  2.1349  1.1322 -1.3273
11676TIP3   OH256518   6.017   5.572  13.084 -0.5159  0.1223 -0.6471
11676TIP3    H156519   6.075   5.568  13.159  0.0894 -0.5136 -1.1386
11676TIP3    H256520   5.933   5.602  13.120 -0.2157 -0.1023  0.2568
11677TIP3   OH256521   2.662   1.228  16.039  0.1665  0.7394  0.2360
11677TIP3    H156522   2.641   1.227  15.946  0.3667  4.5893 -0.0052
11677TIP3    H256523   2.758   1.219  16.043  0.1226  0.1802  0.1347
11678TIP3   OH256524   1.794   6.246  10.833  0.2720 -0.3368  0.2944
11678TIP3    H156525   1.719   6.198  10.869 -1.2781  2.3111  0.9327
11678TIP3    H256526   1.800   6.217  10.742 -2.1856  0.0052 -0.0511
11679TIP3   OH256527   3.101   1.640  16.422  0.2145 -0.0924 -0.9035
11679TIP3    H156528   3.144   1.596  16.349  1.0753 -0.3694 -0.2519
11679TIP3    H256529   3.017   1.595  16.432 -0.2071  0.3852 -2.1258
11680TIP3   OH256530   6.688   4.227   1.620  0.4034  0.1600  0.1337
11680TIP3    H156531   6.644   4.279   1.553  0.7226 -0.2959 -0.4271
11680TIP3    H256532   6.636   4.148   1.628  1.3222 -0.5699 -0.8253
11681TIP3   OH256533   3.013   2.002   2.299 -0.1001 -0.4309  0.1159
11681TIP3    H156534   3.048   1.928   2.250  2.0272  1.3241 -1.1894
11681TIP3    H256535   2.919   1.988   2.300  0.2874 -3.8229  1.1231
11682TIP3   OH256536   6.801   2.629   5.199 -0.1499 -0.4268  0.3144
11682TIP3    H156537   6.733   2.644   5.265  1.0506  0.1575  1.4661
11682TIP3    H256538   6.853   2.709   5.199 -1.1546  0.3308 -2.6883
11683TIP3   OH256539   0.148   2.891   1.498  0.3377 -0.1391 -0.0980
11683TIP3    H156540   0.104   2.863   1.418  3.8096 -2.1506 -1.5379
11683TIP3    H256541   0.205   2.818   1.521  0.7343  1.0619  3.3048
11684TIP3   OH256542   3.726   4.092  13.630  0.4711 -0.3731 -0.2368
11684TIP3    H156543   3.786   4.099  13.556  0.4915 -0.3748 -0.2203
11684TIP3    H256544   3.685   4.006  13.620 -0.6636  0.2375 -1.1181
11685TIP3   OH256545   6.167   4.215  10.521 -0.5256 -0.7104 -0.4338
11685TIP3    H156546   6.224   4.222  10.597 -1.4601  1.4409  0.1248
11685TIP3    H256547   6.078   4.219  10.557 -1.0049 -0.7451 -1.5627
11686TIP3   OH256548   5.844   3.474  13.927 -0.3477 -0.2134 -0.5450
11686TIP3    H156549   5.881   3.506  13.844 -1.2871  0.6995 -0.6517
11686TIP3    H256550   5.885   3.529  13.994  0.5110 -1.0419 -0.3832
11687TIP3   OH256551   4.099   4.995  16.952 -0.0685 -0.0156  0.4860
11687TIP3    H156552   4.054   4.968  16.872 -0.9478  0.6660  0.7381
11687TIP3    H256553   4.157   5.066  16.925  1.4010 -1.3264  0.0350
11688TIP3   OH256554   3.846   3.269   5.464  0.3059  0.0589  0.4920
11688TIP3    H156555   3.833   3.295   5.555  1.1795 -0.6456  0.8198
11688TIP3    H256556   3.757   3.256   5.430 -0.0139  0.1506  1.2847
11689TIP3   OH256557   2.382   5.499  12.586 -0.5345 -0.1343 -0.0177
11689TIP3    H156558   2.303   5.533  12.543 -0.4041  0.7289  0.4034
11689TIP3    H256559   2.454   5.541  12.539 -0.3039 -1.1114 -0.5655
11690TIP3   OH256560   3.650   2.467   1.676 -0.4110 -0.2199 -0.0970
11690TIP3    H156561   3.623   2.487   1.587  3.1519 -1.2871 -1.6186
11690TIP3    H256562   3.714   2.396   1.667 -0.3483 -0.8202  3.3888
11691TIP3   OH256563   5.220   5.917  16.770  0.3158 -0.2972  0.3260
11691TIP3    H156564   5.207   5.838  16.718  1.9453  0.0019 -0.6070
11691TIP3    H256565   5.184   5.987  16.716  0.8606 -0.1431  0.1553
11692TIP3   OH256566   3.871   5.961   5.341  0.1497  0.0332  0.0140
11692TIP3    H156567   3.949   5.964   5.285  0.5964  1.0573  0.6662
11692TIP3    H256568   3.802   5.998   5.287  0.2370 -0.3264 -0.3571
11693TIP3   OH256569   2.251   1.186  10.402  0.0334  0.5322  0.8008
11693TIP3    H156570   2.265   1.218  10.491 -0.7840 -1.8151  1.8611
11693TIP3    H256571   2.321   1.121  10.389 -0.9477 -0.4896  0.4867
11694TIP3   OH256572   6.516   1.871   1.772  0.4064  0.5171 -0.3325
11694TIP3    H156573   6.516   1.776   1.765  1.8938  0.4729  0.1573
11694TIP3    H256574   6.591   1.892   1.826  0.2239  1.9960 -0.6106
11695TIP3   OH256575   6.669   5.953  12.802  0.0894 -0.8733  0.2999
11695TIP3    H156576   6.684   6.038  12.761  0.5404 -0.8738  0.4590
11695TIP3    H256577   6.604   5.971  12.870 -0.1391 -0.7401  0.0467
11696TIP3   OH256578   0.672   4.736  10.299 -0.3823  0.4282  0.0716
11696TIP3    H156579   0.633   4.739  10.387 -1.6715  0.8108 -0.4921
11696TIP3    H256580   0.609   4.687  10.246  1.9191 -2.7713  0.0434
11697TIP3   OH256581   1.526   0.513  14.932  0.4743  0.2327 -0.0235
11697TIP3    H156582   1.516   0.529  15.026 -0.4666 -1.4392  0.2006
11697TIP3    H256583   1.618   0.490  14.922  0.7602  1.1481  0.3448
11698TIP3   OH256584   3.905   5.238   6.655  0.0491 -0.5537 -0.1665
11698TIP3    H156585   3.884   5.330   6.633  0.3131 -0.9056 -2.1023
11698TIP3    H256586   3.973   5.244   6.722 -0.5243  0.6495  0.3478
11699TIP3   OH256587   4.795   6.808   2.363  0.1708 -0.0397 -0.1076
11699TIP3    H156588   4.803   6.885   2.307 -0.4819 -0.6472 -1.0629
11699TIP3    H256589   4.733   6.751   2.317 -1.7830  0.1719  2.0578
11700TIP3   OH256590   3.046   0.918  11.266 -0.1443 -0.4524 -0.0768
11700TIP3    H156591   3.017   1.004  11.237 -0.9619 -1.2832 -1.8557
11700TIP3    H256592   3.103   0.886  11.196  1.0962 -0.9131  1.0884
11701TIP3   OH256593   5.867   6.783  17.152  0.2307 -0.5264  0.0611
11701TIP3    H156594   5.816   6.715  17.109 -1.3460  0.2062  0.7208
11701TIP3    H256595   5.951   6.740  17.172  0.7041 -1.1700 -2.8077
11702TIP3   OH256596   3.418   1.221  13.800 -0.0024  0.8597 -0.4309
11702TIP3    H156597   3.367   1.301  13.791  1.1599  1.7031  0.1605
11702TIP3    H256598   3.501   1.241  13.757  1.3843  1.0235  2.1204
11703TIP3   OH256599   4.183   1.907   1.401 -0.1824  0.2398  0.3435
11703TIP3    H156600   4.155   1.966   1.331  1.2568 -0.2477 -0.6791
11703TIP3    H256601   4.211   1.965   1.472  1.9766  0.8950 -0.9398
11704TIP3   OH256602   4.325   1.859  15.890  0.3903  0.2264 -0.0706
11704TIP3    H156603   4.270   1.920  15.841  1.5360  1.0622 -0.3565
11704TIP3    H256604   4.413   1.897  15.886  1.1339 -1.4442 -0.2427
11705TIP3   OH256605   5.408   0.155  12.149  0.4883  0.1195  0.3683
11705TIP3    H156606   5.494   0.193  12.130  0.2725  0.9860  0.9945
11705TIP3    H256607   5.347   0.212  12.103  0.1931  0.1715  0.8178
11706TIP3   OH256608   1.774   5.456  13.882 -0.4927  0.5057 -0.5636
11706TIP3    H156609   1.725   5.469  13.964 -0.4481  0.7976 -0.5803
11706TIP3    H256610   1.864   5.479  13.905 -0.3886  0.1098 -0.5704
11707TIP3   OH256611   5.693   0.744   2.422 -0.9358  0.2747 -0.1363
11707TIP3    H156612   5.742   0.805   2.478  0.5275  0.2134 -1.3116
11707TIP3    H256613   5.754   0.719   2.353 -2.2741 -0.6940 -1.0281
11708TIP3   OH256614   1.405   3.154   0.978  0.3502 -0.3465  0.7067
11708TIP3    H156615   1.333   3.103   0.941  0.7305 -0.6660  0.3950
11708TIP3    H256616   1.446   3.095   1.042  0.7936 -0.4393  0.3434
11709TIP3   OH256617   1.765   2.473  12.890  0.0013 -0.6244  0.1219
11709TIP3    H156618   1.849   2.438  12.919  0.3320 -0.5378 -0.7045
11709TIP3    H256619   1.785   2.561  12.860 -0.5690 -0.2401  0.8426
11710TIP3   OH256620   5.079   2.339  13.601  0.2517  0.0085 -0.2530
11710TIP3    H156621   5.112   2.308  13.517  1.6209  0.4757  0.0919
11710TIP3    H256622   5.066   2.259  13.652 -0.7153 -0.2889 -0.9264
11711TIP3   OH256623   1.836   1.249  13.430  0.4764  0.5840  0.2286
11711TIP3    H156624   1.900   1.203  13.485  1.4809  2.6466  0.9208
11711TIP3    H256625   1.830   1.336  13.470 -2.0421  0.7733 -0.4365
11712TIP3   OH256626   3.679   5.684  11.140 -0.0006 -0.4220 -0.4326
11712TIP3    H156627   3.595   5.654  11.174 -0.3462  0.1179 -0.8083
11712TIP3    H256628   3.739   5.674  11.214 -0.7061  0.5671  0.3103
11713TIP3   OH256629   2.609   4.336  13.255 -0.1400 -0.1142 -0.2347
11713TIP3    H156630   2.685   4.387  13.283  0.1911 -1.0841  0.7169
11713TIP3    H256631   2.582   4.377  13.173  0.9483  0.7160 -0.2114
11714TIP3   OH256632   3.352   2.696   3.342  0.8626  0.2140  0.0588
11714TIP3    H156633   3.361   2.791   3.349  1.3757  0.3579 -2.0391
11714TIP3    H256634   3.259   2.680   3.358  0.6124  1.1675 -0.3788
11715TIP3   OH256635   5.994   4.595  11.005 -0.5470  0.0287  0.6544
11715TIP3    H156636   6.032   4.607  10.918 -0.5750 -1.6357  0.3927
11715TIP3    H256637   6.040   4.660  11.060  1.0486 -0.3881 -0.1364
11716TIP3   OH256638   4.548   0.626   4.531 -0.8195 -0.1054  0.4692
11716TIP3    H156639   4.524   0.712   4.497  1.3871  0.2469 -0.3709
11716TIP3    H256640   4.518   0.564   4.464 -1.1663  0.1217  0.4121
11717TIP3   OH256641   6.357   3.156   6.183  1.2037 -0.1383  0.1806
11717TIP3    H156642   6.323   3.081   6.231  2.0479 -0.6062  0.0801
11717TIP3    H256643   6.300   3.164   6.107  1.3794 -0.9660 -0.0436
11718TIP3   OH256644   4.490   0.014   1.180 -0.3603 -0.4089  0.0580
11718TIP3    H156645   4.503   0.028   1.086 -0.0401 -0.2619  0.1252
11718TIP3    H256646   4.577   0.018   1.218 -0.6498  1.7348  0.6541
11719TIP3   OH256647   6.145   6.405  13.657  0.1013 -0.3223  0.0978
11719TIP3    H156648   6.126   6.402  13.751 -0.0195  0.2244  0.0935
11719TIP3    H256649   6.237   6.433  13.652 -0.5064  1.8590  0.0252
11720TIP3   OH256650   3.146   4.172   1.755 -0.2561 -0.4211  0.1522
11720TIP3    H156651   3.063   4.126   1.771 -0.9763  1.2018  1.3308
11720TIP3    H256652   3.170   4.208   1.840 -0.1394  1.9894 -0.8228
11721TIP3   OH256653   0.938   4.005   0.167 -0.5174  0.4205  0.2751
11721TIP3    H156654   0.915   4.042   0.082  0.1386  0.7870  0.2501
11721TIP3    H256655   0.985   3.925   0.146 -2.8039 -1.0209  0.3373
11722TIP3   OH256656   6.191   0.841  11.779 -0.0820 -0.2862  0.1613
11722TIP3    H156657   6.223   0.868  11.693  0.8355 -2.4960 -0.2532
11722TIP3    H256658   6.158   0.922  11.819  2.8384  1.4932 -0.7679
11723TIP3   OH256659   5.874   3.826  15.220  0.3626 -0.7468 -0.1583
11723TIP3    H156660   5.800   3.765  15.230  0.0368 -0.4674 -0.8064
11723TIP3    H256661   5.950   3.769  15.213  0.1475 -1.0560 -0.0422
11724TIP3   OH256662   1.052   4.007  16.452 -0.0022  0.3391  0.0668
11724TIP3    H156663   1.020   4.097  16.441 -1.7545 -0.3915 -1.4949
11724TIP3    H256664   1.124   4.000  16.389  0.1962  0.6636  0.2509
11725TIP3   OH256665   1.229   4.215  10.337 -0.1580  0.2201 -0.3652
11725TIP3    H156666   1.274   4.143  10.293  0.2144 -0.3599  0.8958
11725TIP3    H256667   1.291   4.288  10.332  1.1250 -0.6485  1.5805
11726TIP3   OH256668   1.113   2.372   1.850  0.8038 -0.4105  0.9590
11726TIP3    H156669   1.061   2.367   1.769  1.0103  1.6116  0.6571
11726TIP3    H256670   1.198   2.404   1.822  0.9575  0.0870  1.9506
11727TIP3   OH256671   5.668   2.914   5.345  0.5729 -0.2921 -0.0173
11727TIP3    H156672   5.669   2.819   5.335  1.5458 -0.2002 -0.9818
11727TIP3    H256673   5.758   2.942   5.327  0.2755  0.8192  0.1146
11728TIP3   OH256674   3.806   4.824   6.503 -0.0362  0.6080  0.2677
11728TIP3    H156675   3.735   4.765   6.529 -0.7959  1.4643  0.2106
11728TIP3    H256676   3.763   4.909   6.492  0.9258  1.0428 -0.2335
11729TIP3   OH256677   5.992   1.991   1.498 -0.2779  0.0636  0.1666
11729TIP3    H156678   6.080   2.002   1.534 -0.4496  1.0922  0.3151
11729TIP3    H256679   5.959   2.080   1.488 -1.3960 -0.3096  0.3524
11730TIP3   OH256680   4.012   1.168   0.025 -0.2976  0.1284  0.0662
11730TIP3    H156681   3.930   1.170   0.075 -0.9587 -1.1243 -0.8983
11730TIP3    H256682   3.984   1.168  -0.067  0.7225 -1.3726 -0.2755
11731TIP3   OH256683   1.093   4.891   5.744 -0.1088 -0.4217  0.1940
11731TIP3    H156684   1.142   4.835   5.685 -1.4253 -0.4963 -0.8915
11731TIP3    H256685   1.133   4.978   5.733  1.8112 -1.0354  1.7472
11732TIP3   OH256686   5.605   6.174  16.838 -0.4251 -0.2104 -0.0744
11732TIP3    H156687   5.644   6.253  16.800 -0.3742  0.0112  0.4369
11732TIP3    H256688   5.616   6.107  16.770 -0.4038  0.2018 -0.4814
11733TIP3   OH256689   6.577   2.738  15.667 -0.3551 -0.0477 -0.0252
11733TIP3    H156690   6.589   2.759  15.574 -1.0859 -0.8115 -0.3114
11733TIP3    H256691   6.487   2.706  15.672  0.4678 -2.5168  0.4344
11734TIP3   OH256692   5.694   5.710   4.967  0.0977  0.1505 -0.7724
11734TIP3    H156693   5.737   5.766   4.902  1.2092 -0.7707 -0.8685
11734TIP3    H256694   5.721   5.621   4.943 -0.6077 -0.3181  0.1290
11735TIP3   OH256695   0.838   4.179  14.546 -0.0535  0.8655 -0.2174
11735TIP3    H156696   0.781   4.229  14.605 -1.0957 -0.5953  0.0987
11735TIP3    H256697   0.802   4.195  14.459 -1.5695 -0.7119  0.0591
11736TIP3   OH256698   5.421   0.433   2.622 -0.0544 -0.1700  0.3711
11736TIP3    H156699   5.465   0.518   2.621  0.2794 -0.2992  1.9013
11736TIP3    H256700   5.331   0.452   2.595 -0.1542  0.7953  1.3217
11737TIP3   OH256701   5.413   4.845   3.521  0.1003  0.2006 -0.2913
11737TIP3    H156702   5.485   4.843   3.584 -1.2421 -0.7579  1.3141
11737TIP3    H256703   5.407   4.936   3.493 -0.0041  0.9184  1.9106
11738TIP3   OH256704   6.449   2.433  13.196  0.6148  0.0085 -0.7401
11738TIP3    H156705   6.457   2.528  13.193  0.9538  0.0362  0.4274
11738TIP3    H256706   6.365   2.418  13.241  0.5540 -0.2431 -0.9362
11739TIP3   OH256707   2.390   5.774   5.072  0.4323  0.5257 -0.0172
11739TIP3    H156708   2.320   5.812   5.020 -0.1390 -0.3510  0.0816
11739TIP3    H256709   2.469   5.821   5.046  0.3330 -0.4686 -2.3395
11740TIP3   OH256710   1.963   4.210   0.178 -0.0543  0.3419  0.2206
11740TIP3    H156711   1.998   4.177   0.096  1.6425  1.5593  0.4204
11740TIP3    H256712   2.040   4.237   0.228 -1.1886  1.6523  1.3234
11741TIP3   OH256713   0.610   6.325  15.298 -0.7593 -0.6824 -0.0961
11741TIP3    H156714   0.697   6.350  15.329 -1.6159  0.7884  1.2245
11741TIP3    H256715   0.623   6.304  15.205  0.9283 -0.1142 -0.0190
11742TIP3   OH256716   0.170   2.814   6.005 -0.6049  0.2265  0.2893
11742TIP3    H156717   0.096   2.781   5.955 -0.8293  0.1129  0.6980
11742TIP3    H256718   0.169   2.764   6.086 -2.1350  2.5388  1.8059
11743TIP3   OH256719   2.564   2.161  11.170 -0.1840 -0.4538  0.1721
11743TIP3    H156720   2.537   2.131  11.083 -1.0314  0.2019  0.1927
11743TIP3    H256721   2.609   2.086  11.209 -2.1080 -1.6993  0.1692
11744TIP3   OH256722   2.520   3.495   1.879  1.0870 -0.2624  0.3506
11744TIP3    H156723   2.478   3.426   1.931  0.4173  0.1482  0.3599
11744TIP3    H256724   2.488   3.482   1.790  2.7812 -1.4023 -0.1347
11745TIP3   OH256725   3.503   3.781  16.274  0.5988 -0.1427 -0.1586
11745TIP3    H156726   3.543   3.755  16.191  2.3707  1.4905  0.0996
11745TIP3    H256727   3.551   3.730  16.340  0.5060 -0.0499 -0.0195
11746TIP3   OH256728   6.806   3.874  16.735  0.6747 -0.4891  0.1502
11746TIP3    H156729   6.867   3.899  16.805 -0.2458 -0.3485  0.9254
11746TIP3    H256730   6.761   3.956  16.713  0.3539 -0.7057 -0.0024
11747TIP3   OH256731   2.664   2.751  11.827 -0.8533 -0.2345 -0.5215
11747TIP3    H156732   2.688   2.662  11.854 -0.5695 -0.4983 -1.6133
11747TIP3    H256733   2.621   2.789  11.904 -0.7045 -1.2095  0.0510
11748TIP3   OH256734   2.723   0.373  10.897 -0.3275  0.0926 -0.1656
11748TIP3    H156735   2.784   0.444  10.917  0.6451 -0.5915 -0.6665
11748TIP3    H256736   2.748   0.302  10.955 -0.3155 -0.3699 -0.7245
11749TIP3   OH256737   4.044   5.569  11.850  0.3442  0.0629 -0.1557
11749TIP3    H156738   4.094   5.511  11.908 -2.5384 -0.7717  1.6754
11749TIP3    H256739   4.032   5.517  11.770 -2.1529 -2.0321  1.4335
11750TIP3   OH256740   6.138   2.471   4.330  0.2323 -0.3191 -0.0846
11750TIP3    H156741   6.164   2.482   4.421 -0.1324 -0.1955  0.0077
11750TIP3    H256742   6.218   2.487   4.280 -0.0363  1.8558  0.0885
11751TIP3   OH256743   5.446   3.104  12.995  0.8768  0.2133 -0.2966
11751TIP3    H156744   5.495   3.064  13.067  0.4323 -0.7816 -0.5192
11751TIP3    H256745   5.355   3.098  13.024  0.7398  0.2605 -0.7237
11752TIP3   OH256746   2.321   6.625  15.734 -0.2280 -0.0373  0.2820
11752TIP3    H156747   2.391   6.570  15.699 -1.1454  0.3914 -2.4460
11752TIP3    H256748   2.356   6.714  15.729 -0.6098  0.0898 -0.2050
11753TIP3   OH256749   5.168   5.607  11.325 -0.4364  0.0236  0.0745
11753TIP3    H156750   5.082   5.566  11.317 -0.4218  0.1889 -1.1411
11753TIP3    H256751   5.153   5.682  11.382 -0.4752 -1.5764  2.2618
11754TIP3   OH256752   6.198   3.645  13.902  0.4411  0.0444  0.3343
11754TIP3    H156753   6.188   3.643  13.997 -1.0841 -2.0310  0.1985
11754TIP3    H256754   6.114   3.680  13.871 -0.0391 -1.5730 -0.2906
11755TIP3   OH256755   2.746   0.251   0.665 -0.2403  0.1321 -0.6584
11755TIP3    H156756   2.697   0.169   0.660 -0.2941  0.2361 -2.1527
11755TIP3    H256757   2.689   0.315   0.622  0.0475  0.8401 -0.0084
11756TIP3   OH256758   6.121   5.230   5.517  0.6465 -0.0456 -0.2037
11756TIP3    H156759   6.043   5.174   5.516 -0.0233  0.7726 -3.2042
11756TIP3    H256760   6.090   5.314   5.552  0.6944 -0.2957  0.4641
11757TIP3   OH256761   2.678   2.850  11.414  0.2486  0.0859  0.4388
11757TIP3    H156762   2.691   2.761  11.447  0.5438 -0.3595 -0.7904
11757TIP3    H256763   2.665   2.838  11.320  0.9934  1.3986  0.1395
11758TIP3   OH256764   2.086   0.036   5.322 -0.4794 -0.0893 -0.0454
11758TIP3    H156765   2.116   0.054   5.233 -0.9393  0.2185 -0.1467
11758TIP3    H256766   2.070   0.123   5.360  0.2910 -0.1989  0.5450
11759TIP3   OH256767   2.670   6.356  10.751  0.3799 -0.3837 -0.0850
11759TIP3    H156768   2.608   6.415  10.708  1.2053 -0.0478 -0.8410
11759TIP3    H256769   2.741   6.414  10.782  1.5754 -1.0280 -1.5051
11760TIP3   OH256770   2.909   0.311  14.320  0.1170  0.5915  0.2971
11760TIP3    H156771   2.878   0.400  14.337 -0.6931  0.5103 -0.7035
11760TIP3    H256772   2.925   0.308  14.226  1.5727  0.1107  0.5374
11761TIP3   OH256773   1.859   3.861   0.394 -0.2166 -0.1819 -0.0070
11761TIP3    H156774   1.798   3.822   0.456  1.1370 -0.3339  1.2736
11761TIP3    H256775   1.818   3.944   0.369 -1.4708 -0.7969 -0.0840
11762TIP3   OH256776   4.875   4.946   5.223  0.1249 -0.5233 -0.3668
11762TIP3    H156777   4.823   4.891   5.282 -1.0199  0.1823 -0.6668
11762TIP3    H256778   4.921   4.884   5.166  1.6645 -1.2309  1.5531
11763TIP3   OH256779   3.865   4.727   5.356  0.4881 -0.2195  0.1252
11763TIP3    H156780   3.814   4.793   5.309  0.6373  0.5346  0.9898
11763TIP3    H256781   3.872   4.654   5.294  0.7393  0.7554 -1.0349
11764TIP3   OH256782   5.117   4.123  16.618 -0.0835 -0.4359  0.1896
11764TIP3    H156783   5.148   4.040  16.654  0.6697  0.3552  1.4694
11764TIP3    H256784   5.025   4.127  16.642 -0.0833 -0.8254  0.2651
11765TIP3   OH256785   4.850   5.261  17.003  0.3157  0.6930 -0.1223
11765TIP3    H156786   4.825   5.192  16.941 -1.2572  0.3365  0.8518
11765TIP3    H256787   4.786   5.331  16.988  0.8537  1.2298  0.0689
11766TIP3   OH256788   2.600   2.903  16.095  0.5927  0.7192  0.5969
11766TIP3    H156789   2.630   2.814  16.079  2.1069  1.2768  0.0789
11766TIP3    H256790   2.514   2.893  16.136  0.9696 -0.9750  1.0549
11767TIP3   OH256791   5.321   5.310   0.084 -0.1837  0.3727  0.2588
11767TIP3    H156792   5.385   5.352   0.142  0.2537  1.1611 -0.7544
11767TIP3    H256793   5.314   5.221   0.117  1.5555  0.2137  0.3266
11768TIP3   OH256794   6.700   3.231   2.747 -0.1919 -0.5041 -0.5095
11768TIP3    H156795   6.757   3.169   2.702  0.5883 -0.2963  0.1655
11768TIP3    H256796   6.666   3.183   2.822  2.8339  0.6668  1.8244
11769TIP3   OH256797   3.098   5.528   6.348  0.5278 -0.0587 -0.5833
11769TIP3    H156798   3.155   5.560   6.418  0.2285  1.1907 -0.8918
11769TIP3    H256799   3.128   5.438   6.332  0.1033 -0.6548  1.6587
11770TIP3   OH256800   4.509   6.648  14.344  0.1727 -0.4503  0.2126
11770TIP3    H156801   4.429   6.643  14.291 -0.1725  2.7048  0.2415
11770TIP3    H256802   4.479   6.665  14.433  0.8580 -0.4655  0.4562
11771TIP3   OH256803   5.194   1.850  15.071 -0.1739 -0.3742  0.1264
11771TIP3    H156804   5.257   1.809  15.130  1.3343 -0.4968 -1.4903
11771TIP3    H256805   5.212   1.944  15.078 -0.8946 -0.2748  0.8133
11772TIP3   OH256806   2.400   1.117  13.477 -0.3490  0.6383 -0.0288
11772TIP3    H156807   2.363   1.201  13.450 -0.3753  1.2218  1.7010
11772TIP3    H256808   2.490   1.119  13.446 -0.4374  1.1809 -0.2634
11773TIP3   OH256809   2.586   0.794   1.693 -0.0339  0.6235  0.1016
11773TIP3    H156810   2.536   0.763   1.768 -0.7985  0.6402 -0.3948
11773TIP3    H256811   2.525   0.788   1.619  1.1538 -0.8895 -0.8246
11774TIP3   OH256812   3.384   4.804  11.408 -0.0068  0.6474  0.6117
11774TIP3    H156813   3.292   4.818  11.386  0.4729  1.1447 -1.3420
11774TIP3    H256814   3.404   4.717  11.372  0.4738  0.8724  0.3271
11775TIP3   OH256815   0.887   1.732   3.530 -1.0361  0.4535  0.1982
11775TIP3    H156816   0.935   1.650   3.517 -0.5806  0.8079 -0.4205
11775TIP3    H256817   0.803   1.705   3.566 -0.2871 -0.1636  1.5970
11776TIP3   OH256818   1.531   4.486   4.515 -0.0641  0.5156  0.0591
11776TIP3    H156819   1.614   4.467   4.472 -0.9160  0.3198 -1.5631
11776TIP3    H256820   1.504   4.402   4.552  0.3513  0.5423  0.4406
11777TIP3   OH256821   2.482   2.176   5.623 -0.1231 -0.0547  0.4187
11777TIP3    H156822   2.428   2.251   5.600 -1.7408 -0.8432  1.3628
11777TIP3    H256823   2.509   2.193   5.713 -3.3384 -1.9732  1.9537
11778TIP3   OH256824   1.377   0.204  11.451  0.1226  0.0465  0.0467
11778TIP3    H156825   1.314   0.132  11.452  0.6699 -0.5670 -2.2749
11778TIP3    H256826   1.367   0.247  11.536 -1.2762 -1.8540  0.9064
11779TIP3   OH256827   1.926   2.917  16.844  0.1438 -0.7214  0.0678
11779TIP3    H156828   1.957   2.942  16.931 -2.0143 -1.3314  1.0838
11779TIP3    H256829   1.991   2.953  16.784  1.6885 -0.2655  1.9121
11780TIP3   OH256830   0.650   4.000   4.582  0.1007  0.3277  0.5470
11780TIP3    H156831   0.680   4.091   4.574  2.0982 -0.4039 -1.4133
11780TIP3    H256832   0.569   4.006   4.632 -1.6031  3.5467 -2.1393
11781TIP3   OH256833   2.956   4.071  13.776  0.5712 -0.0331 -0.0645
11781TIP3    H156834   3.035   4.046  13.727  1.7327 -0.6350  1.9916
11781TIP3    H256835   2.983   4.147  13.827 -0.3003 -0.0347  0.4138
11782TIP3   OH256836   0.632   4.800   0.627  0.0062 -0.0195  0.0594
11782TIP3    H156837   0.697   4.760   0.568  0.6926 -0.9160  1.3769
11782TIP3    H256838   0.620   4.888   0.592  0.3750 -0.5155 -1.4270
11783TIP3   OH256839   3.573   2.395   6.196 -0.1832  0.0612  0.5212
11783TIP3    H156840   3.620   2.317   6.168 -1.1704 -0.5773  0.5976
11783TIP3    H256841   3.485   2.384   6.161  0.3682  2.5320 -2.0222
11784TIP3   OH256842   3.533   2.717   3.584  0.2931  0.1607 -0.0638
11784TIP3    H156843   3.495   2.690   3.500  0.4966 -1.1708  0.2384
11784TIP3    H256844   3.481   2.793   3.610  0.2287  0.6081 -1.3862
11785TIP3   OH256845   2.612   0.260  15.086  0.0320 -0.2078  0.5818
11785TIP3    H156846   2.582   0.326  15.149  1.5480  0.7158  0.4051
11785TIP3    H256847   2.702   0.240  15.114  0.2611 -0.7818 -0.4937
11786TIP3   OH256848   0.565   1.919  14.229  0.0480 -0.3640 -0.4841
11786TIP3    H156849   0.593   2.010  14.233 -0.5537 -0.1594 -0.7841
11786TIP3    H256850   0.478   1.919  14.269 -0.0163 -0.7814 -0.6207
11787TIP3   OH256851   5.587   6.429  12.793  0.4108 -0.0118 -0.0881
11787TIP3    H156852   5.620   6.408  12.880  2.1658 -1.7717 -1.1114
11787TIP3    H256853   5.518   6.364  12.777  0.6325 -0.1914 -0.3179
11788TIP3   OH256854   1.927   1.047  14.231  0.2283 -0.2738  0.1823
11788TIP3    H156855   1.995   1.003  14.181 -0.0340  0.0505 -0.4790
11788TIP3    H256856   1.916   0.993  14.310  1.4461 -0.1586  0.4455
11789TIP3   OH256857   4.752   4.719   5.581 -0.3938  0.0214 -0.8949
11789TIP3    H156858   4.750   4.657   5.654 -2.3768 -0.2340 -1.1255
11789TIP3    H256859   4.688   4.786   5.604 -0.4224  0.3970 -2.0069
11790TIP3   OH256860   5.537   2.396  11.738 -0.1371  0.2215  0.3633
11790TIP3    H156861   5.462   2.376  11.794  0.4674 -2.0339  0.4474
11790TIP3    H256862   5.499   2.430  11.657 -1.3097 -1.4123  0.1796
11791TIP3   OH256863   2.638   1.548   1.692  0.1170  0.4139  0.2661
11791TIP3    H156864   2.728   1.516   1.700  0.3139  0.4977 -1.3043
11791TIP3    H256865   2.635   1.591   1.607 -1.7558 -0.7873 -0.3415
11792TIP3   OH256866   6.200   5.836  14.019 -0.0959  0.6099 -0.4178
11792TIP3    H156867   6.129   5.838  14.083  0.5323  0.1170  0.3179
11792TIP3    H256868   6.207   5.745  13.993 -1.7982  1.1105 -2.9085
11793TIP3   OH256869   0.250   2.255   5.621  0.4786  0.6186  0.3526
11793TIP3    H156870   0.283   2.283   5.706 -0.1181  1.1657  0.4156
11793TIP3    H256871   0.154   2.257   5.631  0.4139 -0.7003  0.1096
11794TIP3   OH256872   0.123   1.268  16.053  0.1253 -0.4953 -0.5355
11794TIP3    H156873   0.213   1.262  16.085 -0.2588 -0.4098  0.5988
11794TIP3    H256874   0.090   1.178  16.056 -0.3902 -0.2795  0.7797
11795TIP3   OH256875   2.959   4.774   0.243  0.0720 -0.4743  0.0518
11795TIP3    H156876   2.923   4.728   0.168  0.4136 -2.0670  0.8246
11795TIP3    H256877   2.893   4.764   0.312 -0.2948  1.0718 -0.0304
11796TIP3   OH256878   0.185   6.665   3.526 -0.3159 -0.2859 -0.3666
11796TIP3    H156879   0.219   6.597   3.584 -0.5981 -0.1467 -0.0345
11796TIP3    H256880   0.139   6.618   3.457 -1.0503 -0.4248  0.2007
11797TIP3   OH256881   0.846   3.889   3.013 -0.2164 -0.0403 -0.2474
11797TIP3    H156882   0.877   3.828   3.081 -1.6198 -0.3500  0.1557
11797TIP3    H256883   0.795   3.834   2.954  0.5037  0.3400 -1.2371
11798TIP3   OH256884   4.402   4.789  13.249 -0.1060  0.1882 -0.3728
11798TIP3    H156885   4.308   4.807  13.240  0.1164  1.0476 -1.2221
11798TIP3    H256886   4.424   4.740  13.170 -0.0442 -0.9610  0.3505
11799TIP3   OH256887   4.209   2.576   5.212 -0.1663  0.1073  0.9835
11799TIP3    H156888   4.119   2.602   5.190 -0.6199 -1.2253  1.2176
11799TIP3    H256889   4.209   2.481   5.203  1.8091  0.2279 -1.2175
11800TIP3   OH256890   5.649   5.534   0.908 -0.1879  0.6629 -0.5452
11800TIP3    H156891   5.647   5.451   0.859  2.8645  0.8207 -1.1073
11800TIP3    H256892   5.579   5.586   0.868 -1.6276 -1.2871 -0.7516
11801TIP3   OH256893   4.780   3.585  10.942 -0.0290  0.4046 -0.3449
11801TIP3    H156894   4.736   3.662  10.977  0.4907  0.8860 -0.7552
11801TIP3    H256895   4.778   3.522  11.015 -0.2843  0.8672  0.0524
11802TIP3   OH256896   4.297   5.307  14.241  0.9094 -0.0440  0.4161
11802TIP3    H156897   4.212   5.330  14.279  1.0475 -0.0109  0.7061
11802TIP3    H256898   4.359   5.314  14.314  1.1406 -0.1955  0.2364
11803TIP3   OH256899   2.593   5.960   3.088 -0.0902 -0.4390 -0.1980
11803TIP3    H156900   2.684   5.953   3.117 -0.7106 -0.9355  1.7953
11803TIP3    H256901   2.590   6.040   3.036  1.6683 -0.9090 -1.0817
11804TIP3   OH256902   2.397   6.629  12.897  0.9959  0.8526 -0.5576
11804TIP3    H156903   2.408   6.720  12.925 -0.1645  1.2479 -1.3447
11804TIP3    H256904   2.480   6.587  12.921  1.3419  1.9809  0.3060
11805TIP3   OH256905   0.669   6.010   4.044 -0.7087  0.2408 -0.3174
11805TIP3    H156906   0.732   5.954   4.088 -1.3431 -0.5412 -0.3704
11805TIP3    H256907   0.645   6.076   4.109 -0.1012  0.3308 -0.1846
11806TIP3   OH256908   6.367   1.130  12.814  0.3854  0.5192  0.1929
11806TIP3    H156909   6.440   1.117  12.754 -0.0130  1.6165 -0.5581
11806TIP3    H256910   6.407   1.128  12.901  1.2391  0.6215 -0.1838
11807TIP3   OH256911   5.254   0.009  15.641 -0.3361  0.7180 -0.1065
11807TIP3    H156912   5.174   0.042  15.600  1.3548  1.1487 -3.3577
11807TIP3    H256913   5.304   0.087  15.664  0.6353  0.4974 -1.3716
11808TIP3   OH256914   0.107   3.946  11.154  0.1638  0.3670  0.1690
11808TIP3    H156915   0.076   3.910  11.071  1.2709 -0.4015  0.0708
11808TIP3    H256916   0.106   4.041  11.140 -1.4260  0.3412 -0.0614
11809TIP3   OH256917   3.644   5.102  13.618 -0.0117 -0.0194 -0.3127
11809TIP3    H156918   3.696   5.058  13.685 -0.1698  0.0363 -0.1533
11809TIP3    H256919   3.619   5.031  13.558 -0.0155 -0.0973 -0.2200
11810TIP3   OH256920   4.944   6.095  14.470  0.0868 -0.1880 -0.1225
11810TIP3    H156921   5.005   6.028  14.439 -1.0571 -0.3428 -2.1840
11810TIP3    H256922   4.858   6.056  14.461 -0.5501  1.2125 -0.4362
11811TIP3   OH256923   5.776   1.451  16.094 -0.0248  0.9290  0.2474
11811TIP3    H156924   5.690   1.416  16.073  1.5689 -1.5188 -3.1906
11811TIP3    H256925   5.778   1.538  16.056 -0.2145 -0.0203 -2.0748
11812TIP3   OH256926   3.720   1.549   0.986 -0.1306  0.7305  0.1757
11812TIP3    H156927   3.764   1.478   0.939 -0.7363 -0.7148  1.6908
11812TIP3    H256928   3.649   1.575   0.928  0.7844  0.9163 -0.8990
11813TIP3   OH256929   4.034   3.645   3.544 -0.0132 -0.2038  0.0614
11813TIP3    H156930   4.088   3.672   3.618 -0.1980  0.9174 -0.1924
11813TIP3    H256931   4.096   3.629   3.473  0.1392 -0.9660  0.3640
11814TIP3   OH256932   3.470   2.131  11.529 -0.0999 -0.1427 -0.0883
11814TIP3    H156933   3.512   2.166  11.450 -1.5639  0.0567 -0.8066
11814TIP3    H256934   3.520   2.051  11.549  0.5616  0.0332 -0.9684
11815TIP3   OH256935   6.289   2.890   2.353 -0.0324 -0.0648  0.0295
11815TIP3    H156936   6.250   2.919   2.435  0.0943  2.5833 -0.7328
11815TIP3    H256937   6.266   2.959   2.291  2.6890 -0.2906 -1.3568
11816TIP3   OH256938   1.288   5.195   0.744 -0.0359  0.6083  0.3621
11816TIP3    H156939   1.234   5.235   0.813 -0.6637 -0.5725  0.5851
11816TIP3    H256940   1.239   5.117   0.718  0.9234  0.2425 -0.3951
11817TIP3   OH256941   5.146   1.684   0.696 -0.6645  0.3951 -0.6512
11817TIP3    H156942   5.061   1.660   0.733 -0.4485  0.0935 -0.3409
11817TIP3    H256943   5.204   1.688   0.772 -0.6948  1.9584 -0.6615
11818TIP3   OH256944   3.737   3.372  14.567 -0.3036  0.6521 -0.6890
11818TIP3    H156945   3.666   3.316  14.536 -0.4608  0.0981  0.5858
11818TIP3    H256946   3.805   3.364  14.500 -0.2715 -1.1776 -0.4983
11819TIP3   OH256947   4.818   0.568   5.240  0.4641 -0.7740 -0.3030
11819TIP3    H156948   4.782   0.653   5.266  2.5668  0.2168 -0.4593
11819TIP3    H256949   4.885   0.588   5.176 -0.2346 -2.7341 -1.7647
11820TIP3   OH256950   6.632   3.394   1.126 -0.5020  0.2797  0.8659
11820TIP3    H156951   6.631   3.486   1.100 -0.9890 -0.3880 -1.7611
11820TIP3    H256952   6.721   3.364   1.106 -0.6816 -0.0891  0.6109
11821TIP3   OH256953   4.916   0.264   1.375 -0.7012  0.0556  0.4207
11821TIP3    H156954   4.883   0.288   1.289  0.4669 -3.5419 -1.2674
11821TIP3    H256955   5.011   0.267   1.366 -0.4730  2.0916  2.5098
11822TIP3   OH256956   6.676   4.675  11.151 -0.7681  0.0681  0.1889
11822TIP3    H156957   6.642   4.586  11.154  2.0467 -1.1649 -0.9613
11822TIP3    H256958   6.754   4.673  11.207  0.9570  0.9175 -1.9924
11823TIP3   OH256959   5.553   1.577  11.962 -0.1006 -0.1174 -0.5499
11823TIP3    H156960   5.519   1.614  11.880 -1.5862  0.1662  0.1575
11823TIP3    H256961   5.581   1.488  11.938  1.5540  0.6815 -1.8168
11824TIP3   OH256962   4.938   3.620   2.502  0.4306 -0.0149  0.7331
11824TIP3    H156963   5.026   3.585   2.517  1.3183  1.6381 -0.2571
11824TIP3    H256964   4.883   3.575   2.565  2.0073 -1.0339  1.4474
11825TIP3   OH256965   1.552   6.600  15.757  0.1883  0.5624  0.2501
11825TIP3    H156966   1.499   6.520  15.751  0.5069  0.3066  0.7252
11825TIP3    H256967   1.593   6.608  15.671  2.6973 -1.5926  1.1144
11826TIP3   OH256968   4.140   4.461   5.029 -0.4733 -0.2445  0.5255
11826TIP3    H156969   4.136   4.437   4.937 -1.2579  3.1172 -0.4620
11826TIP3    H256970   4.231   4.446   5.055 -0.2012 -1.0440 -0.8296
11827TIP3   OH256971   0.854   5.762   4.126  0.5153 -0.7340  0.0677
11827TIP3    H156972   0.915   5.764   4.200 -0.0911  0.7408  0.5566
11827TIP3    H256973   0.909   5.780   4.049  0.6918  0.9028  0.5358
11828TIP3   OH256974   0.397   1.494   1.025  0.8051 -0.3387  0.6336
11828TIP3    H156975   0.451   1.458   1.096  0.1171  1.3817  2.0845
11828TIP3    H256976   0.314   1.516   1.066  0.1988  0.2434 -0.8355
11829TIP3   OH256977   1.615   4.974   0.586 -0.3806 -0.1970 -0.3962
11829TIP3    H156978   1.564   4.897   0.611  0.5864 -0.6365  0.2592
11829TIP3    H256979   1.660   4.948   0.505 -0.0531 -0.3200 -0.1742
11830TIP3   OH256980   5.202   5.553  13.240 -0.5690  0.0507 -0.1501
11830TIP3    H156981   5.189   5.585  13.150 -0.2795 -0.2584 -0.3034
11830TIP3    H256982   5.142   5.605  13.293 -1.2942 -0.2686 -0.6326
11831TIP3   OH256983   1.084   6.071   5.576  0.5418  0.0428 -0.2265
11831TIP3    H156984   1.003   6.022   5.587  0.3102  0.7313  1.5583
11831TIP3    H256985   1.081   6.103   5.486 -0.9246 -0.3709 -0.3467
11832TIP3   OH256986   1.703   6.329  15.741  0.5118 -0.5640  0.0391
11832TIP3    H156987   1.723   6.410  15.694 -0.2282 -0.9320 -0.9228
11832TIP3    H256988   1.666   6.358  15.824  0.5950  0.0890 -0.1469
11833TIP3   OH256989   5.694   1.339  11.945 -0.2089  0.3598 -0.3307
11833TIP3    H156990   5.775   1.291  11.928 -1.0717 -0.5154 -2.2426
11833TIP3    H256991   5.650   1.290  12.014  1.3930  1.5446  1.6603
11834TIP3   OH256992   2.888   3.482   2.010  0.2679  0.3365  0.0409
11834TIP3    H156993   2.831   3.410   1.982  1.8239 -0.3778 -1.4633
11834TIP3    H256994   2.902   3.534   1.931 -1.4554  2.8460  1.2536
11835TIP3   OH256995   0.548   4.975   3.194 -0.0196 -0.1800  0.3447
11835TIP3    H156996   0.588   4.999   3.110  1.8254 -3.4098  0.1321
11835TIP3    H256997   0.610   5.008   3.260  0.8529 -1.4636  0.1962
11836TIP3   OH256998   0.021   2.064   0.709  0.1147  0.1807  0.0740
11836TIP3    H156999  -0.060   2.033   0.669  0.4253 -0.0577 -0.3678
11836TIP3    H257000   0.031   2.010   0.788 -0.0719  0.1077  0.0485
11837TIP3   OH257001   1.004   3.487  11.249 -0.1541  0.0768 -0.3862
11837TIP3    H157002   0.939   3.522  11.189 -0.4758 -0.6335 -0.4673
11837TIP3    H257003   1.087   3.494  11.202 -0.3039  0.1718 -0.6361
11838TIP3   OH257004   5.275   3.259   2.265 -0.1370  0.0038 -0.0263
11838TIP3    H157005   5.203   3.234   2.322  0.0293  0.9597  0.6254
11838TIP3    H257006   5.324   3.178   2.251 -0.7489 -0.4423  0.3606
11839TIP3   OH257007   2.694   0.877  12.710 -0.5211  0.1840  0.7809
11839TIP3    H157008   2.605   0.863  12.740 -0.2102  0.9265  2.1092
11839TIP3    H257009   2.689   0.957  12.657 -0.7698 -0.2062  0.2036
11840TIP3   OH257010   3.139   5.425   6.012  0.4429 -0.5383  0.1509
11840TIP3    H157011   3.166   5.411   6.103 -0.1782 -2.2126  0.0947
11840TIP3    H257012   3.207   5.382   5.960 -0.9737 -2.6746 -0.0496
11841TIP3   OH257013   2.694   1.637  14.548  0.7074 -0.2734 -0.1142
11841TIP3    H157014   2.722   1.654  14.459  1.6993  0.0837  0.2529
11841TIP3    H257015   2.743   1.558  14.574  0.9362  0.0104  0.3327
11842TIP3   OH257016   3.521   4.518   1.297 -0.6496 -0.3115 -0.3186
11842TIP3    H157017   3.456   4.504   1.228 -0.4141  1.4294 -0.9342
11842TIP3    H257018   3.482   4.477   1.374 -1.3713 -1.4167 -1.2339
11843TIP3   OH257019   2.376   0.776   5.658 -0.0117  1.0536 -0.5854
11843TIP3    H157020   2.300   0.763   5.601 -1.2283  0.3063  1.1157
11843TIP3    H257021   2.422   0.692   5.657 -0.6586  0.6679  0.3506
11844TIP3   OH257022   0.457   2.496  12.850 -0.0405  0.0071 -0.5747
11844TIP3    H157023   0.385   2.452  12.806  0.6887 -1.3398 -0.4752
11844TIP3    H257024   0.535   2.468  12.801  0.4137  1.6591 -0.8695
11845TIP3   OH257025   4.311   2.387   2.266 -0.5560 -0.5312  0.6926
11845TIP3    H157026   4.296   2.394   2.172 -0.4249 -1.0881  0.6273
11845TIP3    H257027   4.256   2.455   2.305 -2.0108 -1.4929  0.3462
11846TIP3   OH257028   0.332   5.993   2.914  0.8612 -0.2058  0.4007
11846TIP3    H157029   0.243   5.967   2.892  1.1580 -1.2167  0.3573
11846TIP3    H257030   0.369   6.025   2.831  0.6923 -0.2391  0.3119
11847TIP3   OH257031   0.993   1.223  16.662 -0.1261  0.0189  0.3562
11847TIP3    H157032   0.993   1.145  16.717 -0.2644 -0.2181  0.0216
11847TIP3    H257033   1.083   1.255  16.667 -0.5148  0.9630  2.0637
11848TIP3   OH257034   6.406   2.120  17.003  0.2275 -0.4486 -0.2036
11848TIP3    H157035   6.378   2.210  16.988  2.8060  0.6433  0.9276
11848TIP3    H257036   6.428   2.087  16.916  0.8568  0.6428 -0.4849
11849TIP3   OH257037   5.249   6.425  14.206 -0.3054 -0.0119  0.4306
11849TIP3    H157038   5.304   6.348  14.191 -3.0710 -1.8700 -1.0464
11849TIP3    H257039   5.168   6.406  14.158 -1.5594  3.3470  0.9804
11850TIP3   OH257040   3.636   0.974  16.179 -0.6806 -0.1683  0.6300
11850TIP3    H157041   3.715   0.966  16.127 -0.8650 -0.4489  0.3846
11850TIP3    H257042   3.655   1.044  16.242 -0.4400  0.1456  0.2145
11851TIP3   OH257043   1.114   4.471   0.401 -0.1958  1.1931 -0.2145
11851TIP3    H157044   1.121   4.491   0.308 -1.0100 -0.2831 -0.6253
11851TIP3    H257045   1.142   4.380   0.408  0.1632  1.3828  1.0439
11852TIP3   OH257046   0.253   5.741  15.123 -0.0346  0.3148 -0.2897
11852TIP3    H157047   0.313   5.796  15.072 -0.6681  0.4140 -0.9450
11852TIP3    H257048   0.278   5.651  15.101  1.0978  0.3041  0.8930
11853TIP3   OH257049   5.574   4.690  14.157 -0.0924  0.4710 -0.4519
11853TIP3    H157050   5.567   4.610  14.210  2.8321  0.3227 -0.1216
11853TIP3    H257051   5.558   4.761  14.219  1.6901  0.2397  0.3277
11854TIP3   OH257052   0.100   2.530   2.223  0.1270  0.2948  0.1011
11854TIP3    H157053   0.182   2.550   2.177  0.0779  0.6388  0.1664
11854TIP3    H257054   0.053   2.613   2.226 -0.9147 -0.2109 -1.2915
11855TIP3   OH257055   5.605   2.700  11.633 -0.2797  0.0299  0.4192
11855TIP3    H157056   5.621   2.658  11.548  1.5018 -1.4314  1.4005
11855TIP3    H257057   5.511   2.688  11.648 -0.1406 -2.1416 -0.1418
11856TIP3   OH257058   2.709   6.680   2.753 -0.1868  0.0209  0.2094
11856TIP3    H157059   2.635   6.622   2.734  0.7481 -1.1324 -0.0636
11856TIP3    H257060   2.746   6.645   2.834  0.9277 -0.3316 -0.4353
11857TIP3   OH257061   4.701   0.987   2.375  0.5198  0.2752  0.0934
11857TIP3    H157062   4.660   0.904   2.349  0.3112  0.2135  0.5967
11857TIP3    H257063   4.795   0.971   2.364  0.4898 -0.0794  0.3061
11858TIP3   OH257064   2.780   5.129   5.279  0.1867  0.2823  0.8335
11858TIP3    H157065   2.849   5.186   5.245 -0.4504  0.9522  0.6578
11858TIP3    H257066   2.781   5.053   5.219  0.9515  0.1494  1.0003
11859TIP3   OH257067   2.696   1.527   2.684 -0.3355  0.4517  0.2135
11859TIP3    H157068   2.768   1.506   2.744 -1.1297 -2.2389  0.3532
11859TIP3    H257069   2.731   1.596   2.628  1.6835  0.5362  1.4691
11860TIP3   OH257070   2.708   1.776  16.575 -0.0746  0.1101  0.3537
11860TIP3    H157071   2.618   1.799  16.552  0.0503  1.1065  0.8293
11860TIP3    H257072   2.762   1.843  16.534  0.3155  0.5329  1.5343
11861TIP3   OH257073   4.142   5.583   3.873  0.3669  0.2295  0.2572
11861TIP3    H157074   4.062   5.578   3.822  0.4962  2.3391 -0.2896
11861TIP3    H257075   4.113   5.599   3.963  0.1473 -3.1709  0.9195
11862TIP3   OH257076   1.977   3.993   2.542 -0.6871  0.2818  0.2379
11862TIP3    H157077   2.020   3.975   2.458 -0.2052 -1.2196  0.7825
11862TIP3    H257078   1.955   3.907   2.577 -2.5781  0.9483  0.8140
11863TIP3   OH257079   3.711   2.658   2.458  0.0960 -0.0026 -0.1135
11863TIP3    H157080   3.777   2.667   2.390  0.6598  0.0212  0.4215
11863TIP3    H257081   3.737   2.580   2.507 -0.6295 -0.3580 -0.2752
11864TIP3   OH257082   0.120   5.532   2.668 -0.4011  0.6507 -0.5884
11864TIP3    H157083   0.099   5.618   2.631  0.7791  1.1013 -0.2827
11864TIP3    H257084   0.216   5.527   2.661 -0.5212 -1.0434 -1.4629
11865TIP3   OH257085   0.177   0.592  14.116  0.4999 -0.2703 -0.0869
11865TIP3    H157086   0.196   0.541  14.037  1.5657  1.2402 -0.8813
11865TIP3    H257087   0.142   0.675  14.082 -0.0358 -0.0106  1.0816
11866TIP3   OH257088   4.137   2.751  14.123 -0.2032 -0.3865  0.0707
11866TIP3    H157089   4.141   2.823  14.186  0.2719 -0.2825 -0.0755
11866TIP3    H257090   4.087   2.683  14.168 -0.9482  0.1532  0.0829
11867TIP3   OH257091   0.998   2.337   3.392 -0.7848 -0.0416  0.1064
11867TIP3    H157092   0.958   2.250   3.385 -0.1522 -0.2856 -0.6599
11867TIP3    H257093   1.092   2.320   3.388 -0.6377  0.6510  0.4186
11868TIP3   OH257094   4.807   5.193   0.402  0.0602 -0.3303 -0.0872
11868TIP3    H157095   4.744   5.204   0.331  0.3047 -0.0802 -0.2687
11868TIP3    H257096   4.874   5.259   0.385  0.2053 -0.3791  0.2842
11869TIP3   OH257097   0.868   6.569  15.609 -0.3580 -0.5744 -0.9765
11869TIP3    H157098   0.928   6.632  15.571  0.1146 -1.6140 -2.0005
11869TIP3    H257099   0.782   6.612  15.608  0.1789  0.5317 -0.4246
11870TIP3   OH257100   5.997   5.898   3.931 -0.2757  0.0475  0.1924
11870TIP3    H157101   6.044   5.892   3.848  0.7764  0.0312  0.7759
11870TIP3    H257102   5.916   5.850   3.915  0.2378 -0.6003 -0.6067
11871TIP3   OH257103   6.463   2.262   0.714  0.0263 -0.1039 -0.3556
11871TIP3    H157104   6.528   2.246   0.782  0.3697 -0.9637 -0.8687
11871TIP3    H257105   6.385   2.214   0.744  0.0306 -0.0983 -0.3355
11872TIP3   OH257106   4.328   4.170  16.640  0.5220 -0.0512  0.4332
11872TIP3    H157107   4.256   4.128  16.593 -0.2937  1.5066  0.2222
11872TIP3    H257108   4.355   4.106  16.706 -1.0660 -0.6630  0.5195
11873TIP3   OH257109   0.272   0.920  12.525  0.3300  0.4785  0.2130
11873TIP3    H157110   0.312   0.870  12.596 -0.9396  0.5001  0.9715
11873TIP3    H257111   0.346   0.964  12.482  1.2972 -0.8209  0.4884
11874TIP3   OH257112   1.583   2.804  15.631  0.6655 -0.7372 -0.1887
11874TIP3    H157113   1.541   2.794  15.546 -0.4416  0.8566  0.1323
11874TIP3    H257114   1.626   2.890  15.627 -0.7236  0.0979  1.3630
11875TIP3   OH257115   2.917   1.683  15.193  0.5912  0.4424  0.4012
11875TIP3    H157116   2.947   1.709  15.107 -0.1698 -1.6881 -0.5795
11875TIP3    H257117   2.833   1.729  15.204 -0.1901 -0.6262 -0.8014
11876TIP3   OH257118   0.140   1.728  12.404 -0.4882 -0.5929 -0.1015
11876TIP3    H157119   0.234   1.747  12.407 -0.6194  0.0203  0.1881
11876TIP3    H257120   0.116   1.742  12.312 -0.6240  0.9002  0.1387
11877TIP3   OH257121   4.467   3.205  16.272 -0.1196 -0.0772  0.9853
11877TIP3    H157122   4.434   3.137  16.214 -0.5906  1.9790 -1.3373
11877TIP3    H257123   4.560   3.185  16.282  0.1501 -0.1316 -1.1322
11878TIP3   OH257124   4.736   2.590   3.118  0.0525 -0.5384 -0.4382
11878TIP3    H157125   4.711   2.672   3.160 -0.1406 -1.4515  1.3139
11878TIP3    H257126   4.771   2.535   3.189  0.7324 -1.7709 -1.6534
11879TIP3   OH257127   0.357   6.765  10.761 -0.2781  0.0256  0.0914
11879TIP3    H157128   0.278   6.766  10.816  0.6585  0.1503  1.4866
11879TIP3    H257129   0.344   6.691  10.702 -1.5375  0.1711  0.1586
11880TIP3   OH257130   0.079   2.499  14.615 -0.2803  0.7369  0.1663
11880TIP3    H157131   0.106   2.521  14.704 -1.5089 -1.0472  1.0536
11880TIP3    H257132   0.161   2.496  14.565  0.3102  3.0839  0.8594
11881TIP3   OH257133   3.815   4.625   2.494 -0.1254 -0.3958 -0.7778
11881TIP3    H157134   3.904   4.653   2.472 -0.0982 -0.6200 -0.9540
11881TIP3    H257135   3.826   4.538   2.532 -0.2290 -0.2492 -0.4053
11882TIP3   OH257136   1.588   1.677   1.501  0.3098 -0.2123 -0.5405
11882TIP3    H157137   1.524   1.735   1.460 -0.8118  0.0564  1.4438
11882TIP3    H257138   1.657   1.735   1.533  0.2556 -0.2055 -0.4342
11883TIP3   OH257139   3.588   1.795  14.600 -0.1597 -0.4314 -0.1218
11883TIP3    H157140   3.508   1.825  14.643 -1.1515  0.2998 -2.3255
11883TIP3    H257141   3.632   1.875  14.572  0.4470 -0.8814 -0.4902
11884TIP3   OH257142   6.123   2.193   3.689  0.1922  0.1770 -0.1266
11884TIP3    H157143   6.184   2.142   3.635 -0.8744  0.6182 -1.8504
11884TIP3    H257144   6.104   2.136   3.764  0.8873 -0.9393 -0.7598
11885TIP3   OH257145   4.271   4.845  12.176 -0.1180  0.4629 -0.9763
11885TIP3    H157146   4.250   4.805  12.091  0.0362 -1.3453 -0.2197
11885TIP3    H257147   4.360   4.815  12.195 -0.6449 -0.3172  0.4235
11886TIP3   OH257148   5.328   3.724   5.414 -0.1030  0.1504 -0.5382
11886TIP3    H157149   5.283   3.804   5.386 -0.6770  0.0282  0.0079
11886TIP3    H257150   5.258   3.660   5.426  0.1330  0.1355  0.9618
11887TIP3   OH257151   2.136   3.821   3.479  0.4406  0.0362 -0.3605
11887TIP3    H157152   2.083   3.829   3.559  2.4450  1.5392  0.9327
11887TIP3    H257153   2.145   3.727   3.465  0.3690 -0.2754  1.4457
11888TIP3   OH257154   4.290   1.508   2.149  0.4435 -0.6498  0.9849
11888TIP3    H157155   4.349   1.453   2.201  0.2696  0.5035  2.4747
11888TIP3    H257156   4.348   1.566   2.100  0.6733  1.5672  3.6347
11889TIP3   OH257157   3.061   4.105  11.371  0.4592  0.3482  0.0152
11889TIP3    H157158   3.140   4.063  11.407 -1.2091 -0.5076  3.0770
11889TIP3    H257159   3.022   4.038  11.316 -0.2591 -0.8926  1.9220
11890TIP3   OH257160   4.376   0.862  12.704 -0.6262  0.3469 -0.0160
11890TIP3    H157161   4.322   0.867  12.625  0.1711  0.0836 -0.5991
11890TIP3    H257162   4.325   0.810  12.766 -0.7807 -0.4289 -0.7771
11891TIP3   OH257163   0.618   0.736  15.934 -0.0990  0.0485 -0.7680
11891TIP3    H157164   0.679   0.803  15.905  0.4344 -0.0206  0.1575
11891TIP3    H257165   0.614   0.673  15.861  1.0382 -0.0204 -0.7803
11892TIP3   OH257166   3.167   0.550  14.795 -0.3901 -0.5775  0.1830
11892TIP3    H157167   3.246   0.548  14.742 -1.0605 -1.7912 -0.8035
11892TIP3    H257168   3.199   0.550  14.886  0.7334 -0.0807 -0.1949
11893TIP3   OH257169   4.124   0.377  11.147  0.4029 -0.4522  0.1255
11893TIP3    H157170   4.072   0.334  11.215  0.8040  0.1233  0.8124
11893TIP3    H257171   4.209   0.391  11.187  0.4068  0.6103 -0.2225
11894TIP3   OH257172   6.134   1.076  15.385 -0.1461 -0.0791 -0.3708
11894TIP3    H157173   6.152   1.169  15.375  0.5054 -0.1587 -0.0080
11894TIP3    H257174   6.082   1.069  15.465  2.3646 -0.2802  1.3576
11895TIP3   OH257175   5.046   0.841   6.812 -0.6963  0.1531 -0.0849
11895TIP3    H157176   4.979   0.892   6.857 -0.5663  0.4751 -0.2509
11895TIP3    H257177   5.003   0.759   6.788 -0.9151  0.1968  0.1604
11896TIP3   OH257178   0.649   1.424   5.718 -0.0858 -0.3292  0.1419
11896TIP3    H157179   0.612   1.487   5.656 -2.0212 -1.1340  0.4107
11896TIP3    H257180   0.742   1.421   5.696  0.1109  2.6608  0.1868
11897TIP3   OH257181   5.896   1.649  16.898 -0.0363  0.3664  0.2526
11897TIP3    H157182   5.841   1.728  16.893  0.7947  0.8879 -1.3703
11897TIP3    H257183   5.857   1.597  16.968 -1.4843  1.5563  0.3831
11898TIP3   OH257184   2.316   6.154   4.291  0.0025  0.1333 -0.1138
11898TIP3    H157185   2.225   6.143   4.264 -0.7721  2.0599  1.5054
11898TIP3    H257186   2.323   6.108   4.374  1.1830 -1.9230 -1.2518
11899TIP3   OH257187   2.199   3.059   1.956 -0.4053  0.4228  0.0444
11899TIP3    H157188   2.109   3.065   1.987 -0.2905 -1.6929  0.9586
11899TIP3    H257189   2.249   3.027   2.031  1.2217  1.9358 -0.3134
11900TIP3   OH257190   2.629   5.754   0.812  0.1029  0.0822  0.2111
11900TIP3    H157191   2.655   5.686   0.873  0.0725 -0.5263 -0.4392
11900TIP3    H257192   2.677   5.734   0.731  0.6388  1.2430  0.2272
11901TIP3   OH257193   6.113   3.702  12.168  0.2215 -0.1185  0.3391
11901TIP3    H157194   6.204   3.677  12.152  0.5389  0.0894  1.6746
11901TIP3    H257195   6.116   3.751  12.250 -1.1805 -0.5751  0.6852
11902TIP3   OH257196   6.682   6.676   4.988  0.6377  0.8727  0.2592
11902TIP3    H157197   6.754   6.616   4.968  0.9068  1.0066  0.8152
11902TIP3    H257198   6.614   6.619   5.024  0.7877  0.8638  0.5288
11903TIP3   OH257199   0.236   5.300   2.531  0.1836 -0.0617 -0.3193
11903TIP3    H157200   0.280   5.252   2.601 -0.5994 -1.0378 -0.4733
11903TIP3    H257201   0.170   5.353   2.577 -0.7032 -1.1160 -0.3304
11904TIP3   OH257202   0.103   3.420   3.626 -0.3559  1.0547 -0.6265
11904TIP3    H157203   0.084   3.340   3.577 -0.4789  0.9786 -0.4583
11904TIP3    H257204   0.134   3.482   3.560  0.4008  0.6503 -0.6571
11905TIP3   OH257205   3.694   3.537  12.430 -0.1442  0.0008  0.0389
11905TIP3    H157206   3.764   3.579  12.380 -1.3781 -0.2156 -1.9500
11905TIP3    H257207   3.643   3.610  12.465 -0.5388  0.1781 -0.8809
11906TIP3   OH257208   2.967   6.102  11.831 -0.5052 -0.5987 -0.4588
11906TIP3    H157209   2.872   6.109  11.826 -0.4258  0.5085 -0.6662
11906TIP3    H257210   2.985   6.082  11.923 -0.9368 -0.8027 -0.4177
11907TIP3   OH257211   4.589   2.529  14.332  0.0116 -0.2654  0.5549
11907TIP3    H157212   4.519   2.475  14.369 -0.2527 -0.1330  0.2522
11907TIP3    H257213   4.628   2.473  14.264  0.7751 -0.6708  1.3092
11908TIP3   OH257214   3.017   2.870  12.226 -0.2104 -0.2416  0.3454
11908TIP3    H157215   2.995   2.953  12.184 -0.6641  0.4274  1.8385
11908TIP3    H257216   2.991   2.882  12.317 -0.0753 -1.9533  0.6376
11909TIP3   OH257217   5.352   0.401  15.777  0.2888  0.4131 -0.2199
11909TIP3    H157218   5.320   0.465  15.714  2.0726  1.1608 -0.4292
11909TIP3    H257219   5.447   0.400  15.764  0.3915 -1.7007  0.3423
11910TIP3   OH257220   6.565   0.590   3.992 -0.3599 -0.1849  0.7321
11910TIP3    H157221   6.528   0.597   3.904 -2.2005 -0.2757  1.4733
11910TIP3    H257222   6.588   0.498   4.002  0.0232 -0.1418  0.3067
11911TIP3   OH257223   1.730   6.187   4.752 -0.1319  0.0391  0.3782
11911TIP3    H157224   1.636   6.200   4.760 -0.2873 -0.0557 -1.0304
11911TIP3    H257225   1.768   6.242   4.820 -1.1632  0.8316  0.3326
11912TIP3   OH257226   2.055   3.683   2.241 -0.2556 -0.2511  0.1262
11912TIP3    H157227   2.095   3.608   2.286  0.9486 -0.1633 -0.7414
11912TIP3    H257228   2.044   3.653   2.150 -0.4275  0.3751 -0.0615
11913TIP3   OH257229   1.795   4.425   5.138  0.1064 -0.1316 -0.2405
11913TIP3    H157230   1.713   4.437   5.186  0.4162  1.4155 -0.0494
11913TIP3    H257231   1.778   4.352   5.079 -0.6102 -1.4508  1.4969
11914TIP3   OH257232   1.621   6.309   5.503  0.1163 -0.1595 -0.0368
11914TIP3    H157233   1.617   6.403   5.519 -0.1567 -0.1675 -0.0535
11914TIP3    H257234   1.642   6.272   5.589  1.8070  0.0216 -0.3272
11915TIP3   OH257235   3.724   1.346  17.033  0.3951  0.0544 -0.3566
11915TIP3    H157236   3.674   1.427  17.043  1.3089  0.9561 -2.4958
11915TIP3    H257237   3.657   1.277  17.032 -0.5499  0.9386 -0.2729
11916TIP3   OH257238   0.951   3.714   1.904  0.5831 -0.3748 -0.1289
11916TIP3    H157239   1.028   3.702   1.849  0.8042  0.8669 -0.1180
11916TIP3    H257240   0.981   3.771   1.975 -0.6767  1.2509 -0.8673
11917TIP3   OH257241   5.499   2.537  14.480  0.2364  0.0928  0.1749
11917TIP3    H157242   5.593   2.521  14.487  0.6329  0.9911 -2.1943
11917TIP3    H257243   5.474   2.499  14.396 -0.9092  2.2369 -0.5415
11918TIP3   OH257244   2.135   0.408   0.351 -0.2585 -0.0075 -0.1196
11918TIP3    H157245   2.192   0.386   0.424 -1.6023  2.7618  1.9266
11918TIP3    H257246   2.172   0.488   0.315 -1.3970  0.4044 -0.4116
11919TIP3   OH257247   0.071   6.560  11.972  0.4039  0.1917 -0.3502
11919TIP3    H157248   0.111   6.643  11.944  0.6633  0.0860 -0.2947
11919TIP3    H257249   0.086   6.500  11.899  2.5443 -0.5708  0.6417
11920TIP3   OH257250   2.879   2.983  11.921 -0.3922  0.3722 -0.1659
11920TIP3    H157251   2.835   2.965  11.838 -0.9915  0.1993  0.1871
11920TIP3    H257252   2.920   2.899  11.945  0.1721  0.5435 -0.5136
11921TIP3   OH257253   0.163   0.025   4.413  0.6397  0.4846  0.3932
11921TIP3    H157254   0.097  -0.016   4.357  1.1304 -0.2546  0.3380
11921TIP3    H257255   0.158  -0.024   4.495  0.4770  1.0365  0.7100
11922TIP3   OH257256   0.164   1.869  12.738 -1.0462  0.3210 -0.3163
11922TIP3    H157257   0.204   1.939  12.790  0.7538 -1.8814  1.4907
11922TIP3    H257258   0.071   1.873  12.760 -0.6791  0.9767  1.2304
11923TIP3   OH257259   0.243   4.885  10.815 -0.3492 -0.1310 -0.4985
11923TIP3    H157260   0.290   4.926  10.888 -2.1419 -0.0981  0.6830
11923TIP3    H257261   0.299   4.812  10.790  0.2780 -0.1977  0.9668
11924TIP3   OH257262   0.545   3.330   3.204 -0.0855 -0.1589 -1.1092
11924TIP3    H157263   0.466   3.286   3.236 -0.9364  1.5137 -0.8259
11924TIP3    H257264   0.600   3.341   3.282  0.1366 -0.7191 -1.1838
11925TIP3   OH257265   1.909   4.829   0.751  0.1915  0.4640 -0.9477
11925TIP3    H157266   1.876   4.898   0.808  0.0380 -0.9458  0.7737
11925TIP3    H257267   1.837   4.811   0.691 -0.2272  0.9597 -0.6045
11926TIP3   OH257268   3.580   3.333  11.691  0.0260 -0.4291  0.0190
11926TIP3    H157269   3.554   3.294  11.774  1.5803  2.0403  1.7780
11926TIP3    H257270   3.673   3.314  11.683 -0.3676 -1.9419 -2.0288
11927TIP3   OH257271   6.680   6.487  13.023  0.0351 -0.0235 -0.4291
11927TIP3    H157272   6.663   6.410  13.078  1.1812  0.4018  0.5461
11927TIP3    H257273   6.775   6.498  13.025 -0.1089  1.4247 -0.5622
11928TIP3   OH257274   2.790   0.227   5.699 -0.2999  0.4079  0.1002
11928TIP3    H157275   2.886   0.237   5.698  0.1440 -2.2025 -3.5098
11928TIP3    H257276   2.775   0.147   5.750 -0.5980  0.7385  0.5428
11929TIP3   OH257277   1.471   4.522   6.119 -0.2462  0.2970 -0.3555
11929TIP3    H157278   1.464   4.593   6.056  1.3355  0.4888 -0.3387
11929TIP3    H257279   1.550   4.541   6.169  0.0285 -1.3033 -0.1218
11930TIP3   OH257280   1.615   4.674   1.080  0.3027 -0.1880 -0.0973
11930TIP3    H157281   1.527   4.662   1.044  0.4884 -0.7939 -0.3586
11930TIP3    H257282   1.609   4.640   1.170  0.0277  0.6509  0.2065
11931TIP3   OH257283   3.867   4.650   3.357 -0.2975 -1.0163 -0.5014
11931TIP3    H157284   3.807   4.604   3.415 -0.1044 -2.5110 -1.4340
11931TIP3    H257285   3.925   4.699   3.416 -0.9414 -1.4330  0.4965
11932TIP3   OH257286   2.841   5.154  12.002  0.0365  0.2605 -0.0051
11932TIP3    H157287   2.854   5.061  11.988 -0.8060  0.3153 -1.4828
11932TIP3    H257288   2.748   5.163  12.023  0.2145  0.7207  0.6169
11933TIP3   OH257289   0.094   6.659  12.399 -0.2237 -0.4385 -0.1226
11933TIP3    H157290   0.053   6.678  12.484 -1.0409  0.7176 -0.7534
11933TIP3    H257291   0.032   6.600  12.356  0.4914 -1.5404  0.3036
11934TIP3   OH257292   2.575   5.779   4.352  0.5395 -0.0060 -0.1703
11934TIP3    H157293   2.525   5.751   4.276  0.6895  1.5718 -0.8778
11934TIP3    H257294   2.515   5.767   4.426 -0.0418 -0.3625 -0.6951
11935TIP3   OH257295   6.190   1.227   1.258 -0.5431 -0.0969 -0.9469
11935TIP3    H157296   6.266   1.281   1.281 -0.6293 -0.5663  0.5796
11935TIP3    H257297   6.125   1.290   1.224 -0.4547  0.7106  0.3033
11936TIP3   OH257298   6.128   2.075   2.818  0.2056 -0.7615 -0.6118
11936TIP3    H157299   6.203   2.038   2.772  1.3207 -0.3824  0.7987
11936TIP3    H257300   6.152   2.068   2.911 -1.8880 -1.4077 -0.0679
11937TIP3   OH257301   2.714   0.359  16.417 -0.2542  0.3200  0.4653
11937TIP3    H157302   2.787   0.319  16.370 -1.0864 -0.2164 -0.4226
11937TIP3    H257303   2.654   0.388  16.348 -0.3190  1.8702  1.1412
11938TIP3   OH257304   0.232   5.112   3.441  0.0731  0.7059  0.2313
11938TIP3    H157305   0.185   5.190   3.470 -0.4111 -0.4617  2.8985
11938TIP3    H257306   0.302   5.101   3.505  0.8661 -0.4101 -0.7836
11939TIP3   OH257307   5.258   3.846  15.101  0.9160 -0.0400 -0.1899
11939TIP3    H157308   5.191   3.847  15.170  1.7167 -1.7401  0.6685
11939TIP3    H257309   5.319   3.915  15.127 -0.3027  1.3531 -0.8428
11940TIP3   OH257310   6.290   2.081   2.261  1.0070 -0.0699  0.2913
11940TIP3    H157311   6.298   2.174   2.240  0.3275  0.0273  0.4418
11940TIP3    H257312   6.196   2.068   2.277  1.2296 -0.5696  1.2405
11941TIP3   OH257313   3.812   6.408   3.465 -0.4050  0.1050  0.3223
11941TIP3    H157314   3.766   6.337   3.510 -1.1546  1.3132  1.5417
11941TIP3    H257315   3.801   6.388   3.372 -0.9189 -1.1698  0.6335
11942TIP3   OH257316   6.745   6.274  11.726 -0.1383  0.0608  0.2835
11942TIP3    H157317   6.696   6.345  11.684 -3.0138 -0.5988  2.2550
11942TIP3    H257318   6.837   6.296  11.710 -0.9692  2.7699 -1.4402
11943TIP3   OH257319   4.494   2.111   2.917  0.1027 -0.2661 -0.2317
11943TIP3    H157320   4.461   2.188   2.872  1.2833  1.1930  1.2877
11943TIP3    H257321   4.423   2.047   2.909  0.1429 -0.0783 -3.8763
11944TIP3   OH257322   5.593   3.041  11.471 -0.0575 -0.3439  0.3738
11944TIP3    H157323   5.622   3.009  11.557 -2.4088 -1.5830  0.7800
11944TIP3    H257324   5.589   3.136  11.482 -0.2209 -0.4724  1.6073
11945TIP3   OH257325   4.403   6.003  13.257 -0.7390 -0.3943 -0.2016
11945TIP3    H157326   4.426   5.995  13.165  1.2110 -0.3884  0.2439
11945TIP3    H257327   4.360   6.088  13.264 -0.7234 -0.3080 -1.0692
11946TIP3   OH257328   1.969   5.816  14.058 -0.0180  0.1808 -0.3095
11946TIP3    H157329   1.936   5.895  14.014  1.5864  1.8870  1.3701
11946TIP3    H257330   2.032   5.779  13.997 -0.2430  0.6169 -0.8168
11947TIP3   OH257331   1.405   5.097  13.090  0.5058  0.4847  0.3146
11947TIP3    H157332   1.410   5.152  13.012 -0.3137 -0.6093 -0.5526
11947TIP3    H257333   1.313   5.068  13.093  0.7906 -0.4115  1.0158
11948TIP3   OH257334   6.483   4.677   2.862 -0.3568 -0.2644  0.0920
11948TIP3    H157335   6.484   4.771   2.846 -0.2398 -0.2519  0.1731
11948TIP3    H257336   6.432   4.667   2.943 -1.5186 -0.3803 -0.6294
11949TIP3   OH257337   3.635   0.755   4.292  0.8422 -0.0925  0.1634
11949TIP3    H157338   3.616   0.661   4.288 -1.0193  0.2433  0.2808
11949TIP3    H257339   3.594   0.792   4.214  0.1011  0.8266  0.9579
11950TIP3   OH257340   4.825   4.924   0.106  0.5136 -0.3516 -0.2374
11950TIP3    H157341   4.817   4.883   0.020  0.1081 -0.0286 -0.3569
11950TIP3    H257342   4.741   4.905   0.149 -0.7164  2.4060 -1.2013
11951TIP3   OH257343   5.225   3.820  13.371 -0.3389  0.8398 -0.0004
11951TIP3    H157344   5.196   3.750  13.430 -1.2227  1.8653  0.8127
11951TIP3    H257345   5.227   3.779  13.284  0.3698 -0.5199  0.6210
11952TIP3   OH257346   0.614   4.680   0.870 -0.3277  0.2104 -0.4874
11952TIP3    H157347   0.656   4.731   0.939  0.8617 -0.7117 -0.4994
11952TIP3    H257348   0.631   4.729   0.790 -1.5865  1.2069 -0.1768
11953TIP3   OH257349   3.305   0.279  11.823  0.1397 -0.2455  0.1430
11953TIP3    H157350   3.397   0.278  11.850  0.3967 -0.5283 -0.6951
11953TIP3    H257351   3.309   0.293  11.728 -0.6929 -0.0995  0.1243
11954TIP3   OH257352   0.673   2.531   2.749  0.0833  1.2659 -0.4415
11954TIP3    H157353   0.612   2.582   2.696 -0.3275 -0.4726 -1.6978
11954TIP3    H257354   0.693   2.588   2.824 -0.1920  3.3343 -1.8604
11955TIP3   OH257355   6.393   2.920   0.631 -0.3574  0.0716  0.2013
11955TIP3    H157356   6.478   2.907   0.672 -0.0053 -0.2997 -0.6356
11955TIP3    H257357   6.409   2.912   0.537 -1.2663  0.2640  0.0138
11956TIP3   OH257358   5.988   6.267  14.378 -0.5983  0.3843 -0.0251
11956TIP3    H157359   5.912   6.320  14.403  0.1726  1.2061  0.6413
11956TIP3    H257360   6.049   6.329  14.338  0.0359 -0.1218  0.1366
11957TIP3   OH257361   6.066   0.869  12.579 -0.0726  0.0955  0.3124
11957TIP3    H157362   6.151   0.826  12.595  1.3617  2.3781 -0.6854
11957TIP3    H257363   6.071   0.951  12.627 -2.5149 -0.4607  1.6983
11958TIP3   OH257364   4.580   5.084   0.807 -0.1160  0.2272 -0.0560
11958TIP3    H157365   4.509   5.109   0.748 -2.1278 -1.1618  1.5805
11958TIP3    H257366   4.594   5.161   0.862  0.2281  0.7718 -0.8811
11959TIP3   OH257367   1.800   4.967  14.882  0.0691  0.0415  0.1406
11959TIP3    H157368   1.758   5.043  14.923 -1.9060 -0.4801 -0.8179
11959TIP3    H257369   1.783   4.977  14.789  1.5186 -0.5789 -0.2258
11960TIP3   OH257370   6.707   3.265   6.295 -0.4281 -0.1030  0.4949
11960TIP3    H157371   6.764   3.342   6.301  0.1326 -0.5020  0.3130
11960TIP3    H257372   6.622   3.301   6.273  0.0149  0.3956 -0.4540
11961TIP3   OH257373   0.600   5.955   5.452 -0.2587 -0.3443  0.5588
11961TIP3    H157374   0.557   6.010   5.387  0.4461 -0.2202  0.1916
11961TIP3    H257375   0.691   5.984   5.453 -0.0198 -1.0622  0.8277
11962TIP3   OH257376   6.074   3.943  14.042  0.3321 -0.0383 -0.4346
11962TIP3    H157377   6.061   3.933  13.947 -1.6839 -1.0005 -0.1252
11962TIP3    H257378   6.007   4.007  14.068  1.3330  0.7442  0.2574
11963TIP3   OH257379   0.948   6.691  16.897 -0.0907  0.1437 -0.0907
11963TIP3    H157380   0.950   6.687  16.993  0.2256  5.4607  0.4219
11963TIP3    H257381   0.860   6.722  16.876  0.2516  0.2625 -1.4222
11964TIP3   OH257382   4.254   2.366  16.289 -0.1248  0.5005  0.6443
11964TIP3    H157383   4.164   2.335  16.291 -0.3213  1.0572  0.8250
11964TIP3    H257384   4.248   2.458  16.317  0.5376  0.4426  0.9985
11965TIP3   OH257385   6.093   2.083  12.766  0.2950  0.4740 -0.0405
11965TIP3    H157386   6.128   2.010  12.714  2.8747  0.1869  1.8750
11965TIP3    H257387   6.039   2.041  12.832  0.5330  0.4242  0.1241
11966TIP3   OH257388   3.561   4.142   0.245  0.3123 -0.3179 -0.1124
11966TIP3    H157389   3.575   4.112   0.154  0.5134  0.7983 -0.4604
11966TIP3    H257390   3.614   4.221   0.252 -0.6320  0.2652  0.6176
11967TIP3   OH257391   4.749   0.182  12.593  0.2278 -0.2469  0.0657
11967TIP3    H157392   4.832   0.228  12.585  0.4273 -0.6214 -0.0648
11967TIP3    H257393   4.774   0.092  12.613 -0.1286 -0.4500 -0.3802
11968TIP3   OH257394   2.162   2.468  11.506 -0.5691  0.1449  0.0878
11968TIP3    H157395   2.118   2.405  11.562 -1.8524  0.9454  0.0173
11968TIP3    H257396   2.092   2.506  11.452  0.0974  1.8633  0.3652
11969TIP3   OH257397   2.859   5.734   2.561  0.2733 -0.5782  0.2121
11969TIP3    H157398   2.810   5.755   2.482 -0.5368 -0.4790  0.7233
11969TIP3    H257399   2.913   5.658   2.537  0.1394 -0.4647 -0.4623
11970TIP3   OH257400   6.030   5.061   4.377  0.6239  0.4673  0.2781
11970TIP3    H157401   5.960   5.055   4.442 -1.1302  0.4922 -1.4924
11970TIP3    H257402   6.058   5.153   4.381  0.7233  0.4044  1.1579
11971TIP3   OH257403   0.376   5.794   4.292  0.1960 -0.5724  0.3839
11971TIP3    H157404   0.428   5.727   4.247 -0.3969 -0.5619 -0.3448
11971TIP3    H257405   0.372   5.866   4.230 -0.2358 -0.3656  0.6514
11972TIP3   OH257406   0.472   4.988   5.260  0.5057  0.0389  0.5082
11972TIP3    H157407   0.454   4.933   5.183  0.8244  0.1544  0.3494
11972TIP3    H257408   0.388   4.992   5.307  0.3078 -0.0263  0.1632
11973TIP3   OH257409   5.137   6.737  13.808  0.5306  0.2043 -0.4084
11973TIP3    H157410   5.103   6.826  13.794 -1.5324 -0.5055 -0.2837
11973TIP3    H257411   5.064   6.680  13.786  1.2503 -1.4161  1.1303
11974TIP3   OH257412   3.821   4.246  13.827 -0.3042  0.0984  0.4010
11974TIP3    H157413   3.801   4.219  13.917  0.0604  0.6821  0.6655
11974TIP3    H257414   3.782   4.178  13.772  0.4867 -0.9022  1.0371
11975TIP3   OH257415   5.102   2.775  13.768  0.0843 -0.3086 -0.1410
11975TIP3    H157416   5.121   2.769  13.862 -0.3732 -3.0018 -0.1660
11975TIP3    H257417   5.011   2.804  13.763  0.0246 -0.4279  0.2587
11976TIP3   OH257418   3.679   5.960  11.065  0.1593 -0.6622  0.3325
11976TIP3    H157419   3.605   5.987  11.011 -0.8248  0.0941  1.9822
11976TIP3    H257420   3.658   5.871  11.093  0.4890 -0.9168 -0.2325
11977TIP3   OH257421   6.148   6.194   1.197 -0.0879 -1.0498  0.6098
11977TIP3    H157422   6.082   6.176   1.264 -1.3984  0.2611 -0.2805
11977TIP3    H257423   6.180   6.282   1.218  0.4814 -1.1766  0.2978
11978TIP3   OH257424   1.437   0.795   2.710 -0.4366  0.5198 -0.3651
11978TIP3    H157425   1.525   0.790   2.674 -0.2560 -0.5980  0.1733
11978TIP3    H257426   1.447   0.839   2.794  0.1844 -2.3580  1.2139
11979TIP3   OH257427   6.552   6.360  13.805  0.7214 -0.3398  0.3668
11979TIP3    H157428   6.536   6.369  13.899 -0.2438  2.0127  0.0501
11979TIP3    H257429   6.543   6.267  13.787 -0.0731 -0.7027  2.4339
11980TIP3   OH257430   2.427   2.945  10.948  0.2470  0.1830 -0.0103
11980TIP3    H157431   2.376   2.865  10.935 -1.5025  0.9838  1.3815
11980TIP3    H257432   2.363   3.016  10.937  1.3874  1.3158  0.3964
11981TIP3   OH257433   6.507   2.883  13.609  0.0172  0.3494 -0.1213
11981TIP3    H157434   6.519   2.921  13.696  1.4271 -0.1386 -0.0836
11981TIP3    H257435   6.587   2.905  13.562 -0.2146 -0.4248 -0.9049
11982TIP3   OH257436   2.626   5.883   4.898 -1.2465  0.4054 -0.2007
11982TIP3    H157437   2.571   5.961   4.896 -1.5638  0.2414  1.4221
11982TIP3    H257438   2.670   5.885   4.983  0.9021  0.2617 -1.2205
11983TIP3   OH257439   4.154   4.426  15.753 -0.4289 -0.0791 -0.1343
11983TIP3    H157440   4.102   4.448  15.676 -1.0954 -0.4356  0.2118
11983TIP3    H257441   4.195   4.509  15.779  3.2644 -0.6035 -3.3363
11984TIP3   OH257442   0.556   0.855   3.324 -0.0428  0.4197 -0.1089
11984TIP3    H157443   0.568   0.807   3.242 -1.1250  0.7807 -0.4997
11984TIP3    H257444   0.500   0.929   3.300  0.0070  0.7902  0.8703
11985TIP3   OH257445   2.306   0.492   5.594 -0.0143 -0.1821 -0.6559
11985TIP3    H157446   2.371   0.448   5.649 -2.3194 -1.7216  1.0107
11985TIP3    H257447   2.275   0.423   5.535  0.8649  0.9157 -2.4751
11986TIP3   OH257448   1.321   3.972  13.626 -0.2888  0.2429 -0.5174
11986TIP3    H157449   1.328   4.045  13.687 -1.4690  1.2594 -1.5405
11986TIP3    H257450   1.309   4.014  13.540  0.0074 -1.1523 -1.2759
11987TIP3   OH257451   3.467   5.679  12.216 -0.6733  0.2151 -0.2327
11987TIP3    H157452   3.387   5.648  12.175 -1.0028  1.4407 -0.5741
11987TIP3    H257453   3.536   5.624  12.180 -1.3826 -1.0369  0.2869
11988TIP3   OH257454   2.473   0.889   2.299 -0.4848  0.2190 -0.4623
11988TIP3    H157455   2.388   0.859   2.265 -0.8833  1.5882 -0.7353
11988TIP3    H257456   2.457   0.908   2.391 -0.5556  0.7505 -0.5816
11989TIP3   OH257457   5.383   3.768   2.777  0.1699  0.2758 -0.1458
11989TIP3    H157458   5.393   3.862   2.761  1.3796  0.5220  1.7834
11989TIP3    H257459   5.469   3.732   2.754 -0.3703 -0.4276 -1.1259
11990TIP3   OH257460   5.951   1.849  14.388  0.2860 -0.3258  0.2356
11990TIP3    H157461   5.896   1.891  14.453  0.3986  0.5716 -0.2365
11990TIP3    H257462   5.932   1.895  14.306  0.9393 -0.7196 -0.1541
11991TIP3   OH257463   4.906   0.966   2.904  0.2854 -0.2571 -0.3809
11991TIP3    H157464   4.884   1.052   2.868  0.0213 -0.2786 -0.2698
11991TIP3    H257465   4.822   0.925   2.922  0.3801  0.6469  2.4465
11992TIP3   OH257466   1.973   5.949  16.691 -0.6485  0.2407  0.1351
11992TIP3    H157467   2.042   5.951  16.625 -1.8367 -2.7048 -1.3564
11992TIP3    H257468   1.894   5.978  16.645 -1.1240  0.0896  0.8277
11993TIP3   OH257469   5.080   0.170   4.055 -0.4332 -0.3256 -0.7318
11993TIP3    H157470   5.168   0.204   4.036 -0.4527  0.8104  1.0129
11993TIP3    H257471   5.095   0.098   4.116 -0.7560  1.2421  1.3157
11994TIP3   OH257472   3.499   3.661   1.749 -0.5450  0.3177  0.0809
11994TIP3    H157473   3.559   3.608   1.801 -0.7686  0.6971  0.7433
11994TIP3    H257474   3.533   3.750   1.756 -2.0965  0.8213  1.8728
11995TIP3   OH257475   0.285   2.065  12.896  0.6611  0.3871 -0.5621
11995TIP3    H157476   0.355   2.116  12.937  0.1488 -0.6221  1.6720
11995TIP3    H257477   0.205   2.096  12.938  0.0536 -0.4258 -1.0948
11996TIP3   OH257478   5.596   1.373   3.167  0.4980  0.6907  0.0574
11996TIP3    H157479   5.547   1.387   3.248 -0.7695 -1.1561 -0.3133
11996TIP3    H257480   5.643   1.291   3.182 -0.1304  0.0764 -1.2282
11997TIP3   OH257481   1.157   4.951  13.049 -0.3448 -0.3472 -0.0558
11997TIP3    H157482   1.105   5.003  12.987 -2.8755  0.9422  2.8853
11997TIP3    H257483   1.126   4.862  13.038 -2.9921  0.3249  1.2806
11998TIP3   OH257484   5.035   4.150  14.996 -0.3432 -0.4150 -0.6489
11998TIP3    H157485   4.965   4.130  14.933 -0.4273  1.6673 -1.3011
11998TIP3    H257486   5.113   4.108  14.960 -0.0984  1.7386 -2.9423
11999TIP3   OH257487   1.103   4.268  10.578  0.4246  0.2329  0.0269
11999TIP3    H157488   1.167   4.294  10.645 -0.8017  0.2844  1.2411
11999TIP3    H257489   1.156   4.244  10.502  1.8430  0.9543  0.7394
12000TIP3   OH257490   6.010   1.465   0.752  0.1275 -0.2736 -1.1900
12000TIP3    H157491   5.967   1.419   0.824 -1.4230  0.0695 -1.8545
12000TIP3    H257492   5.992   1.412   0.675  0.9462 -0.1335 -1.4893
12001TIP3   OH257493   0.894   0.726  13.981 -0.2363  0.0755  0.2351
12001TIP3    H157494   0.966   0.695  13.926 -1.3599 -1.7520 -0.3003
12001TIP3    H257495   0.933   0.795  14.034  1.6968 -0.2830 -0.6109
12002TIP3   OH257496   5.077   4.132  13.169 -0.3607  0.5075 -0.7890
12002TIP3    H157497   5.152   4.189  13.186  0.8023 -1.6991  2.5156
12002TIP3    H257498   5.102   4.082  13.091  1.6894 -0.1632  0.2286
12003TIP3   OH257499   4.646   2.123   2.270  0.4433  0.5777 -0.0592
12003TIP3    H157500   4.578   2.176   2.311  0.9241  2.6265 -1.6810
12003TIP3    H257501   4.727   2.151   2.312  0.6871  1.1533 -0.8609
12004TIP3   OH257502   0.179   4.384   0.107 -0.0166  0.4307 -0.1940
12004TIP3    H157503   0.091   4.366   0.142 -0.0022  0.6168 -0.0570
12004TIP3    H257504   0.170   4.468   0.063  0.2293  0.7393  0.3300
12005TIP3   OH257505   0.614   0.603   4.507  0.1838  0.2424  0.5355
12005TIP3    H157506   0.669   0.536   4.467  1.4971  0.6193  1.6330
12005TIP3    H257507   0.623   0.588   4.601 -2.6151 -0.4592  0.7709
12006TIP3   OH257508   6.548   2.589  17.005  0.1479  0.2388 -0.1689
12006TIP3    H157509   6.503   2.512  16.971 -2.0329  1.2590  0.1997
12006TIP3    H257510   6.512   2.662  16.953  0.2534  1.2873  1.1748
12007TIP3   OH257511   1.933   5.063  11.803 -0.3855 -0.5185  0.0969
12007TIP3    H157512   1.914   4.979  11.762 -0.6789 -0.5226  0.2389
12007TIP3    H257513   1.849   5.107  11.808 -0.0958  0.1692 -0.8213
12008TIP3   OH257514   1.769   2.332   4.525  0.2619  0.6814 -0.2367
12008TIP3    H157515   1.787   2.405   4.466 -0.6165  0.6227 -0.6035
12008TIP3    H257516   1.736   2.262   4.468  1.5000 -0.1649  0.0556
12009TIP3   OH257517   5.876   3.944   2.220 -0.3816 -0.1511 -0.0474
12009TIP3    H157518   5.920   3.991   2.290 -0.4416  1.1038 -0.8358
12009TIP3    H257519   5.881   3.852   2.246 -1.1840  0.3567  2.0243
12010TIP3   OH257520   3.757   1.450  15.287  0.7552 -0.3021 -0.5338
12010TIP3    H157521   3.801   1.428  15.369  0.6547  1.1946 -0.0443
12010TIP3    H257522   3.667   1.467  15.312  1.0281  1.5865 -0.6664
12011TIP3   OH257523   1.581   5.335   2.100  0.0293 -0.7258  0.0577
12011TIP3    H157524   1.630   5.299   2.027 -0.6817 -1.5418 -0.0306
12011TIP3    H257525   1.648   5.359   2.164  0.8731  2.1813 -1.7252
12012TIP3   OH257526   2.672   2.887   5.769 -0.0069 -0.1320  0.3058
12012TIP3    H157527   2.736   2.957   5.760  0.4104  0.0386  3.4593
12012TIP3    H257528   2.722   2.807   5.752  0.2470  0.1776 -0.4206
12013TIP3   OH257529   0.369   4.065  14.770 -0.1432 -0.9128  0.0138
12013TIP3    H157530   0.445   4.008  14.762  0.4307 -0.1357 -0.2014
12013TIP3    H257531   0.388   4.138  14.711 -0.6817 -0.3005  0.5882
12014TIP3   OH257532   3.289   6.331  12.519  0.1723  0.3657  0.2401
12014TIP3    H157533   3.367   6.344  12.465  0.0913  1.4174  0.3498
12014TIP3    H257534   3.234   6.272  12.468  0.6666  0.2957 -0.2244
12015TIP3   OH257535   5.262   5.334  13.052 -0.0347  0.1872  0.4414
12015TIP3    H157536   5.263   5.372  13.140  0.5550 -1.5509  1.2424
12015TIP3    H257537   5.332   5.379  13.005 -0.7875  1.6041  0.6108
12016TIP3   OH257538   0.235   3.985  12.939 -0.1052  0.3395  0.0294
12016TIP3    H157539   0.200   4.074  12.935 -1.4121 -0.1875 -0.9817
12016TIP3    H257540   0.175   3.938  12.997 -0.4144 -0.2778 -0.7612
12017TIP3   OH257541   4.310   0.454  16.539  0.2473 -0.1552  0.5329
12017TIP3    H157542   4.219   0.467  16.565 -0.2564 -2.2394  0.0374
12017TIP3    H257543   4.310   0.464  16.444  0.4533 -0.5602  0.4889
12018TIP3   OH257544   1.528   3.926  17.025  0.2849 -0.2180  0.5326
12018TIP3    H157545   1.617   3.909  16.993  0.5363  0.7423  0.6758
12018TIP3    H257546   1.501   3.844  17.067  0.9086 -0.6788  0.0469
12019TIP3   OH257547   5.744   6.781   4.576  0.1785  0.3195 -0.3895
12019TIP3    H157548   5.693   6.711   4.536  1.2159 -2.5895  2.8286
12019TIP3    H257549   5.835   6.753   4.565  0.5701  0.4539  1.9438
12020TIP3   OH257550   2.623   0.354   5.883 -0.1592 -0.3353 -0.0583
12020TIP3    H157551   2.632   0.317   5.795 -0.8844 -0.2622 -0.1701
12020TIP3    H257552   2.529   0.363   5.896 -0.1237 -1.4951  1.2141
12021TIP3   OH257553   5.398   6.204  14.162  0.3364 -0.3539  0.2899
12021TIP3    H157554   5.427   6.193  14.071  0.1929 -1.2346  0.3407
12021TIP3    H257555   5.479   6.204  14.213  0.4387  0.4462  0.1474
12022TIP3   OH257556   5.180   4.194   2.998 -0.1451 -0.8089  0.6200
12022TIP3    H157557   5.264   4.176   3.040  0.4519 -0.7788 -0.5214
12022TIP3    H257558   5.114   4.169   3.064  0.7427  0.9928  2.2728
12023TIP3   OH257559   1.196   2.678  14.341 -0.2182  0.1204 -0.2984
12023TIP3    H157560   1.171   2.657  14.251 -0.3844 -2.1238  0.2231
12023TIP3    H257561   1.200   2.594  14.386  3.1090  0.8186  1.0230
12024TIP3   OH257562   6.205   2.454  11.967 -0.4326  0.1786  0.4243
12024TIP3    H157563   6.226   2.537  12.010  3.4445 -2.0833  3.5397
12024TIP3    H257564   6.224   2.470  11.874  0.4658  2.6723  0.9384
12025TIP3   OH257565   3.857   3.701   6.030 -0.3746  0.7047 -0.1249
12025TIP3    H157566   3.802   3.660   5.963 -0.5643  1.4454 -0.4313
12025TIP3    H257567   3.895   3.628   6.078 -2.6431  0.1419  0.9381
12026TIP3   OH257568   4.506   3.242  12.745  0.2674  0.4900 -0.6998
12026TIP3    H157569   4.435   3.204  12.798  0.5444  1.7367  0.6270
12026TIP3    H257570   4.462   3.305  12.689  0.2281  0.7219 -0.4103
12027TIP3   OH257571   4.069   6.602  14.758  0.3720 -0.2045 -0.3536
12027TIP3    H157572   4.078   6.578  14.850  0.2250  2.1343  0.3165
12027TIP3    H257573   3.975   6.611  14.744  0.4210 -0.0148 -0.5801
12028TIP3   OH257574   5.558   1.144  11.552 -0.6507 -0.0530 -0.3013
12028TIP3    H157575   5.603   1.062  11.532 -1.4937 -0.1425 -1.9705
12028TIP3    H257576   5.575   1.200  11.477 -2.0526  0.4460 -0.2779
12029TIP3   OH257577   3.550   6.351   3.832 -0.4634  0.0995 -0.2122
12029TIP3    H157578   3.646   6.347   3.838 -0.4692  1.6364  2.6833
12029TIP3    H257579   3.520   6.272   3.877 -0.5779 -0.2344 -0.8647
12030TIP3   OH257580   5.439   5.667   0.779  0.3405 -0.5703  0.4949
12030TIP3    H157581   5.368   5.630   0.726 -0.6995  0.0649  1.3904
12030TIP3    H257582   5.394   5.715   0.849  1.6486  0.5159  0.6401
12031TIP3   OH257583   0.910   3.120   5.758 -0.6994 -0.3987 -0.5848
12031TIP3    H157584   1.005   3.109   5.757 -0.6248 -0.0594 -2.9991
12031TIP3    H257585   0.884   3.096   5.847  1.7265  0.3938  0.4123
12032TIP3   OH257586   0.381   6.448   3.322  0.4215  0.2002  0.1286
12032TIP3    H157587   0.327   6.451   3.243  1.1636 -1.3082 -0.4872
12032TIP3    H257588   0.330   6.396   3.384 -0.0191  1.1088  0.5366
12033TIP3   OH257589   0.154   1.046  16.440 -0.0796  0.3389 -0.3980
12033TIP3    H157590   0.082   1.071  16.382  1.0333  2.8133 -0.8310
12033TIP3    H257591   0.178   1.127  16.485  0.5670 -1.0293  1.9224
12034TIP3   OH257592   3.814   5.319  14.772  0.2790  0.0054 -0.6745
12034TIP3    H157593   3.843   5.340  14.861  2.5432  2.0150 -1.7503
12034TIP3    H257594   3.792   5.226  14.776  0.8838 -0.1293  1.8436
12035TIP3   OH257595   4.947   0.539   2.880 -0.4221 -0.6479  0.2641
12035TIP3    H157596   4.866   0.490   2.865  0.3988 -1.7097 -0.9073
12035TIP3    H257597   5.016   0.474   2.872  0.5490  0.1397  1.7812
12036TIP3   OH257598   3.858   0.869   4.094 -0.1278  0.5002 -0.0098
12036TIP3    H157599   3.836   0.893   4.184  0.8329 -1.5529  0.8498
12036TIP3    H257600   3.858   0.952   4.046  1.1466  1.9344  2.2868
12037TIP3   OH257601   0.349   0.520   6.658  0.0609  0.2303 -0.3475
12037TIP3    H157602   0.266   0.487   6.693  0.6668 -2.0737 -0.8960
12037TIP3    H257603   0.324   0.597   6.606 -1.4175  0.8804  1.2024
12038TIP3   OH257604   4.603   1.453  15.495 -0.0812 -0.7802 -0.5277
12038TIP3    H157605   4.662   1.389  15.535 -0.5194 -0.0595  1.3996
12038TIP3    H257606   4.653   1.488  15.421  1.1437 -1.5632 -0.1127
12039TIP3   OH257607   1.312   1.172  12.432 -0.0598  0.0099 -0.1457
12039TIP3    H157608   1.324   1.233  12.505  1.4626  0.7086 -0.9433
12039TIP3    H257609   1.219   1.147  12.437  0.0810 -0.2450  2.2227
12040TIP3   OH257610   4.976   1.299  15.052  0.5107 -0.4036 -0.5866
12040TIP3    H157611   4.987   1.369  15.116  1.0859 -0.3114 -0.7808
12040TIP3    H257612   5.057   1.249  15.057 -0.2343 -1.6061  0.1949
12041TIP3   OH257613   1.143   6.300   2.450  0.2561  0.0772  0.1409
12041TIP3    H157614   1.166   6.268   2.537  1.3559  2.0678  0.6392
12041TIP3    H257615   1.049   6.320   2.456  0.8383  2.8896  1.8736
12042TIP3   OH257616   1.416   4.727  14.290 -0.2093 -0.4385  0.1498
12042TIP3    H157617   1.410   4.655  14.352  1.0378 -0.2281  0.5503
12042TIP3    H257618   1.492   4.778  14.320 -0.7000  0.6993 -0.4729
12043TIP3   OH257619   2.300   1.724   6.278 -0.2471  0.0293 -0.2720
12043TIP3    H157620   2.384   1.718   6.323 -0.4519 -0.2988  0.0652
12043TIP3    H257621   2.236   1.740   6.347 -0.9119 -2.8434 -0.0917
12044TIP3   OH257622   5.401   4.845   4.924  0.0499  0.1683  0.1355
12044TIP3    H157623   5.329   4.885   4.876 -1.6113  1.5560  3.5119
12044TIP3    H257624   5.472   4.909   4.920  0.2601 -0.1067 -1.0665
12045TIP3   OH257625   0.518   6.717  15.907  0.0931 -0.0359  0.2526
12045TIP3    H157626   0.522   6.807  15.875  2.1181 -0.4181 -0.7391
12045TIP3    H257627   0.539   6.723  16.000 -1.6465  0.6700  0.6332
12046TIP3   OH257628   5.333   3.690   1.684  0.2558  0.4712 -0.7936
12046TIP3    H157629   5.414   3.673   1.732  0.0600 -0.4269 -0.7666
12046TIP3    H257630   5.328   3.785   1.679  1.1913  0.5410 -0.5893
12047TIP3   OH257631   3.037   4.507   0.136  0.5721  0.1989 -0.4531
12047TIP3    H157632   2.942   4.510   0.126  0.6562  0.9861 -1.1549
12047TIP3    H257633   3.053   4.547   0.222  0.2202 -0.8546  0.1191
12048TIP3   OH257634   1.202   1.890  12.474  0.3202  0.5608 -0.1431
12048TIP3    H157635   1.256   1.966  12.497  2.2219  0.2033 -2.9095
12048TIP3    H257636   1.174   1.907  12.384  0.6316 -1.8804 -0.7715
12049TIP3   OH257637   1.685   2.570  15.338 -0.2270 -0.3171  0.6939
12049TIP3    H157638   1.710   2.624  15.264 -1.4766  3.3857  2.7377
12049TIP3    H257639   1.761   2.515  15.355  0.8639  0.2298 -1.9501
12050TIP3   OH257640   4.377   2.320  13.520 -0.3998  0.2366  0.0545
12050TIP3    H157641   4.303   2.287  13.572 -0.0607  0.9043  0.9832
12050TIP3    H257642   4.367   2.278  13.434 -0.4505 -1.6196  0.9333
12051TIP3   OH257643   4.338   5.084  13.148  0.1619 -0.0429 -0.5406
12051TIP3    H157644   4.297   5.126  13.223 -0.6472  2.2856 -2.1727
12051TIP3    H257645   4.306   4.994  13.151 -0.5303  0.2167  1.3967
12052TIP3   OH257646   2.728   0.075  16.766 -0.4518 -0.3336 -0.0167
12052TIP3    H157647   2.674   0.154  16.756 -0.2063 -0.4132 -2.2867
12052TIP3    H257648   2.817   0.108  16.778 -0.5460 -0.2565  0.4923
12053TIP3   OH257649   3.423   3.529  15.305  0.1204  0.0265  0.3695
12053TIP3    H157650   3.394   3.565  15.221 -1.9753 -0.7997  0.6752
12053TIP3    H257651   3.390   3.592  15.370  0.4375 -0.1034  0.6568
12054TIP3   OH257652   0.614   2.314   2.280 -0.1812 -0.4284 -0.7291
12054TIP3    H157653   0.606   2.399   2.324  1.4258 -0.8466  0.4444
12054TIP3    H257654   0.695   2.320   2.230  0.8842 -1.7890  0.7131
12055TIP3   OH257655   0.791   1.678  12.373 -0.9048  0.2007 -0.1339
12055TIP3    H157656   0.854   1.606  12.360  0.4739  0.9989  1.6200
12055TIP3    H257657   0.735   1.675  12.296 -0.6304 -2.4799 -0.3309
12056TIP3   OH257658   1.384   5.958   3.276 -0.3220  0.0293 -0.2210
12056TIP3    H157659   1.290   5.950   3.292 -0.3891  0.2875 -0.4705
12056TIP3    H257660   1.416   5.868   3.273 -0.8420 -0.1319 -1.7931
12057TIP3   OH257661   6.045   0.527  12.930 -0.0119  0.1253  0.1224
12057TIP3    H157662   6.066   0.570  12.848 -1.1085  0.4977  0.0166
12057TIP3    H257663   5.955   0.494  12.918  0.2814 -0.9575  0.7073
12058TIP3   OH257664   4.195   0.963   0.028 -0.1914  0.5115  0.6693
12058TIP3    H157665   4.124   1.026   0.018  0.6752  1.4753  0.4932
12058TIP3    H257666   4.203   0.922  -0.058 -0.8224  0.0739  0.8116
12059TIP3   OH257667   5.140   2.530  11.629  0.5143  0.2291  0.2608
12059TIP3    H157668   5.081   2.535  11.555  0.4242  0.2478  0.3335
12059TIP3    H257669   5.128   2.442  11.664 -0.8109  0.8152  1.3720
12060TIP3   OH257670   2.251   3.382   3.104  0.2058 -0.2525 -0.2419
12060TIP3    H157671   2.175   3.368   3.047 -1.2337 -0.5453  1.6142
12060TIP3    H257672   2.322   3.333   3.063 -0.7719 -0.5305 -1.6867
12061TIP3   OH257673   0.581   6.817   3.884 -0.1200 -0.6893 -0.6381
12061TIP3    H157674   0.632   6.772   3.817 -0.4690 -0.4584 -1.0658
12061TIP3    H257675   0.513   6.863   3.835  0.4323  0.5853 -0.2481
12062TIP3   OH257676   4.227   4.259  11.650  0.6412  0.0056  0.1304
12062TIP3    H157677   4.149   4.292  11.605  0.0440 -1.6757 -0.1451
12062TIP3    H257678   4.291   4.246  11.580  2.0729  3.4449  0.5694
12063TIP3   OH257679   4.892   3.309   2.024 -0.3792  0.3208 -0.5031
12063TIP3    H157680   4.886   3.213   2.023  1.7136  0.0895  1.3754
12063TIP3    H257681   4.833   3.336   2.095 -0.3118  0.3612 -0.4630
12064TIP3   OH257682   5.927   4.913   5.197  0.0347 -0.7677 -0.3522
12064TIP3    H157683   5.982   4.961   5.136 -0.6150 -0.4490 -0.6915
12064TIP3    H257684   5.862   4.976   5.227  0.2958 -0.9431  0.6098
12065TIP3   OH257685   3.710   4.482  16.776  0.0434 -0.0040  0.4384
12065TIP3    H157686   3.792   4.438  16.756  0.2690  1.0002 -1.0446
12065TIP3    H257687   3.699   4.471  16.870  2.1698  0.3201  0.7761
12066TIP3   OH257688   5.232   2.518  13.738 -0.3743  0.0186 -0.3229
12066TIP3    H157689   5.166   2.569  13.786 -0.5829  0.5955 -1.1928
12066TIP3    H257690   5.183   2.444  13.702 -0.0712 -0.8338  0.9414
12067TIP3   OH257691   3.267   6.766  12.551 -0.1916 -0.7483  0.0582
12067TIP3    H157692   3.321   6.692  12.580 -0.3991 -0.5316  1.0237
12067TIP3    H257693   3.308   6.842  12.592 -0.2927 -0.3874 -0.5043
12068TIP3   OH257694   4.398   2.081  13.284 -0.5275  0.0347 -0.5647
12068TIP3    H157695   4.445   2.013  13.234  0.7615  0.0431  0.5641
12068TIP3    H257696   4.321   2.037  13.319 -0.5744 -0.4017 -1.2036
12069TIP3   OH257697   2.600   1.205   1.119 -1.0228 -0.1082  0.3217
12069TIP3    H157698   2.586   1.279   1.178 -1.3237 -0.2348  0.4053
12069TIP3    H257699   2.668   1.152   1.162 -0.0135  0.6743 -0.2441
12070TIP3   OH257700   0.735   5.012  16.776  0.4041 -0.0405 -0.1820
12070TIP3    H157701   0.793   5.052  16.841  0.1112  1.5427 -0.8577
12070TIP3    H257702   0.794   4.983  16.706  0.6633 -1.2364  0.5142
12071TIP3   OH257703   1.600   4.112   3.149  0.1873 -0.8845  0.0612
12071TIP3    H157704   1.537   4.043   3.128  2.6720 -2.7590 -1.7237
12071TIP3    H257705   1.652   4.122   3.070  2.3889  0.2884  1.5735
12072TIP3   OH257706   0.235   4.508  13.169  0.0758  0.1490  0.1436
12072TIP3    H157707   0.188   4.427  13.150  2.4825 -1.2602 -0.2382
12072TIP3    H257708   0.183   4.551  13.237 -1.3947 -1.5941  0.1839
12073TIP3   OH257709   1.384   0.883   1.693 -0.1351 -0.4553 -0.6252
12073TIP3    H157710   1.428   0.799   1.706 -1.3695 -1.1543 -0.7932
12073TIP3    H257711   1.400   0.904   1.601 -2.1261 -1.9245 -1.3690
12074TIP3   OH257712   2.071   3.716  12.932  0.4013  0.1718 -0.0800
12074TIP3    H157713   2.146   3.657  12.941 -0.0887 -0.1654  2.7055
12074TIP3    H257714   2.010   3.669  12.876  1.0844 -0.8544  0.0004
12075TIP3   OH257715   2.365   4.290  14.220  0.0375  0.2465  0.1407
12075TIP3    H157716   2.398   4.224  14.281  1.9298  0.1812 -0.8864
12075TIP3    H257717   2.433   4.298  14.154 -0.9505  1.9632 -0.7370
12076TIP3   OH257718   4.689   5.476   0.422  0.0034  0.0427 -0.0116
12076TIP3    H157719   4.774   5.518   0.412  0.0530  0.5145  1.9076
12076TIP3    H257720   4.634   5.516   0.354  0.4882  2.0526  0.7082
12077TIP3   OH257721   3.390   0.823   0.797  0.6737 -0.5973  0.4647
12077TIP3    H157722   3.467   0.769   0.778  0.0606 -1.5022  0.5195
12077TIP3    H257723   3.317   0.776   0.758  0.4461  1.6257 -2.0720
12078TIP3   OH257724   1.408   6.330  14.850  0.6871 -0.0825 -0.3166
12078TIP3    H157725   1.377   6.314  14.761 -2.3117 -0.1209  0.5883
12078TIP3    H257726   1.370   6.258  14.901 -0.4793  1.6875  1.4603
12079TIP3   OH257727   2.115   2.801   0.250 -0.1200  0.5214  0.4751
12079TIP3    H157728   2.068   2.736   0.304  1.6768 -0.1085  1.3538
12079TIP3    H257729   2.104   2.883   0.297 -1.5813  0.7036 -0.1266
12080TIP3   OH257730   0.481   6.738  14.373  0.6101 -0.8476 -0.4387
12080TIP3    H157731   0.431   6.723  14.454  0.6111 -0.2293 -0.3233
12080TIP3    H257732   0.417   6.775  14.312  1.2111  1.2893  0.1473
12081TIP3   OH257733   6.796   1.999  12.190 -0.0638  0.7954 -0.2142
12081TIP3    H157734   6.834   2.054  12.122  0.4219  0.7014 -0.0216
12081TIP3    H257735   6.841   1.915  12.181 -1.2538  0.2083 -0.9323
12082TIP3   OH257736   5.887   0.948   2.828  0.4665  0.2525  0.0940
12082TIP3    H157737   5.953   1.013   2.851  1.0249 -0.3104  0.1382
12082TIP3    H257738   5.938   0.868   2.811 -0.2962 -0.6079  1.6384
12083TIP3   OH257739   4.403   1.773   2.594  0.0085 -0.3342 -0.4811
12083TIP3    H157740   4.494   1.802   2.591 -0.3161  0.7185 -0.5823
12083TIP3    H257741   4.407   1.684   2.629  1.2672 -1.2248 -2.7083
12084TIP3   OH257742   5.276   3.476  13.242  0.3234  0.0753 -0.3679
12084TIP3    H157743   5.341   3.457  13.175  0.2609 -3.5479  0.3553
12084TIP3    H257744   5.195   3.435  13.209  0.2601 -1.6647  1.7056
12085TIP3   OH257745   3.023   0.245   2.322 -0.0941 -0.5557  0.5705
12085TIP3    H157746   3.032   0.152   2.302 -1.6056 -0.4608 -0.7457
12085TIP3    H257747   3.042   0.289   2.239  0.0492  0.2783  1.0317
12086TIP3   OH257748   3.373   2.221   3.182 -0.0637 -0.3671  0.1430
12086TIP3    H157749   3.363   2.216   3.277 -1.9804  0.2864  0.0127
12086TIP3    H257750   3.467   2.209   3.167  0.2340 -0.7240  2.0921
12087TIP3   OH257751   6.457   4.710  17.104 -0.6343  0.2637  0.3726
12087TIP3    H157752   6.448   4.734  17.196 -0.8190 -0.1738  0.4715
12087TIP3    H257753   6.509   4.781  17.065 -0.1506  0.2056  0.9097
12088TIP3   OH257754   6.433   3.740   2.430 -0.1016 -0.2152 -0.2364
12088TIP3    H157755   6.452   3.710   2.519 -2.4270  0.5524  0.5833
12088TIP3    H257756   6.349   3.699   2.409 -0.3944  0.9472 -1.4236
12089TIP3   OH257757   1.733   3.011  12.934 -0.3389 -0.1211 -0.2427
12089TIP3    H157758   1.649   2.989  12.975 -0.7196  0.9715 -0.4088
12089TIP3    H257759   1.721   2.986  12.842 -0.4906  0.0595 -0.2718
12090TIP3   OH257760   0.137   4.537   4.079  0.4272  0.1193 -0.3782
12090TIP3    H157761   0.120   4.522   4.172 -0.8123 -0.5019 -0.6820
12090TIP3    H257762   0.154   4.450   4.043 -1.5516  0.0076 -1.1643
12091TIP3   OH257763   4.251   0.270   5.845  0.3812  0.0703  0.0308
12091TIP3    H157764   4.166   0.314   5.851  1.1857  1.5196  2.0155
12091TIP3    H257765   4.230   0.178   5.832 -1.5614  0.1880  1.8169
12092TIP3   OH257766   2.128   1.855   1.321  0.1245  0.2432 -0.0537
12092TIP3    H157767   2.211   1.880   1.361 -0.4680  0.5297  1.0251
12092TIP3    H257768   2.113   1.765   1.351  0.1484  0.1133 -0.4256
12093TIP3   OH257769   5.979   0.516   0.084  0.2801  0.3143  0.0521
12093TIP3    H157770   5.898   0.469   0.064  0.9496 -1.1581  0.6696
12093TIP3    H257771   5.997   0.496   0.176  1.9162 -0.3259 -0.3686
12094TIP3   OH257772   5.429   1.097   2.289  0.0418  0.3009  0.0936
12094TIP3    H157773   5.460   1.014   2.253 -0.2117  0.0602  0.4194
12094TIP3    H257774   5.433   1.085   2.384  2.1834  1.4659  0.2120
12095TIP3   OH257775   2.312   2.243  14.834  0.0598 -0.3268 -0.3311
12095TIP3    H157776   2.328   2.162  14.785 -0.3115 -0.5104 -0.1541
12095TIP3    H257777   2.294   2.213  14.923  1.1838  0.0304  0.0296
12096TIP3   OH257778   2.318   3.636   1.155  0.3750 -0.0617 -0.4481
12096TIP3    H157779   2.228   3.622   1.127 -0.0676  1.6231  0.0191
12096TIP3    H257780   2.363   3.554   1.133 -1.7412 -1.8462  1.3807
12097TIP3   OH257781   0.447   5.398   5.296 -0.1376 -0.3546 -0.0612
12097TIP3    H157782   0.416   5.391   5.206 -0.8347  1.3499 -0.0016
12097TIP3    H257783   0.390   5.341   5.347  1.5954 -3.0220 -0.9180
12098TIP3   OH257784   1.673   4.468   2.431  0.2214 -0.2615 -0.6040
12098TIP3    H157785   1.643   4.442   2.344 -2.1083 -0.6932  0.2511
12098TIP3    H257786   1.752   4.520   2.415  0.4022 -1.1307 -2.8801
12099TIP3   OH257787   4.935   5.614   4.296  0.4140  0.3813  0.1771
12099TIP3    H157788   5.004   5.549   4.299  0.8063  0.7775 -0.1613
12099TIP3    H257789   4.860   5.568   4.258  0.3851 -0.1402  0.8586
12100TIP3   OH257790   2.290   4.708   0.771  0.6586 -0.0692 -0.1154
12100TIP3    H157791   2.374   4.751   0.758  0.1620  0.8396 -0.4291
12100TIP3    H257792   2.230   4.753   0.712 -0.4089  0.4319  1.2775
12101TIP3   OH257793   6.433   0.479  17.062  0.4762 -0.2210  0.3863
12101TIP3    H157794   6.403   0.413  17.124  0.7192 -1.1218 -0.4331
12101TIP3    H257795   6.383   0.558  17.085  3.7515  0.9911  4.7442
12102TIP3   OH257796   2.419   6.134  14.746  0.9310 -0.1098  0.3524
12102TIP3    H157797   2.464   6.102  14.668  2.1207 -0.4874  1.1557
12102TIP3    H257798   2.352   6.068  14.764  0.1854  0.3307 -0.7173
12103TIP3   OH257799   1.900   3.907  13.426  0.6727 -0.8415  0.1694
12103TIP3    H157800   1.920   3.998  13.401  1.1763 -1.4078 -1.6298
12103TIP3    H257801   1.925   3.855  13.350 -1.1606 -2.3452  0.5153
12104TIP3   OH257802   2.241   3.558   5.736 -0.2791  0.1845 -0.1599
12104TIP3    H157803   2.219   3.496   5.666  2.5248 -0.4149 -0.6290
12104TIP3    H257804   2.323   3.526   5.772  0.1923  2.4758  1.0101
12105TIP3   OH257805   0.273   2.056   3.823  0.4153 -0.4058 -0.3206
12105TIP3    H157806   0.200   2.032   3.765 -1.4892  1.3619  1.2094
12105TIP3    H257807   0.333   2.103   3.766  0.1262 -1.3719 -1.4958
12106TIP3   OH257808   2.743   5.560  16.762 -0.0548 -0.3898 -0.4101
12106TIP3    H157809   2.668   5.602  16.805  1.4886  3.1498 -0.8720
12106TIP3    H257810   2.816   5.572  16.823  1.0079 -0.0721 -1.6889
12107TIP3   OH257811   4.614   1.415  14.749  0.1639  0.5047 -0.2408
12107TIP3    H157812   4.594   1.416  14.655  0.2884  0.7070 -0.2653
12107TIP3    H257813   4.709   1.417  14.753  0.1398  1.6987 -0.0971
12108TIP3   OH257814   2.236   4.961  13.044 -0.1684 -0.3197  0.2098
12108TIP3    H157815   2.222   5.016  12.966  1.6774  0.1968  0.1790
12108TIP3    H257816   2.148   4.940  13.075 -0.9520  2.2846 -0.0470
12109TIP3   OH257817   6.715   2.386  16.552 -0.4955  0.8452  0.1792
12109TIP3    H157818   6.709   2.345  16.639  0.7265  1.3466  0.5178
12109TIP3    H257819   6.767   2.324  16.500 -0.4395  0.9735  0.0808
12110TIP3   OH257820   4.205   3.981  14.491  0.5421 -0.1134  0.0002
12110TIP3    H157821   4.159   4.028  14.560 -1.2328 -2.6255  0.6398
12110TIP3    H257822   4.141   3.973  14.420  1.0213 -1.0053 -0.3436
12111TIP3   OH257823   5.433   1.846  10.268  0.2095 -0.1521  0.2036
12111TIP3    H157824   5.385   1.767  10.293  0.0229 -0.1387 -0.1004
12111TIP3    H257825   5.525   1.819  10.267  0.3850  0.2032  2.2545
12112TIP3   OH257826   5.660   3.528   5.666 -0.6493  0.1195  0.4681
12112TIP3    H157827   5.647   3.606   5.613 -0.4269  0.2973  0.6729
12112TIP3    H257828   5.655   3.558   5.756 -0.8721 -0.1566  0.5495
12113TIP3   OH257829   3.353   3.334   3.748 -0.4623 -0.4943 -0.0158
12113TIP3    H157830   3.430   3.278   3.754 -1.4168 -2.1147 -1.8874
12113TIP3    H257831   3.282   3.281   3.784 -1.5460 -0.9092 -2.5653
12114TIP3   OH257832   5.180   6.026  15.850 -0.6278 -0.5693  0.3738
12114TIP3    H157833   5.181   6.108  15.899 -1.1855 -0.3743  0.0727
12114TIP3    H257834   5.177   6.053  15.758  0.4376 -0.9273  0.2279
12115TIP3   OH257835   4.677   3.707   0.835 -0.2697  0.0184  0.6466
12115TIP3    H157836   4.588   3.741   0.833 -1.7965 -3.5902  0.6116
12115TIP3    H257837   4.715   3.736   0.752 -2.3701 -0.6280 -0.6138
12116TIP3   OH257838   2.175   3.433   3.748 -0.1974  0.8379 -0.3240
12116TIP3    H157839   2.087   3.465   3.729 -0.5143  0.9719  1.2738
12116TIP3    H257840   2.175   3.342   3.717 -0.6785  1.0390 -0.9249
12117TIP3   OH257841   4.626   0.234   1.924 -0.3092  0.3500 -0.0517
12117TIP3    H157842   4.578   0.313   1.900  0.2793  0.9230  0.6260
12117TIP3    H257843   4.642   0.189   1.841  1.7683  2.3145 -0.8042
12118TIP3   OH257844   0.702   6.535   4.002 -0.2130  0.2807 -0.0770
12118TIP3    H157845   0.696   6.548   3.907 -1.5661  1.1170  0.0974
12118TIP3    H257846   0.642   6.463   4.021 -0.2961  0.4207  0.2009
12119TIP3   OH257847   0.564   0.449   6.821  0.0629 -0.5462 -0.2094
12119TIP3    H157848   0.559   0.484   6.910  1.4794  2.0100 -1.0292
12119TIP3    H257849   0.493   0.493   6.774  0.7801 -0.0816 -0.8732
12120TIP3   OH257850   2.005   0.953   3.824  0.2185  0.1253  0.2962
12120TIP3    H157851   1.936   1.012   3.855 -1.4587 -1.1111 -0.8922
12120TIP3    H257852   1.994   0.874   3.876 -0.0160 -0.4763 -0.6291
12121TIP3   OH257853   4.108   4.895   2.239  0.6531 -0.0723  0.0302
12121TIP3    H157854   4.092   4.867   2.149  0.0159 -1.1522  0.4624
12121TIP3    H257855   4.203   4.897   2.247  0.7775  1.9226 -1.2186
12122TIP3   OH257856   1.816   4.260  13.504  0.3068 -0.4975  0.9015
12122TIP3    H157857   1.869   4.340  13.510  0.0845 -0.2347 -0.4758
12122TIP3    H257858   1.822   4.222  13.592 -1.7800  2.3831  2.4842
12123TIP3   OH257859   3.045   4.931   4.679 -0.3511 -0.2143  0.3102
12123TIP3    H157860   3.112   4.864   4.669 -0.8175 -0.4327 -1.7773
12123TIP3    H257861   2.964   4.889   4.649 -1.3949  0.1828  2.3403
12124TIP3   OH257862   4.669   1.412   0.485  0.1988  0.1413  0.5320
12124TIP3    H157863   4.746   1.395   0.539  0.4798  2.4980  0.9824
12124TIP3    H257864   4.703   1.456   0.407 -0.6472  0.8400  0.5414
12125TIP3   OH257865   4.559   0.449   6.289  0.0920  0.2860  0.8291
12125TIP3    H157866   4.651   0.426   6.301  0.3189  0.6058 -0.1560
12125TIP3    H257867   4.562   0.535   6.247 -0.6065 -0.2916 -0.4800
12126TIP3   OH257868   3.805   0.331   6.519  0.1639  0.4845 -0.6937
12126TIP3    H157869   3.879   0.391   6.531  0.3197  0.3223 -0.8392
12126TIP3    H257870   3.840   0.261   6.465  0.6596 -0.9172  1.3178
12127TIP3   OH257871   4.261   4.183  14.926 -0.0836 -0.2371 -0.4182
12127TIP3    H157872   4.216   4.103  14.952  0.5704 -0.6933 -0.6610
12127TIP3    H257873   4.191   4.244  14.902 -0.6587 -0.2541  1.0932
12128TIP3   OH257874   3.709   5.490   6.174  0.3548  0.0932  0.7152
12128TIP3    H157875   3.719   5.508   6.267  0.3705  0.0693  0.7182
12128TIP3    H257876   3.798   5.495   6.139  0.3401  0.1703  0.6893
12129TIP3   OH257877   4.917   0.495   0.337 -0.5767  0.4781  0.1067
12129TIP3    H157878   4.943   0.489   0.245 -0.6495 -0.5565  0.1392
12129TIP3    H257879   4.842   0.436   0.345  0.0129 -0.1933  1.0215
12130TIP3   OH257880   5.971   5.240   1.757  0.7972 -0.1265 -0.1681
12130TIP3    H157881   6.003   5.274   1.840 -1.5877  0.9287  0.3942
12130TIP3    H257882   5.911   5.170   1.780  0.4491 -0.1291 -1.0262
12131TIP3   OH257883   6.085   3.614  11.849 -0.4464 -0.7172 -0.1535
12131TIP3    H157884   6.163   3.608  11.903 -0.7653 -1.5298  0.2376
12131TIP3    H257885   6.018   3.566  11.898 -1.2338  0.0905 -0.4067
12132TIP3   OH257886   6.174   0.107  17.006 -0.0270  0.3615 -0.0886
12132TIP3    H157887   6.107   0.086  17.071 -1.2905  1.1440 -1.0802
12132TIP3    H257888   6.151   0.195  16.975  1.6033  0.7486 -0.3060
12133TIP3   OH257889   3.764   2.250   3.773 -0.0144 -0.2054  0.3669
12133TIP3    H157890   3.849   2.208   3.790 -0.0083  0.1437  1.2889
12133TIP3    H257891   3.747   2.300   3.853  0.2865  2.1245 -0.9457
12134TIP3   OH257892   0.318   3.328  15.355  0.0009  0.3681  1.0894
12134TIP3    H157893   0.336   3.308  15.263  1.1546  1.1892  1.1085
12134TIP3    H257894   0.323   3.424  15.360  0.2153  0.3180  2.0561
12135TIP3   OH257895   6.793   2.277   5.973 -0.9018 -0.3396 -0.5539
12135TIP3    H157896   6.750   2.352   6.016 -3.2849 -0.0888 -3.0882
12135TIP3    H257897   6.881   2.276   6.010 -0.9444  3.3692  0.0401
12136TIP3   OH257898   6.763   2.335   4.351 -0.1054 -0.5330 -0.0904
12136TIP3    H157899   6.819   2.383   4.290  0.3512 -0.0445  0.7006
12136TIP3    H257900   6.678   2.330   4.307  0.4431 -0.9593 -1.1450
12137TIP3   OH257901   4.865   6.781  16.750  0.0532  0.3765 -0.4961
12137TIP3    H157902   4.776   6.752  16.726  0.5497 -0.5095 -1.3513
12137TIP3    H257903   4.912   6.699  16.768  0.6026  0.8622  0.3012
12138TIP3   OH257904   4.896   5.417   2.180  0.0785  0.0070 -0.0444
12138TIP3    H157905   4.990   5.435   2.183  0.0287  0.5204 -1.0668
12138TIP3    H257906   4.859   5.465   2.254  0.4173  1.2036 -0.6273
12139TIP3   OH257907   5.333   3.680   2.085 -0.1420  0.0526  0.0313
12139TIP3    H157908   5.261   3.659   2.026  0.4886 -0.9438 -0.4243
12139TIP3    H257909   5.353   3.596   2.128  0.2609  0.4763  0.6826
12140TIP3   OH257910   6.728   6.322   4.696  0.4256  0.1409 -0.6488
12140TIP3    H157911   6.815   6.294   4.724  0.9027  1.3261 -0.8999
12140TIP3    H257912   6.677   6.325   4.777  0.9112  0.4538 -0.3493
12141TIP3   OH257913   2.734   3.423   5.122 -0.3995 -0.0595  0.3520
12141TIP3    H157914   2.818   3.466   5.140 -0.4383  0.0381  0.2984
12141TIP3    H257915   2.673   3.464   5.183 -0.5022  0.1749  0.0879
12142TIP3   OH257916   2.535   3.417  15.931  0.0111  0.2837  0.0622
12142TIP3    H157917   2.497   3.463  15.856 -0.2015 -1.4902 -0.9721
12142TIP3    H257918   2.525   3.324  15.910  1.5435 -0.2562  1.4940
12143TIP3   OH257919   2.739   5.280   1.154 -0.2288 -0.5964  0.3803
12143TIP3    H157920   2.740   5.207   1.216 -0.4275  1.2104  2.6338
12143TIP3    H257921   2.654   5.323   1.168 -0.0965  0.1007 -0.8407
12144TIP3   OH257922   0.679   2.800   4.228 -0.1487 -0.8351  0.1236
12144TIP3    H157923   0.621   2.765   4.296  0.2924 -0.4056  0.7365
12144TIP3    H257924   0.713   2.881   4.266  0.3549 -0.7584 -0.4818
12145TIP3   OH257925   3.371   3.847  15.944 -0.2952 -0.3033 -0.6836
12145TIP3    H157926   3.333   3.781  16.002 -0.5255  1.7497  1.6846
12145TIP3    H257927   3.300   3.910  15.929  0.3908  0.3116 -1.4675
12146TIP3   OH257928   1.194   2.716  11.538  0.1273  0.3026  0.8644
12146TIP3    H157929   1.241   2.748  11.462 -1.0310 -0.5802 -0.2639
12146TIP3    H257930   1.174   2.624  11.518 -0.6444  0.1909  2.0018
12147TIP3   OH257931   4.261   0.118   2.426  0.5760 -0.1739  0.0154
12147TIP3    H157932   4.354   0.143   2.425  0.6513 -0.1003  2.5102
12147TIP3    H257933   4.262   0.022   2.429  0.5609 -0.1725  0.0594
12148TIP3   OH257934   4.020   1.440  13.222  0.0089  0.5166 -0.8043
12148TIP3    H157935   3.948   1.380  13.242 -0.9157  2.1994  1.3091
12148TIP3    H257936   3.981   1.507  13.166  0.2805  0.6966 -0.7834
12149TIP3   OH257937   6.474   1.775  13.848  0.4373 -0.4233  0.2043
12149TIP3    H157938   6.505   1.818  13.927 -1.9242 -0.1282  1.0612
12149TIP3    H257939   6.403   1.832  13.816 -0.6702 -2.0612 -0.3924
12150TIP3   OH257940   2.248   0.547   2.402  0.2609 -0.1061  0.0096
12150TIP3    H157941   2.343   0.558   2.409  0.3818 -1.5992  1.1411
12150TIP3    H257942   2.237   0.462   2.359 -0.5311 -0.7983  1.5335
12151TIP3   OH257943   2.294   3.643  12.362 -0.0324  0.0029 -0.2860
12151TIP3    H157944   2.239   3.582  12.312 -0.4670 -0.0632  0.2709
12151TIP3    H257945   2.260   3.730  12.338 -0.4347 -0.0404  0.1122
12152TIP3   OH257946   4.843   0.641  16.586  0.4690 -0.2456  0.2362
12152TIP3    H157947   4.886   0.638  16.672  1.5585  0.0055 -0.2790
12152TIP3    H257948   4.750   0.644  16.606  0.7063 -0.0847  1.4143
12153TIP3   OH257949   1.182   2.861   4.728 -0.0673  0.2766 -0.5130
12153TIP3    H157950   1.210   2.770   4.723  0.4284  0.3769  0.2732
12153TIP3    H257951   1.180   2.891   4.637 -2.0305 -1.0244 -0.9514
12154TIP3   OH257952   0.084   6.243  15.389 -0.5718 -0.5093  0.7368
12154TIP3    H157953   0.064   6.331  15.419 -0.8570  0.3509 -1.7259
12154TIP3    H257954   0.026   6.186  15.440 -1.4170  0.8773  1.3639
12155TIP3   OH257955   4.850   5.704  11.781  0.0512  0.7956  0.5270
12155TIP3    H157956   4.919   5.643  11.755  0.6321  0.9121  1.7241
12155TIP3    H257957   4.845   5.768  11.710  0.7812  0.4664  0.1726
12156TIP3   OH257958   5.436   4.214  12.507  0.1369  0.7920 -0.5841
12156TIP3    H157959   5.446   4.250  12.596 -0.9861 -1.1857  0.3962
12156TIP3    H257960   5.354   4.252  12.475 -0.7151 -0.3027  0.2038
12157TIP3   OH257961   1.816   4.158  13.763 -0.8942 -0.1377 -0.0068
12157TIP3    H157962   1.752   4.218  13.800  0.1936  1.6588 -0.9201
12157TIP3    H257963   1.882   4.147  13.831 -0.2278  1.0943 -0.4291
12158TIP3   OH257964   6.399   2.062   4.192  0.3517  0.0072 -0.0008
12158TIP3    H157965   6.472   2.046   4.132 -0.5338  0.5275 -1.2572
12158TIP3    H257966   6.375   1.975   4.224  1.4060 -0.1836  0.3266
12159TIP3   OH257967   1.503   5.288  14.045  0.2850  0.5519 -0.1028
12159TIP3    H157968   1.544   5.350  14.106  0.5213  0.5705 -0.2768
12159TIP3    H257969   1.527   5.202  14.080  0.0074  0.5596  0.1057
12160TIP3   OH257970   6.237   6.234  14.556  0.2165 -0.5021  0.1514
12160TIP3    H157971   6.165   6.215  14.497  0.6263 -0.6330 -0.3105
12160TIP3    H257972   6.211   6.315  14.601 -0.3909 -0.7670  0.2835
12161TIP3   OH257973   1.950   5.785  15.523 -0.1781 -0.0238 -0.1747
12161TIP3    H157974   2.017   5.852  15.512  0.1809 -0.4331 -0.5151
12161TIP3    H257975   1.997   5.702  15.518 -0.4786 -0.3055  1.1789
12162TIP3   OH257976   4.581   0.772  16.928  0.0887 -0.2729  0.0304
12162TIP3    H157977   4.584   0.713  17.003  0.4834  0.1957  0.3953
12162TIP3    H257978   4.489   0.774  16.902 -0.0569 -0.4070  0.5324
12163TIP3   OH257979   0.569   2.118  12.097 -0.0880  0.3566  0.3524
12163TIP3    H157980   0.548   2.207  12.126 -0.0894  1.1311 -1.8316
12163TIP3    H257981   0.664   2.118  12.087 -0.1182  0.2473  0.0328
12164TIP3   OH257982   1.877   2.535   2.030  0.4909 -0.3836  0.0359
12164TIP3    H157983   1.910   2.483   1.957  0.0354  0.7002 -0.9715
12164TIP3    H257984   1.866   2.472   2.102  0.4559 -1.5645 -0.9829
12165TIP3   OH257985   4.618   6.248  12.789  0.3535  0.0673  0.3494
12165TIP3    H157986   4.641   6.181  12.725 -0.6785  2.1113 -2.3845
12165TIP3    H257987   4.522   6.250  12.789  0.3483  2.3423 -0.6555
12166TIP3   OH257988   6.071   2.663  16.119  0.5991 -0.0105  0.1539
12166TIP3    H157989   6.147   2.607  16.105  0.8858  0.4411 -0.1558
12166TIP3    H257990   6.108   2.750  16.135  0.1292  0.5835 -1.7170
12167TIP3   OH257991   0.571   0.799  14.772  0.5147  0.3306  0.0462
12167TIP3    H157992   0.513   0.736  14.728 -0.0056  0.1487  0.9415
12167TIP3    H257993   0.511   0.863  14.810  0.8114 -0.2674  1.6209
12168TIP3   OH257994   5.551   1.014  15.335 -0.1164 -0.2586  0.0378
12168TIP3    H157995   5.611   1.088  15.324 -0.0663 -0.0813  1.3324
12168TIP3    H257996   5.561   0.962  15.255  1.3157  0.0845 -0.0245
12169TIP3   OH257997   0.819   4.946   0.046 -0.4768 -0.3202 -0.3290
12169TIP3    H157998   0.851   5.018   0.101  0.3553 -1.5707  0.8975
12169TIP3    H257999   0.730   4.931   0.076 -0.4577 -0.1709 -0.1937
12170TIP3   OH258000   0.022   5.680   5.010  0.4809  0.7988  0.1235
12170TIP3    H158001  -0.002   5.695   4.918  1.0239  0.6203 -0.0508
12170TIP3    H258002   0.117   5.682   5.010  0.6472 -2.5188  0.0926
12171TIP3   OH258003   0.744   4.930  13.483  0.1665 -0.0023 -0.7187
12171TIP3    H158004   0.773   5.022  13.484 -0.6033  0.2518 -0.0479
12171TIP3    H258005   0.781   4.893  13.563 -0.2626 -0.0297 -0.5314
12172TIP3   OH258006   2.365   6.762  13.575 -0.0819  0.3853 -0.0784
12172TIP3    H158007   2.298   6.747  13.641 -0.3234  2.2089  0.1299
12172TIP3    H258008   2.384   6.675  13.540 -3.3957 -0.1192 -0.9946
12173TIP3   OH258009   1.731   2.724   5.570  0.5379 -0.6111 -0.3857
12173TIP3    H158010   1.636   2.711   5.568  0.6594 -2.3044  1.3993
12173TIP3    H258011   1.760   2.701   5.482 -0.8117  1.2890 -1.3777
12174TIP3   OH258012   3.763   1.649   1.423  0.5091  0.2849  0.5257
12174TIP3    H158013   3.679   1.691   1.440  1.0689  1.1387  1.2392
12174TIP3    H258014   3.779   1.664   1.330 -1.0103 -1.5557 -0.1018
12175TIP3   OH258015   2.123   4.595   3.951  0.1019 -0.2556  0.6500
12175TIP3    H158016   2.204   4.555   3.981 -1.1426 -1.0657  3.2737
12175TIP3    H258017   2.107   4.666   4.013 -0.4142  0.9094 -0.7769
12176TIP3   OH258018   6.718   5.031  11.060  0.2234 -0.2267  0.0667
12176TIP3    H158019   6.807   5.028  11.026  1.0421  0.6886  1.9929
12176TIP3    H258020   6.711   4.955  11.118 -0.3086 -0.3554 -0.1530
12177TIP3   OH258021   2.897   4.850   5.810 -0.2294  0.2536  0.2278
12177TIP3    H158022   2.803   4.866   5.815 -0.3355 -0.2731 -0.1305
12177TIP3    H258023   2.935   4.919   5.865 -0.8226  0.4410  0.4116
12178TIP3   OH258024   4.844   4.156  12.191  0.1318 -0.3075 -0.2571
12178TIP3    H158025   4.892   4.187  12.114  0.8946 -0.7370  0.0326
12178TIP3    H258026   4.851   4.061  12.186  0.2638 -0.3357  0.3834
12179TIP3   OH258027   0.439   2.729  14.348 -0.8820 -0.6187  0.0972
12179TIP3    H158028   0.525   2.695  14.372 -0.5482 -0.0065 -0.2110
12179TIP3    H258029   0.420   2.795  14.415 -1.1179 -0.7531  0.1654
12180TIP3   OH258030   4.862   0.543   2.548 -0.0727  0.0840 -0.7378
12180TIP3    H158031   4.942   0.523   2.499  1.1443 -2.0159  1.8087
12180TIP3    H258032   4.884   0.620   2.599 -0.2797  0.4830 -1.2428
12181TIP3   OH258033   3.141   3.227   4.882  0.4680  0.3854 -0.3886
12181TIP3    H158034   3.143   3.151   4.823  0.7743 -0.4001  0.6020
12181TIP3    H258035   3.190   3.198   4.959  0.6811  1.6383 -0.0387
12182TIP3   OH258036   4.239   4.353   2.588 -0.3287  0.0599 -0.0141
12182TIP3    H158037   4.323   4.399   2.582  0.6080 -1.3552  1.3038
12182TIP3    H258038   4.247   4.281   2.525 -0.3008 -0.4223  0.5324
12183TIP3   OH258039   4.581   5.000   1.521  0.1056 -0.0641  0.1281
12183TIP3    H158040   4.553   4.934   1.584 -0.2203 -0.2349 -0.1962
12183TIP3    H258041   4.639   4.953   1.461 -0.2982 -0.1043 -0.2303
12184TIP3   OH258042   0.096   6.019   3.314  0.0823 -0.0642 -0.8320
12184TIP3    H158043   0.061   5.979   3.235 -1.9961 -1.2364  0.5996
12184TIP3    H258044   0.019   6.038   3.368  1.2271  2.8681 -0.0246
12185TIP3   OH258045   1.304   5.045  13.439  0.0782  0.0856 -0.2245
12185TIP3    H158046   1.208   5.039  13.444 -0.1530  0.4127 -2.8607
12185TIP3    H258047   1.326   5.001  13.358  2.0958  0.8037 -0.1100
12186TIP3   OH258048   1.550   2.329   1.343 -0.1117  0.0964 -0.1476
12186TIP3    H158049   1.629   2.275   1.335  0.5095  0.8639  0.6157
12186TIP3    H258050   1.525   2.320   1.435 -0.4824  0.4539 -0.2130
12187TIP3   OH258051   6.755   1.397  14.723  0.5471  0.4375 -0.3616
12187TIP3    H158052   6.779   1.480  14.681  0.2669 -0.3077 -2.0846
12187TIP3    H258053   6.707   1.349  14.655  1.6945 -1.6074  0.2013
12188TIP3   OH258054   1.871   2.202   3.606  0.4824  0.1516  0.1398
12188TIP3    H158055   1.898   2.124   3.654  3.2252  1.0574  0.2958
12188TIP3    H258056   1.808   2.245   3.663  0.2747 -1.0651  0.8514
12189TIP3   OH258057   2.207   2.047   0.159 -0.5881  0.6020 -0.4539
12189TIP3    H158058   2.276   1.984   0.183 -0.9924 -1.1452 -3.3331
12189TIP3    H258059   2.126   1.997   0.167 -1.1457  1.4530 -0.7245
12190TIP3   OH258060   1.060   5.144  11.044  0.3381 -0.0237  0.1260
12190TIP3    H158061   1.061   5.149  10.948 -0.5630  0.2371  0.1149
12190TIP3    H258062   1.014   5.224  11.071 -0.6342 -0.7593  0.7109
12191TIP3   OH258063   0.623   5.165   0.204  0.0943  0.2339 -0.2293
12191TIP3    H158064   0.592   5.085   0.161  0.3731 -0.2197  0.3996
12191TIP3    H258065   0.582   5.236   0.154  0.5413 -0.2645 -1.3426
12192TIP3   OH258066   3.758   0.270   2.873 -0.0307 -0.3991 -0.2440
12192TIP3    H158067   3.789   0.188   2.910 -2.2477 -0.9982  0.4176
12192TIP3    H258068   3.758   0.255   2.778 -0.6814 -1.2685 -0.1150
12193TIP3   OH258069   0.072   6.556   6.181 -0.1640  0.2092 -0.0165
12193TIP3    H158070   0.108   6.509   6.256  1.9490  1.6933  0.0066
12193TIP3    H258071   0.021   6.628   6.220  0.6367  0.7680  0.0243
12194TIP3   OH258072   4.629   1.985   3.267  0.1633  0.2250  0.2913
12194TIP3    H158073   4.618   1.931   3.189  1.1207  1.7750 -0.9855
12194TIP3    H258074   4.545   2.028   3.279 -0.2637 -0.6823  0.6729
12195TIP3   OH258075   1.091   6.641  12.501 -0.2033 -0.6827  0.0257
12195TIP3    H158076   1.186   6.644  12.489 -0.3062 -1.1375 -1.0589
12195TIP3    H258077   1.078   6.585  12.576  0.4164  0.1618  0.7916
12196TIP3   OH258078   1.111   5.024   2.180 -0.1935  0.5585 -0.9373
12196TIP3    H158079   1.149   5.088   2.240 -1.7271  1.6431 -1.0417
12196TIP3    H258080   1.156   5.040   2.097 -1.0201  2.0365 -1.1455
12197TIP3   OH258081   5.120   1.137  12.999 -0.5564 -0.4249  0.0341
12197TIP3    H158082   5.170   1.066  13.040  0.4053  0.2477  0.0589
12197TIP3    H258083   5.185   1.186  12.947 -1.1681  0.4973  0.1095
12198TIP3   OH258084   5.623   3.019  10.853 -0.2210 -0.2569  0.0443
12198TIP3    H158085   5.562   3.092  10.860  0.0200 -0.0727  0.2464
12198TIP3    H258086   5.613   2.969  10.934 -0.9970 -0.9375 -0.4528
12199TIP3   OH258087   5.047   3.901  15.314 -0.4383 -0.1872 -0.4343
12199TIP3    H158088   5.127   3.930  15.359 -1.0061  1.0871 -0.1832
12199TIP3    H258089   4.978   3.955  15.353 -1.0286  0.6369 -2.5267
12200TIP3   OH258090   1.260   2.071  15.467 -0.0538 -0.1529 -0.2814
12200TIP3    H158091   1.281   1.994  15.520 -2.9723 -1.3377 -0.6624
12200TIP3    H258092   1.262   2.039  15.376  0.8116  0.7829 -0.6000
12201TIP3   OH258093   2.160   2.602   2.127 -0.8056  0.3310 -0.8914
12201TIP3    H158094   2.133   2.524   2.078 -0.4988  0.1270 -0.7381
12201TIP3    H258095   2.208   2.568   2.202 -0.2687  0.6816 -1.0693
12202TIP3   OH258096   2.021   1.997   3.427 -0.2589  0.2726 -0.0699
12202TIP3    H158097   1.956   2.067   3.415 -0.3663  0.1865  0.0088
12202TIP3    H258098   2.025   1.984   3.522  0.2677  0.6488 -0.0337
12203TIP3   OH258099   2.310   0.590  16.235  0.7274 -0.8735  0.1541
12203TIP3    H158100   2.265   0.568  16.154  1.1237 -1.3811  0.0755
12203TIP3    H258101   2.271   0.674  16.261 -0.5597 -1.4941  0.3014
12204TIP3   OH258102   1.820   1.778  13.323  0.2302 -0.0166  0.1843
12204TIP3    H158103   1.833   1.774  13.418 -2.7916 -0.7385  0.6672
12204TIP3    H258104   1.826   1.871  13.302 -1.5654  0.4591  1.5522
12205TIP3   OH258105   5.495   3.381  13.032  0.2076  0.0833 -0.4979
12205TIP3    H158106   5.560   3.377  13.102 -0.4663  1.9428  0.3145
12205TIP3    H258107   5.477   3.290  13.011  1.2303 -0.5124  1.0130
12206TIP3   OH258108   2.053   3.921  16.893  0.1022 -0.4700 -0.0987
12206TIP3    H158109   2.145   3.944  16.878 -0.3262  0.5613 -1.2821
12206TIP3    H258110   2.056   3.828  16.916  1.5435 -0.1707  1.1447
12207TIP3   OH258111   5.061   2.001  12.463  0.2520 -0.5608  0.0517
12207TIP3    H158112   5.121   2.049  12.407  0.9631 -0.7295  0.6646
12207TIP3    H258113   4.974   2.035  12.440  0.8581  2.6036  1.9618
12208TIP3   OH258114   0.805   0.956   6.755 -0.7259 -0.1084  0.2995
12208TIP3    H158115   0.893   0.982   6.727 -2.2138  1.7909 -3.1547
12208TIP3    H258116   0.796   0.866   6.724 -0.0008 -0.3628  0.7926
12209TIP3   OH258117   6.179   2.735  15.772 -0.5243  0.5478  0.0191
12209TIP3    H158118   6.236   2.759  15.845  2.8931 -1.9665 -1.5301
12209TIP3    H258119   6.143   2.649  15.796  0.2642 -0.0877 -0.9375
12210TIP3   OH258120   4.373   1.502  14.240  0.0951 -0.6343 -0.2835
12210TIP3    H158121   4.282   1.506  14.211  0.1222 -0.4889 -0.3479
12210TIP3    H258122   4.418   1.453  14.172 -0.3016 -2.4036  0.6699
12211TIP3   OH258123   1.857   3.637  16.839 -0.5629  0.0322  0.1865
12211TIP3    H158124   1.888   3.566  16.896 -0.2060  0.0323 -0.0078
12211TIP3    H258125   1.873   3.604  16.750 -1.4251 -0.1083  0.0785
12212TIP3   OH258126   1.598   6.142   5.226 -0.0903  0.5672 -0.9387
12212TIP3    H158127   1.689   6.124   5.202 -0.4726 -1.7927 -0.7659
12212TIP3    H258128   1.596   6.129   5.321 -0.9233 -0.9467 -1.1470
12213TIP3   OH258129   4.405   0.506  13.478  0.7372 -0.0758 -0.2728
12213TIP3    H158130   4.385   0.509  13.384  1.0136 -3.0728 -0.5455
12213TIP3    H258131   4.484   0.559  13.488  0.6669  0.3468 -1.7211
12214TIP3   OH258132   0.613   6.142  16.427  0.3247 -0.0921  0.0093
12214TIP3    H158133   0.621   6.237  16.436  2.2348 -0.2732  0.6592
12214TIP3    H258134   0.610   6.127  16.333 -0.7684  0.6421 -0.0870
12215TIP3   OH258135   0.933   3.217   5.024 -0.0854  0.3735  0.2972
12215TIP3    H158136   0.872   3.169   5.080  0.2215 -1.6775 -1.0158
12215TIP3    H258137   0.999   3.251   5.084 -0.6315 -0.3715  1.3499
12216TIP3   OH258138   0.153   6.500   4.110 -0.0244 -0.2592 -0.3623
12216TIP3    H158139   0.102   6.480   4.031 -0.0996 -1.4093 -0.0372
12216TIP3    H258140   0.196   6.582   4.090  2.1686 -1.8488 -2.7337
12217TIP3   OH258141   6.786   4.239  13.432  0.0129 -0.1210 -0.0883
12217TIP3    H158142   6.802   4.176  13.503  1.1109  0.6949  0.4180
12217TIP3    H258143   6.863   4.294  13.431  0.6518 -0.9082 -2.8263
12218TIP3   OH258144   5.594   0.743   6.251  0.4914  0.3181 -0.7025
12218TIP3    H158145   5.677   0.706   6.283 -0.1116  0.4028  1.0824
12218TIP3    H258146   5.567   0.804   6.320 -2.0724 -1.2267 -0.1835
12219TIP3   OH258147   4.323   2.432  11.316 -0.0421 -0.1520  0.6829
12219TIP3    H158148   4.300   2.389  11.234 -0.4164  3.7934 -1.5128
12219TIP3    H258149   4.418   2.420  11.323  0.5478  1.8872 -2.0725
12220TIP3   OH258150   6.382   1.009  11.041  0.2762  0.5626  0.4220
12220TIP3    H158151   6.322   1.011  10.966 -0.1091 -1.6129  0.6107
12220TIP3    H258152   6.462   1.051  11.009  0.2151 -0.5638 -1.3189
12221TIP3   OH258153   3.302   3.332   3.143  0.5115 -0.1364  0.0654
12221TIP3    H158154   3.262   3.260   3.191 -1.1103 -0.1933 -1.2848
12221TIP3    H258155   3.230   3.370   3.093  2.0866 -0.1976 -2.4265
12222TIP3   OH258156   2.126   1.105  12.202 -0.7269 -0.2175  0.1616
12222TIP3    H158157   2.201   1.055  12.233 -0.7105 -0.7645 -0.7263
12222TIP3    H258158   2.081   1.133  12.282 -0.5890 -1.4304  0.6775
12223TIP3   OH258159   3.882   3.672  15.760 -0.2717  0.3990 -0.0928
12223TIP3    H158160   3.878   3.676  15.664 -0.3924  1.8616 -0.0599
12223TIP3    H258161   3.790   3.670  15.788 -0.2392 -1.2277 -0.0056
12224TIP3   OH258162   0.860   2.866  16.135 -0.0741  0.1332 -0.3991
12224TIP3    H158163   0.858   2.773  16.157 -0.2530  0.3021  0.3242
12224TIP3    H258164   0.773   2.898  16.158  0.3388  0.7073  0.4103
12225TIP3   OH258165   3.694   6.121  11.703  0.1796  0.6714 -0.2064
12225TIP3    H158166   3.690   6.191  11.768  0.8741  0.5155  0.0098
12225TIP3    H258167   3.605   6.114  11.670 -0.3044  0.3807  1.1094
12226TIP3   OH258168   2.348   0.128   2.104  0.0569 -0.4983  0.4365
12226TIP3    H158169   2.399   0.160   2.030  1.1033  0.4683  1.5335
12226TIP3    H258170   2.363   0.033   2.105 -1.2148 -0.7667 -1.4638
12227TIP3   OH258171   5.475   4.953   0.770 -0.1463  0.5475 -0.1775
12227TIP3    H158172   5.522   4.946   0.687  1.2022 -0.7251  0.6341
12227TIP3    H258173   5.520   5.023   0.817  1.8927 -1.4556  1.0865
12228TIP3   OH258174   2.173   2.895   1.379  0.4598  0.3926 -0.1177
12228TIP3    H158175   2.099   2.875   1.436 -0.3815  1.1953 -0.9115
12228TIP3    H258176   2.240   2.929   1.439 -0.6108  1.7654  0.3471
12229TIP3   OH258177   3.839   0.167  17.178 -0.2311  0.0441 -0.0439
12229TIP3    H158178   3.825   0.084  17.133 -1.4242  0.0390  0.2946
12229TIP3    H258179   3.922   0.157  17.223 -0.5180 -1.0989  0.2631
12230TIP3   OH258180   5.695   2.647   0.883  0.0533 -0.5057 -0.3413
12230TIP3    H158181   5.721   2.658   0.975 -0.1420 -0.0420 -0.3361
12230TIP3    H258182   5.753   2.580   0.849  0.1922 -0.6096  0.0991
12231TIP3   OH258183   0.113   2.063   3.130  0.3473  0.3532 -0.8751
12231TIP3    H158184   0.196   2.067   3.176  0.2112 -2.5550 -0.1540
12231TIP3    H258185   0.133   2.020   3.047 -0.5306 -1.5672 -0.1634
12232TIP3   OH258186   0.490   0.224   1.504  0.0087 -0.0963  0.2973
12232TIP3    H158187   0.519   0.247   1.415 -1.0526 -1.2011 -0.3566
12232TIP3    H258188   0.555   0.160   1.534  0.1143 -0.0595  0.1516
12233TIP3   OH258189   2.681   1.497   5.539  0.4836  0.9784 -0.1511
12233TIP3    H158190   2.685   1.579   5.490 -0.5250 -0.4858 -2.8469
12233TIP3    H258191   2.587   1.482   5.553  0.6682  0.3736  0.4965
12234TIP3   OH258192   4.284   1.560   4.886  0.0986  0.1518 -0.1210
12234TIP3    H158193   4.194   1.573   4.858  0.1389  1.5666  0.3182
12234TIP3    H258194   4.314   1.485   4.835 -0.1790  1.9194 -3.1699
12235TIP3   OH258195   5.445   2.947   5.838 -0.3438  0.6475  0.1354
12235TIP3    H158196   5.426   2.902   5.756  2.2181  0.9878 -0.7455
12235TIP3    H258197   5.523   2.902   5.872 -0.1808  1.7831  1.3252
12236TIP3   OH258198   1.759   5.999  12.367  0.2417 -0.1158  0.0147
12236TIP3    H158199   1.786   5.986  12.458  0.0220  0.3327  0.1504
12236TIP3    H258200   1.673   5.957  12.361 -1.0008  2.1374  0.7638
12237TIP3   OH258201   0.828   0.350   1.535 -0.0562 -0.1559  0.1077
12237TIP3    H158202   0.779   0.270   1.554 -0.0324 -0.5637 -1.4519
12237TIP3    H258203   0.907   0.320   1.490 -0.4976  0.7888 -1.3630
12238TIP3   OH258204   3.306   3.774   0.257  0.5989  0.4966 -0.4106
12238TIP3    H158205   3.296   3.680   0.243  1.2133  0.2031  0.9472
12238TIP3    H258206   3.288   3.813   0.171  0.6849 -0.8806 -1.0859
12239TIP3   OH258207   1.586   0.613  16.754  0.5765 -0.1073 -0.0439
12239TIP3    H158208   1.555   0.526  16.778  0.2181 -0.2411 -0.9316
12239TIP3    H258209   1.667   0.625  16.803  0.3366 -0.7158  0.5072
12240TIP3   OH258210   5.985   4.689   4.913  0.7081  0.1748 -0.0338
12240TIP3    H158211   5.947   4.665   4.829 -2.9615  1.2491  1.1161
12240TIP3    H258212   5.983   4.785   4.914  1.7488  0.2016  0.8504
12241TIP3   OH258213   1.352   2.091   5.756  0.2476 -0.1250  0.0157
12241TIP3    H158214   1.439   2.125   5.778 -0.1884  0.0662  1.5913
12241TIP3    H258215   1.322   2.048   5.836 -0.9441 -0.5642 -0.6361
12242TIP3   OH258216   6.005   4.835  14.429  0.0612 -0.0219 -0.2278
12242TIP3    H158217   5.976   4.891  14.501  1.9775  1.9152 -0.8542
12242TIP3    H258218   5.976   4.747  14.454 -2.2296  1.0631  1.2621
12243TIP3   OH258219   2.938   4.308  15.952 -0.3759 -0.2294  0.0809
12243TIP3    H158220   2.998   4.363  15.902 -0.6431  0.0197  0.0341
12243TIP3    H258221   2.856   4.357  15.955 -0.1460  0.1132  1.4025
12244TIP3   OH258222   6.516   1.596  15.619  0.1136 -0.2610  0.1320
12244TIP3    H158223   6.548   1.645  15.543 -0.4007  0.6261  0.4741
12244TIP3    H258224   6.431   1.562  15.591 -1.6738  2.8190  1.3185
12245TIP3   OH258225   3.191   2.248  14.401  0.0975 -0.7805  0.1597
12245TIP3    H158226   3.227   2.205  14.324 -0.3334  0.9021 -1.0340
12245TIP3    H258227   3.261   2.244  14.466  1.1427 -0.6582 -0.9269
12246TIP3   OH258228   5.005   4.787  11.501  0.0993 -0.2649  0.0307
12246TIP3    H158229   5.046   4.750  11.422  0.7618  1.7523 -0.6280
12246TIP3    H258230   5.075   4.789  11.565  0.0166 -0.2777  0.1211
12247TIP3   OH258231   5.429   6.770  11.390  0.2378  0.0680 -0.0540
12247TIP3    H158232   5.469   6.815  11.316  0.3430  0.6780  0.3638
12247TIP3    H258233   5.466   6.682  11.387 -0.0313 -0.0152 -0.9262
12248TIP3   OH258234   5.379   3.173   5.230  0.1670 -0.3987 -0.1220
12248TIP3    H158235   5.440   3.240   5.199 -1.4123  1.1531  0.0016
12248TIP3    H258236   5.332   3.146   5.152 -0.3752 -0.1097  0.1011
12249TIP3   OH258237   4.573   1.164  11.432  0.1588  0.0274 -0.3203
12249TIP3    H158238   4.556   1.257  11.444  2.9982  0.6427 -0.5345
12249TIP3    H258239   4.564   1.150  11.338 -1.0318 -0.1195 -0.1998
12250TIP3   OH258240   2.659   1.908  12.071 -0.3960  0.4915 -0.3257
12250TIP3    H158241   2.584   1.901  12.012  0.9799  0.7207 -2.2394
12250TIP3    H258242   2.709   1.982  12.036  0.9926 -0.0000  0.5386
12251TIP3   OH258243   2.217   5.858   6.070 -0.3601  0.2605  0.2946
12251TIP3    H158244   2.299   5.886   6.028 -1.2097  1.7322 -0.5059
12251TIP3    H258245   2.230   5.878   6.163  0.2436  0.3422  0.2002
12252TIP3   OH258246   0.606   0.269  11.024  0.2781 -0.1849 -0.1177
12252TIP3    H158247   0.643   0.289  11.110 -1.0318 -0.4930  0.5409
12252TIP3    H258248   0.607   0.352  10.978  0.0327  0.2074  0.5696
12253TIP3   OH258249   4.205   4.632  11.261 -0.0761 -0.4554  0.1442
12253TIP3    H158250   4.265   4.666  11.327 -0.0151 -1.0382  0.3983
12253TIP3    H258251   4.260   4.616  11.185 -0.1732  0.3568 -0.1028
12254TIP3   OH258252   3.445   3.502   0.524 -0.1937 -0.6665 -0.1154
12254TIP3    H158253   3.384   3.439   0.485  1.0119 -1.3967 -0.8927
12254TIP3    H258254   3.469   3.464   0.609  2.5603 -2.7438 -1.6383
12255TIP3   OH258255   2.156   2.016  14.329 -0.7188 -0.7004 -0.5284
12255TIP3    H158256   2.196   2.089  14.282 -0.7724  0.4112  1.0387
12255TIP3    H258257   2.223   1.949  14.332  1.0823  1.0030  1.7786
12256TIP3   OH258258   3.870   4.312   0.535 -0.2283  0.2073 -0.1607
12256TIP3    H158259   3.957   4.296   0.571  0.0656  1.9794  0.0300
12256TIP3    H258260   3.828   4.226   0.533  1.1536 -0.5229  0.7122
12257TIP3   OH258261   6.548   5.450  15.999 -0.2033 -0.3234  0.1262
12257TIP3    H158262   6.611   5.423  16.066  0.0267 -0.6785 -0.2317
12257TIP3    H258263   6.533   5.372  15.946  0.0703  0.1050 -0.6005
12258TIP3   OH258264   5.753   2.811  13.784  0.0598  0.2901  0.4397
12258TIP3    H158265   5.711   2.851  13.860  0.0566  0.7992  0.1744
12258TIP3    H258266   5.688   2.819  13.714  0.5747  1.0550  0.0351
12259TIP3   OH258267   5.813   0.068  15.213  0.4708  0.7523 -0.7019
12259TIP3    H158268   5.884   0.011  15.244  0.7522  0.5789 -1.6503
12259TIP3    H258269   5.799   0.042  15.123 -1.4267  0.1766 -0.2720
12260TIP3   OH258270   4.031   1.610  16.453  0.3434  0.1246 -0.7487
12260TIP3    H158271   4.012   1.610  16.547 -0.2098  0.7810 -0.8532
12260TIP3    H258272   3.967   1.551  16.414  0.3407  0.1332 -0.7582
12261TIP3   OH258273   0.629   3.359  16.976  0.0751  0.2810 -0.0378
12261TIP3    H158274   0.669   3.315  16.900  0.3580  0.4544  0.0099
12261TIP3    H258275   0.584   3.435  16.938  0.2166  0.3678 -0.0355
12262TIP3   OH258276   2.117   0.472  12.333 -0.6653  0.7111 -0.2349
12262TIP3    H158277   2.027   0.438  12.339  0.6519 -3.1174  0.7343
12262TIP3    H258278   2.108   0.557  12.291 -4.6244 -0.0120 -1.2379
12263TIP3   OH258279   5.994   3.350   2.698 -0.4523  0.1726  0.1963
12263TIP3    H158280   5.998   3.255   2.703 -0.0612 -0.0662 -2.7487
12263TIP3    H258281   6.079   3.376   2.660 -1.2759  1.4620 -0.8751
12264TIP3   OH258282   5.995   2.756   2.490  0.3339  0.3484 -0.5622
12264TIP3    H158283   6.045   2.797   2.560 -0.0959 -1.5698  0.9515
12264TIP3    H258284   5.904   2.772   2.513  0.1770 -0.8302 -0.3242
12265TIP3   OH258285   4.837   5.493  13.985  0.4121  0.4955  0.4193
12265TIP3    H158286   4.802   5.406  13.970  0.4248  0.9039 -2.7184
12265TIP3    H258287   4.921   5.493  13.938  0.3951  2.1985  0.3344
12266TIP3   OH258288   4.631   2.824  15.969  0.2287 -0.0625 -0.0217
12266TIP3    H158289   4.572   2.840  15.894  1.0328 -0.0481 -0.6663
12266TIP3    H258290   4.661   2.734  15.957 -1.6841 -1.0238  1.7654
12267TIP3   OH258291   4.430   4.531   4.447  0.1032  0.0785  0.3364
12267TIP3    H158292   4.520   4.564   4.441  0.3563 -0.6067  0.2330
12267TIP3    H258293   4.404   4.517   4.356 -0.1723  0.4358  0.3591
12268TIP3   OH258294   6.580   0.537   6.443  0.2872 -0.0579 -0.3864
12268TIP3    H158295   6.622   0.538   6.529 -0.1030  0.4254 -0.1962
12268TIP3    H258296   6.604   0.452   6.406 -0.8119 -0.9482  0.8438
12269TIP3   OH258297   6.779   0.352   2.005 -0.0675  0.3806  0.4079
12269TIP3    H158298   6.709   0.402   1.964 -2.2171 -1.5040  1.5622
12269TIP3    H258299   6.737   0.306   2.077  2.1375 -1.7041  0.4933
12270TIP3   OH258300   4.691   6.070  16.912  0.3052 -0.0169 -0.0661
12270TIP3    H158301   4.751   6.134  16.874  0.3352 -0.4963 -0.8386
12270TIP3    H258302   4.645   6.119  16.981  1.9984  0.2040  0.9802
12271TIP3   OH258303   0.197   1.715  14.545 -0.2396 -0.3818  0.4403
12271TIP3    H158304   0.112   1.701  14.504 -0.2681 -1.2788  0.7921
12271TIP3    H258305   0.203   1.648  14.612 -0.2885  1.1787  2.0860
12272TIP3   OH258306   1.967   3.871   5.631 -0.7048  0.3300 -0.4583
12272TIP3    H158307   1.938   3.782   5.651 -1.1637  0.4332 -0.6662
12272TIP3    H258308   1.892   3.912   5.589  0.7734 -0.5480 -4.4688
12273TIP3   OH258309   1.810   5.307   3.130  0.5051  0.0849 -0.3003
12273TIP3    H158310   1.757   5.386   3.137 -0.0187 -0.2805  0.0060
12273TIP3    H258311   1.750   5.236   3.156  1.4605 -0.2301  1.1686
12274TIP3   OH258312   6.285   5.296   4.052  0.2227 -0.2695 -0.0881
12274TIP3    H158313   6.380   5.306   4.055  0.3913 -1.7974  1.9652
12274TIP3    H258314   6.269   5.244   3.974  0.7809  1.8964 -1.7586
12275TIP3   OH258315   2.030   0.021   1.023  0.6046  0.5459  0.0340
12275TIP3    H158316   2.101   0.017   1.088  0.5468 -1.0846  0.0381
12275TIP3    H258317   2.074   0.045   0.942  0.6997  2.4673  0.5901
12276TIP3   OH258318   3.877   0.402   1.934 -0.3593 -0.6044  0.1717
12276TIP3    H158319   3.872   0.307   1.922  3.2546 -0.6048 -3.2682
12276TIP3    H258320   3.803   0.437   1.884 -1.6277 -1.5283  1.3449
12277TIP3   OH258321   2.896   0.242   3.094 -0.0713 -0.9598 -0.8557
12277TIP3    H158322   2.801   0.232   3.098  0.0624 -1.9945  0.7883
12277TIP3    H258323   2.910   0.336   3.089 -1.1989 -0.2560  4.2026
12278TIP3   OH258324   5.213   4.909  12.453 -0.2547  0.4242  0.0498
12278TIP3    H158325   5.222   4.891  12.359 -1.6477  2.8946 -0.6553
12278TIP3    H258326   5.249   4.997  12.464 -0.3635  0.2746  1.7797
12279TIP3   OH258327   0.265   1.124  15.590 -0.2683  0.4696  0.0163
12279TIP3    H158328   0.286   1.036  15.620 -0.0602 -0.5526 -2.8327
12279TIP3    H258329   0.322   1.181  15.641  2.9819 -1.4643 -1.1769
12280TIP3   OH258330   0.598   3.825  13.682 -0.3380 -0.1379 -0.0815
12280TIP3    H158331   0.518   3.833  13.735 -0.6689  0.0930 -0.6048
12280TIP3    H258332   0.644   3.751  13.720 -0.4363  0.1972  0.7042
12281TIP3   OH258333   3.519   2.147   5.723  0.3039 -0.0797  0.4598
12281TIP3    H158334   3.584   2.217   5.725 -0.7452  1.0230 -1.4651
12281TIP3    H258335   3.536   2.100   5.642 -2.9148  1.9694 -1.5935
12282TIP3   OH258336   1.416   1.498   3.176 -0.6664  0.7148  0.1316
12282TIP3    H158337   1.389   1.431   3.113  0.6880  0.5083 -0.2641
12282TIP3    H258338   1.419   1.579   3.124  1.9439  0.2786 -0.5146
12283TIP3   OH258339   2.374   5.465  13.692  0.6728  0.2261  0.2304
12283TIP3    H158340   2.314   5.399  13.656  0.7343  0.6502 -0.6740
12283TIP3    H258341   2.370   5.537  13.630  0.3274  1.2439  1.3997
12284TIP3   OH258342   5.725   2.434  11.227  0.7216 -0.5419  0.2750
12284TIP3    H158343   5.705   2.341  11.218 -0.4809 -0.4015  1.3224
12284TIP3    H258344   5.759   2.459  11.140 -1.6652 -1.3056 -0.9530
12285TIP3   OH258345   2.978   3.378  13.375 -0.1310  0.3017 -0.5223
12285TIP3    H158346   2.951   3.375  13.467  0.7560 -0.4006 -0.2691
12285TIP3    H258347   2.910   3.330  13.328 -0.6077  0.6963 -0.2454
12286TIP3   OH258348   0.512   1.817   1.263  0.1140 -0.8626  0.2910
12286TIP3    H158349   0.594   1.859   1.239  0.1576 -0.5406  0.9543
12286TIP3    H258350   0.473   1.789   1.181 -0.9083  2.3261 -0.4613
12287TIP3   OH258351   0.557   5.808  13.293  0.0552 -0.2937 -0.4860
12287TIP3    H158352   0.616   5.747  13.337 -0.3436 -1.9154 -2.0864
12287TIP3    H258353   0.471   5.790  13.330  0.2978  1.1270  0.8671
12288TIP3   OH258354   4.714   1.519   3.567  0.5244  0.1765  0.6501
12288TIP3    H158355   4.755   1.497   3.651  2.8843 -1.2773 -0.7787
12288TIP3    H258356   4.673   1.438   3.538  1.0842  0.2232 -0.3089
12289TIP3   OH258357   5.117   3.500  15.999 -0.2503 -0.0210 -0.5405
12289TIP3    H158358   5.180   3.450  15.948  0.7074  2.2123 -1.7104
12289TIP3    H258359   5.148   3.492  16.090 -0.0120 -1.3099 -0.7243
12290TIP3   OH258360   1.431   5.540   2.242  0.2443 -0.0027 -0.2785
12290TIP3    H158361   1.496   5.498   2.186 -1.1619 -0.1821 -1.8614
12290TIP3    H258362   1.347   5.508   2.209 -0.6849  0.6422  1.3490
12291TIP3   OH258363   3.245   1.060  14.708  0.6378  0.2885  0.1054
12291TIP3    H158364   3.184   1.133  14.696  0.3544  0.1979  0.9117
12291TIP3    H258365   3.239   1.039  14.801  1.8462  0.2130  0.1723
12292TIP3   OH258366   1.075   2.003  13.422 -0.1110  0.0523  0.3687
12292TIP3    H158367   1.100   2.004  13.514 -0.5602 -0.6045  0.5039
12292TIP3    H258368   0.983   2.028  13.422 -0.4582 -1.1788  0.2219
12293TIP3   OH258369   2.451   2.284  10.718 -0.5276 -0.2350  0.1119
12293TIP3    H158370   2.459   2.310  10.626  1.7708 -0.1410  0.2799
12293TIP3    H258371   2.375   2.226  10.720 -1.3886  0.7582 -1.5946
12294TIP3   OH258372   2.194   1.904   4.098 -0.4610  0.9000  0.0275
12294TIP3    H158373   2.135   1.834   4.127 -1.1708  0.9896 -1.1403
12294TIP3    H258374   2.279   1.861   4.087 -0.4897  0.5938  0.9374
12295TIP3   OH258375   2.567   3.521   5.463  0.4670  0.2395 -0.1703
12295TIP3    H158376   2.523   3.442   5.494 -2.4060  2.2999  1.5560
12295TIP3    H258377   2.516   3.548   5.386  2.2237 -0.1793 -1.5502
12296TIP3   OH258378   3.024   4.622  13.923  1.0052 -0.4426  0.2002
12296TIP3    H158379   2.995   4.661  13.841  2.4201  1.9289  0.7157
12296TIP3    H258380   2.961   4.653  13.988  0.1645 -1.9210  0.1282
12297TIP3   OH258381   1.361   1.699   0.549 -0.1412  0.3322  0.8006
12297TIP3    H158382   1.273   1.706   0.510  0.1572 -1.9999 -0.4746
12297TIP3    H258383   1.397   1.619   0.511  3.3217  2.1862 -0.2312
12298TIP3   OH258384   3.100   1.513   4.217  0.4260 -0.0105  0.3677
12298TIP3    H158385   3.022   1.558   4.249 -0.9912 -0.8196 -1.8126
12298TIP3    H258386   3.134   1.570   4.148  1.4181 -0.0194  0.8151
12299TIP3   OH258387   6.385   5.480  13.096 -0.0386 -0.5158  0.6309
12299TIP3    H158388   6.408   5.421  13.024  0.1581  0.4731 -0.1402
12299TIP3    H258389   6.300   5.450  13.126 -2.3494  1.6367 -2.9606
12300TIP3   OH258390   3.996   5.792   1.812  0.5614  0.2858 -0.1786
12300TIP3    H158391   3.924   5.754   1.862  0.3090 -1.1046 -1.5286
12300TIP3    H258392   4.075   5.759   1.855  0.3449 -0.7484 -0.5323
12301TIP3   OH258393   1.066   6.654  11.459 -0.5741  0.4739  0.1648
12301TIP3    H158394   0.980   6.693  11.479 -0.2510  0.5526  1.4642
12301TIP3    H258395   1.115   6.660  11.541  0.7126  0.5015 -0.5844
12302TIP3   OH258396   2.367   4.948  16.285 -0.2222 -0.0813 -0.1930
12302TIP3    H158397   2.438   4.990  16.237 -1.2257  0.0757 -1.5998
12302TIP3    H258398   2.325   4.890  16.221 -1.5824  0.1040  0.4876
12303TIP3   OH258399   3.253   2.936  14.217  0.0771 -0.7928 -0.3648
12303TIP3    H158400   3.233   2.844  14.238 -2.7729  0.0872  1.2517
12303TIP3    H258401   3.172   2.970  14.181  1.0567  1.1539 -0.8234
12304TIP3   OH258402   2.411   2.564  13.971  0.2120  0.2064 -0.6124
12304TIP3    H158403   2.414   2.539  14.064 -0.4693  2.9122  0.2095
12304TIP3    H258404   2.317   2.574  13.952  0.3806  0.2912 -1.4287
12305TIP3   OH258405   1.294   5.971   0.971 -0.1845 -0.0634 -0.3854
12305TIP3    H158406   1.296   6.001   0.880 -0.9371  0.3144 -0.2828
12305TIP3    H258407   1.205   5.937   0.983 -0.0429 -0.2427  0.1684
12306TIP3   OH258408   2.632   0.228   5.410 -0.7008 -0.2662 -0.3116
12306TIP3    H158409   2.626   0.308   5.356  1.2846 -1.0834 -1.8961
12306TIP3    H258410   2.723   0.227   5.441 -0.7098 -1.8629 -0.2614
12307TIP3   OH258411   0.397   4.911   4.162 -0.2617 -0.0718 -0.1464
12307TIP3    H158412   0.366   4.954   4.082  3.1234  2.6253 -0.2110
12307TIP3    H258413   0.346   4.952   4.232 -0.3041  0.6232 -0.5787
12308TIP3   OH258414   5.925   0.130   1.267  0.0114 -0.1949 -0.1244
12308TIP3    H158415   5.944   0.036   1.262  0.4745 -0.0785 -0.6219
12308TIP3    H258416   5.960   0.166   1.186  1.6488  0.7448  0.9530
12309TIP3   OH258417   0.467   5.369  12.490  0.5846 -0.4513 -0.2749
12309TIP3    H158418   0.561   5.386  12.483  0.4358 -0.3816 -2.9305
12309TIP3    H258419   0.458   5.276  12.471  0.0453 -0.2128 -1.2688
12310TIP3   OH258420   5.301   5.653  15.757 -0.5682 -0.3166  0.0107
12310TIP3    H158421   5.250   5.599  15.817 -0.1527 -0.6233  0.0936
12310TIP3    H258422   5.335   5.723  15.812 -1.0918  0.0209 -0.0922
12311TIP3   OH258423   3.316   4.536   1.955 -0.3974 -0.2805 -0.6312
12311TIP3    H158424   3.384   4.520   1.889 -1.1631 -1.1280 -1.2298
12311TIP3    H258425   3.341   4.482   2.029 -0.5774 -0.8376 -0.9706
12312TIP3   OH258426   6.580   2.681   6.403 -0.3081 -0.1357 -0.0830
12312TIP3    H158427   6.664   2.644   6.379  0.3618  1.0486  0.3716
12312TIP3    H258428   6.515   2.622   6.365  0.7156 -0.3878 -1.4655
12313TIP3   OH258429   4.753   2.336   1.140 -0.0611  0.0165 -0.2879
12313TIP3    H158430   4.738   2.264   1.079 -0.6782  0.5367 -0.7649
12313TIP3    H258431   4.846   2.356   1.130  0.1075 -0.6822 -0.1753
12314TIP3   OH258432   1.110   4.560  14.951 -0.3972 -0.2509 -0.4174
12314TIP3    H158433   1.029   4.608  14.970 -0.4090 -0.4999  0.1800
12314TIP3    H258434   1.104   4.480  15.003 -1.7964 -2.4762 -3.6987
12315TIP3   OH258435   0.049   6.762  12.700  0.1419  0.0343  0.0190
12315TIP3    H158436   0.113   6.833  12.704 -0.2089  0.6827 -3.0989
12315TIP3    H258437   0.044   6.729  12.789  1.9244  2.5014  1.1543
12316TIP3   OH258438   0.159   3.046  15.157 -0.3514 -0.2808  0.6541
12316TIP3    H158439   0.154   3.142  15.162 -2.2155 -0.3398  0.5243
12316TIP3    H258440   0.167   3.028  15.063  0.5761 -0.2604  0.7160
12317TIP3   OH258441   3.149   3.438   4.104 -0.2868  0.1283 -0.1057
12317TIP3    H158442   3.119   3.348   4.100 -1.3499  0.3857  1.3656
12317TIP3    H258443   3.090   3.486   4.046  0.4092 -0.1363 -1.0503
12318TIP3   OH258444   4.544   4.494   3.813 -0.2226 -0.6353 -0.0777
12318TIP3    H158445   4.476   4.553   3.845  0.6107 -0.1532  0.8718
12318TIP3    H258446   4.506   4.453   3.736 -1.7347 -0.6676  0.6527
12319TIP3   OH258447   4.630   3.835  16.393  0.3342  0.1828  0.4526
12319TIP3    H158448   4.617   3.925  16.423  0.7754 -0.0738  1.4321
12319TIP3    H258449   4.696   3.799  16.452 -0.4474 -1.0437  0.6132
12320TIP3   OH258450   5.366   5.871   2.094 -0.1986 -0.2406  0.2453
12320TIP3    H158451   5.316   5.853   2.014  1.4646  0.7961 -1.0825
12320TIP3    H258452   5.446   5.819   2.085  0.9385  1.4483  0.2277
12321TIP3   OH258453   2.519   3.330   2.447 -0.0376  0.4555 -0.1117
12321TIP3    H158454   2.548   3.358   2.360 -0.8081 -0.0120 -0.5296
12321TIP3    H258455   2.477   3.408   2.484  1.1429  0.9469  0.2476
12322TIP3   OH258456   6.376   5.881  15.682  0.1411 -0.1871 -0.4488
12322TIP3    H158457   6.285   5.894  15.707  0.0668 -0.1949 -0.7090
12322TIP3    H258458   6.412   5.825  15.750 -0.0512 -0.1901 -0.3505
12323TIP3   OH258459   2.780   6.082  17.139 -0.2205  0.3578 -0.2440
12323TIP3    H158460   2.752   6.140  17.067  1.0435  1.0947 -0.1848
12323TIP3    H258461   2.699   6.059  17.184 -1.1251 -0.5700 -2.2136
12324TIP3   OH258462   1.368   3.748  16.350  0.3542  0.7425 -0.2922
12324TIP3    H158463   1.385   3.829  16.303 -0.0994  1.0588  0.0745
12324TIP3    H258464   1.385   3.770  16.442  1.1156  0.1705 -0.2883
12325TIP3   OH258465   5.101   1.834   4.936 -0.0925 -0.4415  0.9064
12325TIP3    H158466   5.056   1.861   5.016 -1.7161 -0.8803  0.1674
12325TIP3    H258467   5.091   1.739   4.934 -1.9528 -0.2776 -0.8629
12326TIP3   OH258468   3.918   4.130   4.988 -0.0310 -0.0220  0.4516
12326TIP3    H158469   3.983   4.175   5.041  0.4952  0.4804 -0.5762
12326TIP3    H258470   3.838   4.133   5.039  0.4532  0.4696  1.1916
12327TIP3   OH258471   6.629   0.706  16.522 -0.0412 -0.1407  0.3105
12327TIP3    H158472   6.626   0.625  16.572  0.5368 -1.1121 -1.1698
12327TIP3    H258473   6.721   0.732  16.523  0.0513 -0.3861 -0.5267
12328TIP3   OH258474   5.570   5.698   2.539  0.1568  0.2215  0.1990
12328TIP3    H158475   5.559   5.788   2.510 -1.3323  0.1497  0.4844
12328TIP3    H258476   5.530   5.645   2.470  0.6342 -0.2095  0.2393
12329TIP3   OH258477   5.909   3.791  13.334 -0.6707 -0.0378 -0.1659
12329TIP3    H158478   5.909   3.869  13.280 -2.0639  1.6552  2.0858
12329TIP3    H258479   5.835   3.740  13.303 -0.9478  0.4998 -0.3942
12330TIP3   OH258480   0.151   0.939  16.850 -0.3041 -0.5716 -0.0170
12330TIP3    H158481   0.103   0.920  16.770  0.9187 -1.7285 -0.4957
12330TIP3    H258482   0.090   0.918  16.920 -0.6371 -1.6434 -0.6160
12331TIP3   OH258483   1.312   1.350  17.009 -0.0745 -0.5190 -0.8880
12331TIP3    H158484   1.220   1.362  17.032  0.2643  0.4420  0.0491
12331TIP3    H258485   1.324   1.256  17.007 -1.0692 -0.6549 -0.9802
12332TIP3   OH258486   1.942   6.521   1.697  0.3058  0.6805  0.4801
12332TIP3    H158487   1.992   6.506   1.617 -0.9711 -0.1648 -0.1933
12332TIP3    H258488   2.003   6.501   1.768  1.2061  0.6193 -0.3029
12333TIP3   OH258489   3.906   1.671  13.841  0.3773  0.4882 -0.5154
12333TIP3    H158490   3.910   1.723  13.921 -0.9748 -0.0848 -0.0447
12333TIP3    H258491   3.951   1.589  13.863  0.6965  0.6427 -0.5936
12334TIP3   OH258492   2.881   3.056  16.360 -0.3794 -0.3309 -0.3452
12334TIP3    H158493   2.886   3.099  16.445 -1.3804  2.4838 -1.6078
12334TIP3    H258494   2.960   3.084  16.314 -1.2739  0.6456 -1.3565
12335TIP3   OH258495   3.041   0.658   4.541  0.2584 -0.3544  0.2607
12335TIP3    H158496   3.051   0.638   4.448 -1.0411  0.2931 -0.0379
12335TIP3    H258497   3.060   0.751   4.549 -0.6512 -0.1673  0.4466
12336TIP3   OH258498   5.492   0.984   0.369 -0.1874  1.0650 -0.2689
12336TIP3    H158499   5.505   0.909   0.428 -2.1971  0.8118 -0.0792
12336TIP3    H258500   5.398   0.998   0.369 -0.1014  1.9484 -2.3808
12337TIP3   OH258501   3.286   3.229  13.139 -0.6904 -0.1558  0.4935
12337TIP3    H158502   3.270   3.140  13.110 -0.6681  0.4097 -1.3496
12337TIP3    H258503   3.225   3.283  13.089  0.0346  0.9673  0.7693
12338TIP3   OH258504   3.077   2.276  15.913  0.0998  0.4191 -0.6122
12338TIP3    H158505   3.121   2.361  15.920 -0.7573  0.9733 -1.6365
12338TIP3    H258506   3.147   2.215  15.887  0.7200  0.7946  0.1364
12339TIP3   OH258507   6.048   4.425  16.817  0.0842 -0.2037 -0.1405
12339TIP3    H158508   6.096   4.502  16.849  0.6727  0.7044 -2.9263
12339TIP3    H258509   6.068   4.422  16.724 -2.0680 -2.2364 -0.6155
12340TIP3   OH258510   4.961   0.272   2.089  0.5893  0.0233  0.7018
12340TIP3    H158511   4.944   0.348   2.033  0.5226 -1.8715 -2.0621
12340TIP3    H258512   5.039   0.297   2.139  0.1207  2.1594  0.4782
12341TIP3   OH258513   5.316   5.976   1.716  0.1899  0.2599  0.1856
12341TIP3    H158514   5.220   5.980   1.720  0.0298 -2.3056  0.5147
12341TIP3    H258515   5.334   5.915   1.645  1.5217 -0.5174  1.1567
12342TIP3   OH258516   4.057   2.969  15.122  0.8478  0.1321  0.3113
12342TIP3    H158517   4.139   2.951  15.077 -0.0557  0.6125 -1.6263
12342TIP3    H258518   4.023   3.048  15.079 -1.2494 -0.7987  0.1514
12343TIP3   OH258519   5.558   2.761   3.876  0.1111  0.2900 -0.0309
12343TIP3    H158520   5.471   2.733   3.906 -0.4424  3.5180  1.8808
12343TIP3    H258521   5.543   2.805   3.793 -0.4661  2.2808  1.0589
12344TIP3   OH258522   0.030   3.385  13.549  0.1556  0.0677  0.4913
12344TIP3    H158523   0.101   3.391  13.613 -0.0978  0.6083  0.7280
12344TIP3    H258524   0.026   3.473  13.510 -1.7918  0.7224  2.0100
12345TIP3   OH258525   1.814   3.416  13.305 -0.8579 -0.1208 -0.3665
12345TIP3    H158526   1.770   3.350  13.359  0.0104  0.2368  0.8119
12345TIP3    H258527   1.814   3.495  13.358  1.5059 -0.1879 -0.1318
12346TIP3   OH258528   3.872   2.329   3.036 -0.8240  0.3840 -0.6595
12346TIP3    H158529   3.844   2.401   3.092  2.0705  0.6137  0.6415
12346TIP3    H258530   3.957   2.357   3.002 -0.7657 -1.4053 -2.1296
12347TIP3   OH258531   4.612   5.112  17.183 -0.0598  0.7639  0.1949
12347TIP3    H158532   4.696   5.147  17.213  0.4030  1.6338 -1.9131
12347TIP3    H258533   4.561   5.189  17.158 -1.9304  0.3104  2.3718
12348TIP3   OH258534   5.325   5.797   1.001 -0.6648  0.4512 -0.1334
12348TIP3    H158535   5.359   5.857   1.067  0.3568 -1.5376  1.2324
12348TIP3    H258536   5.234   5.824   0.988 -0.4648  1.7651  1.0104
12349TIP3   OH258537   3.772   4.444  12.175 -0.4436  0.1479  0.8689
12349TIP3    H158538   3.844   4.481  12.226  0.4794 -0.5336  0.0961
12349TIP3    H258539   3.791   4.469  12.084 -1.2951  0.1257  0.6757
12350TIP3   OH258540   3.309   4.137  15.949  0.2576  0.0907 -0.1964
12350TIP3    H158541   3.401   4.117  15.965  0.3331  1.0475  0.6379
12350TIP3    H258542   3.311   4.193  15.871  0.4454  0.6519  0.2059
12351TIP3   OH258543   3.592   6.146  10.348  0.1544 -0.5380  0.2507
12351TIP3    H158544   3.539   6.070  10.370 -0.8196 -0.2195 -0.8814
12351TIP3    H258545   3.539   6.221  10.375  0.5008 -0.2329  0.0962
12352TIP3   OH258546   0.027   1.557  15.869 -0.2133 -0.1666 -0.3310
12352TIP3    H158547   0.001   1.541  15.778 -0.8328  1.2261 -0.4225
12352TIP3    H258548   0.111   1.511  15.878  0.9087  1.3446 -2.2188
12353TIP3   OH258549   0.355   3.094  11.770  0.1362  0.3219  0.0951
12353TIP3    H158550   0.359   3.131  11.858  0.0588  0.7974 -0.1001
12353TIP3    H258551   0.315   3.162  11.716 -1.0307 -0.4497 -0.0576
12354TIP3   OH258552   4.120   5.080  16.471 -0.1446 -0.3678 -0.4360
12354TIP3    H158553   4.137   5.159  16.522  0.5115 -0.7730 -0.0097
12354TIP3    H258554   4.118   5.010  16.536  0.6668 -0.8913 -0.9621
12355TIP3   OH258555   4.361   2.661  14.952  0.4264  0.2149  0.6064
12355TIP3    H158556   4.454   2.649  14.967  0.4721 -1.4383 -0.6744
12355TIP3    H258557   4.341   2.747  14.990  3.1877  2.3102 -2.1386
12356TIP3   OH258558   4.193   5.891   6.097 -0.1687  0.2078  0.1210
12356TIP3    H158559   4.166   5.805   6.127  1.2272  0.0262  0.9648
12356TIP3    H258560   4.202   5.943   6.177 -1.8971  1.4547 -0.4285
12357TIP3   OH258561   1.971   3.397  14.743  0.0158 -0.5110 -0.4327
12357TIP3    H158562   2.064   3.403  14.721 -0.1430  1.0589 -0.7830
12357TIP3    H258563   1.969   3.345  14.824  1.2895  0.2631  0.1312
12358TIP3   OH258564   2.957   1.475   2.845 -0.0564 -0.4499 -0.3080
12358TIP3    H158565   3.012   1.440   2.775 -0.3789 -0.1400 -0.7275
12358TIP3    H258566   3.013   1.538   2.891 -0.1333  0.0461 -0.8860
12359TIP3   OH258567   0.386   2.158  16.705 -0.5179  0.4888 -0.3982
12359TIP3    H158568   0.404   2.067  16.681 -1.2134 -0.6472  2.9044
12359TIP3    H258569   0.290   2.164  16.706 -0.5022  0.8322  0.6441
12360TIP3   OH258570   2.796   2.581  16.481  0.2111 -0.2437  0.3366
12360TIP3    H158571   2.812   2.674  16.495  0.1452 -0.4277  1.8398
12360TIP3    H258572   2.783   2.546  16.570 -2.0427 -1.2703 -0.3293
12361TIP3   OH258573   0.161   2.514  15.722  0.1568  0.3341 -0.2969
12361TIP3    H158574   0.252   2.492  15.701  0.2201  0.3982 -0.0935
12361TIP3    H258575   0.162   2.608  15.738 -0.0515  0.4324 -0.8379
12362TIP3   OH258576   5.483   5.417  11.475  0.2921  0.3189  0.0056
12362TIP3    H158577   5.539   5.475  11.424 -0.7012 -1.1849 -3.0454
12362TIP3    H258578   5.533   5.336  11.482 -0.6254 -0.3442 -0.9231
12363TIP3   OH258579   6.379   1.813  12.767  0.2905  0.1152 -0.7675
12363TIP3    H158580   6.349   1.739  12.714 -0.9070  0.1095 -0.1233
12363TIP3    H258581   6.413   1.876  12.704  0.3597 -0.5492 -1.4075
12364TIP3   OH258582   0.369   4.398  15.131 -0.3229 -0.6777  0.0434
12364TIP3    H158583   0.425   4.474  15.148 -1.6737  0.4131 -0.2461
12364TIP3    H258584   0.370   4.389  15.036 -2.7901  1.1104 -0.2464
12365TIP3   OH258585   3.727   1.389   1.535  0.1538  0.3074 -0.2598
12365TIP3    H158586   3.713   1.397   1.630 -0.2094  1.8096 -0.4150
12365TIP3    H258587   3.727   1.480   1.504 -2.2593 -0.2252 -2.0703
12366TIP3   OH258588   1.314   4.777  11.000 -0.0081  0.2637 -0.5316
12366TIP3    H158589   1.359   4.845  11.050 -1.4404 -0.3787  1.8130
12366TIP3    H258590   1.224   4.778  11.035 -0.6805 -1.2643 -2.0781
12367TIP3   OH258591   2.734   3.824  14.126  0.1601  0.1084 -0.2353
12367TIP3    H158592   2.679   3.847  14.052  0.9592  0.6768 -0.6748
12367TIP3    H258593   2.673   3.793  14.193 -0.5171 -1.1174 -1.3644
12368TIP3   OH258594   2.889   2.069  11.940  0.8547 -0.3490  0.6839
12368TIP3    H158595   2.931   2.019  11.869 -0.1333 -0.6590  0.3061
12368TIP3    H258596   2.947   2.058  12.015  2.0966  0.2504 -0.1528
12369TIP3   OH258597   3.830   5.979   3.694  0.4408 -0.3747 -0.9660
12369TIP3    H158598   3.797   5.911   3.635  2.1459 -1.4785 -0.7337
12369TIP3    H258599   3.924   5.984   3.675  0.7843  0.1989  0.7007
12370TIP3   OH258600   6.682   5.957   2.853 -0.0967 -0.8657 -0.2514
12370TIP3    H158601   6.591   5.955   2.883  0.1254 -0.1855  0.5104
12370TIP3    H258602   6.677   5.980   2.760 -0.6252  1.3630  0.2733
12371TIP3   OH258603   0.365   1.834  12.160  0.0767 -0.0459  0.1551
12371TIP3    H158604   0.335   1.907  12.215 -0.5404 -0.1144 -0.0782
12371TIP3    H258605   0.410   1.876  12.087  0.6291  0.0573  0.5501
12372TIP3   OH258606   0.900   6.092  13.596  0.3106 -0.0900  0.1443
12372TIP3    H158607   0.910   6.108  13.690 -0.3756 -1.0056  0.3996
12372TIP3    H258608   0.844   6.014  13.592 -0.4185  0.4751 -1.0407
12373TIP3   OH258609   0.542   1.148   2.456 -0.5177  0.0191  0.9443
12373TIP3    H158610   0.553   1.056   2.432 -0.2067 -0.3899  2.4905
12373TIP3    H258611   0.627   1.188   2.437 -0.3632 -0.2313  1.0863
12374TIP3   OH258612   4.138   0.263   2.141 -0.1175  0.3129 -0.2418
12374TIP3    H158613   4.199   0.201   2.101 -0.5182 -0.0937 -0.2353
12374TIP3    H258614   4.082   0.209   2.197 -0.9601  0.5600 -0.8187
12375TIP3   OH258615   1.436   4.197  11.923 -0.0401 -0.0952  0.1105
12375TIP3    H158616   1.508   4.177  11.864  0.2023  1.0731 -0.0094
12375TIP3    H258617   1.468   4.269  11.977 -1.3661  1.0041 -0.4861
12376TIP3   OH258618   2.666   1.831   4.965  0.2774  0.3437  0.5434
12376TIP3    H158619   2.664   1.814   4.871 -0.4682 -1.0648  0.7884
12376TIP3    H258620   2.583   1.797   4.997  0.5518  0.7515  1.7207
12377TIP3   OH258621   6.764   1.628  14.558 -0.1803  0.2734  0.0435
12377TIP3    H158622   6.775   1.625  14.463  1.0026  1.1864  0.1221
12377TIP3    H258623   6.694   1.692  14.573  0.6489  1.2778 -0.1926
12378TIP3   OH258624   4.014   5.839   0.097 -0.6205  0.1512 -0.6515
12378TIP3    H158625   4.081   5.889   0.051  1.1257 -1.7555 -0.2998
12378TIP3    H258626   4.048   5.830   0.186 -0.9985 -1.4282 -0.6468
12379TIP3   OH258627   1.548   3.759  12.585  0.6460 -0.1276 -0.1053
12379TIP3    H158628   1.537   3.719  12.672 -1.3530  1.6117  0.5190
12379TIP3    H258629   1.623   3.818  12.596  1.2608 -0.9237  0.0327
12380TIP3   OH258630   2.818   3.975   3.995 -0.2021 -0.2417 -0.3124
12380TIP3    H158631   2.894   3.928   4.030 -0.8908 -1.0570  0.1321
12380TIP3    H258632   2.745   3.916   4.010 -0.7081 -0.1129 -2.1170
12381TIP3   OH258633   0.949   5.819  12.015 -0.1590 -0.3744 -0.2426
12381TIP3    H158634   0.914   5.760  12.081 -0.4121 -0.1988 -0.2200
12381TIP3    H258635   0.874   5.870  11.985 -0.0990 -0.6337 -0.8543
12382TIP3   OH258636   6.204   5.556  13.873  0.4408 -0.1984 -0.6385
12382TIP3    H158637   6.132   5.522  13.820  0.8151 -1.0440 -0.6150
12382TIP3    H258638   6.215   5.492  13.944  0.6776  0.3457 -0.1685
12383TIP3   OH258639   4.229   4.022  11.121  0.3927  0.1304  0.1634
12383TIP3    H158640   4.293   3.966  11.077  1.3581  1.2048  0.1339
12383TIP3    H258641   4.237   4.107  11.076 -0.9279  0.3416  0.2918
12384TIP3   OH258642   4.624   2.487   5.174  0.0782  0.0454  0.1511
12384TIP3    H158643   4.540   2.474   5.219  0.6943 -2.4454  0.7440
12384TIP3    H258644   4.677   2.537   5.237 -1.3930  3.1818 -0.8967
12385TIP3   OH258645   1.718   1.023   2.909  0.2260  0.1633  0.1120
12385TIP3    H158646   1.630   1.008   2.945  0.7490  2.2584  2.6171
12385TIP3    H258647   1.772   0.955   2.949  0.2706  0.7524  1.0912
12386TIP3   OH258648   0.852   6.001  13.078 -0.2655 -0.0467 -0.0273
12386TIP3    H158649   0.889   6.085  13.108  0.5259  0.3267 -1.8826
12386TIP3    H258650   0.902   5.981  12.999 -1.5690 -1.4616 -0.5218
12387TIP3   OH258651   0.662   6.746   1.851 -0.8230 -0.2101  0.5541
12387TIP3    H158652   0.585   6.761   1.905 -1.6575 -0.9835 -0.3799
12387TIP3    H258653   0.628   6.716   1.766  0.4867 -0.4040  0.0541
12388TIP3   OH258654   3.163   5.354   1.937 -0.1618  0.9253  0.1945
12388TIP3    H158655   3.180   5.427   1.996  1.7262  1.3999 -0.8530
12388TIP3    H258656   3.202   5.381   1.854 -0.7971 -0.6369 -0.6458
12389TIP3   OH258657   1.232   0.589   2.550  0.7396  0.2426  0.1136
12389TIP3    H158658   1.148   0.596   2.594  0.1456 -1.5021 -0.6695
12389TIP3    H258659   1.213   0.544   2.468  2.2498  0.9183 -0.6504
12390TIP3   OH258660   4.198   3.368   2.673  0.4850 -0.0837 -0.2795
12390TIP3    H158661   4.201   3.454   2.715  0.2630 -0.0704 -0.2915
12390TIP3    H258662   4.115   3.368   2.625  0.6112 -0.2017 -0.4963
12391TIP3   OH258663   2.509   2.894   1.754 -0.3777 -0.7415  0.1660
12391TIP3    H158664   2.576   2.859   1.695 -0.3567  2.7435 -2.1454
12391TIP3    H258665   2.431   2.843   1.734 -0.0759 -0.3844 -2.1260
12392TIP3   OH258666   4.521   1.418   3.161  0.0817  0.2329 -0.0032
12392TIP3    H158667   4.611   1.394   3.138 -0.0004  0.1198 -0.2066
12392TIP3    H258668   4.487   1.461   3.083  0.0440  0.5067  0.1648
12393TIP3   OH258669   1.652   2.704   0.605  0.1062  0.7960 -0.0187
12393TIP3    H158670   1.635   2.617   0.640  0.1530  1.8126  2.7374
12393TIP3    H258671   1.724   2.692   0.544  0.2652 -1.0446  0.4763
12394TIP3   OH258672   4.341   6.214   4.271  0.0564 -0.0097 -0.0626
12394TIP3    H158673   4.299   6.198   4.356  0.0186 -1.8426 -0.3835
12394TIP3    H258674   4.430   6.182   4.282  0.2137  0.2582 -0.5596
12395TIP3   OH258675   4.749   0.236   6.306 -0.3843  0.2309 -0.0867
12395TIP3    H158676   4.811   0.166   6.286  2.7739  2.0375  2.4056
12395TIP3    H258677   4.683   0.195   6.363 -0.4665 -1.3205 -1.2414
12396TIP3   OH258678   3.742   3.506  10.763  0.4806 -0.1399  0.0440
12396TIP3    H158679   3.664   3.459  10.793  0.0697 -0.6123 -1.6619
12396TIP3    H258680   3.735   3.592  10.805 -1.0372 -0.1216 -0.1696
12397TIP3   OH258681   1.745   1.310   0.531  0.2289  0.3539  0.3352
12397TIP3    H158682   1.724   1.243   0.596  2.5209  0.6419  1.4656
12397TIP3    H258683   1.661   1.335   0.493 -1.3129  0.6902  3.6945
12398TIP3   OH258684   5.022   2.540   0.909  0.0350  0.0458 -0.3790
12398TIP3    H158685   5.082   2.534   0.835 -2.9213 -0.0313 -2.9920
12398TIP3    H258686   5.077   2.524   0.986  3.5158  1.1933 -2.3789
12399TIP3   OH258687   3.091   1.565   4.754 -0.5036  0.0575  0.3306
12399TIP3    H158688   3.164   1.589   4.811  0.2772  2.4997 -1.5358
12399TIP3    H258689   3.130   1.508   4.687 -0.7496 -0.1883  0.3900
12400TIP3   OH258690   4.603   6.391  16.194  0.2620 -0.1942  0.0041
12400TIP3    H158691   4.698   6.393  16.177  0.0906 -0.2495 -1.0463
12400TIP3    H258692   4.565   6.440  16.122 -0.6075 -1.4644 -0.4447
12401TIP3   OH258693   3.565   3.309  16.176  0.0319 -0.1814  0.1026
12401TIP3    H158694   3.660   3.311  16.190  0.0293  0.2599  0.0868
12401TIP3    H258695   3.542   3.217  16.182  0.5057 -0.3271 -0.1633
12402TIP3   OH258696   5.179   1.691   0.108  0.1086 -0.2777 -0.3729
12402TIP3    H158697   5.248   1.732   0.160 -0.1730 -1.1980  0.7635
12402TIP3    H258698   5.214   1.690   0.019  0.9052  0.6790 -0.0890
12403TIP3   OH258699   2.853   6.144  10.680 -0.2547  0.4233 -0.5744
12403TIP3    H158700   2.797   6.067  10.682  1.2759 -0.7839  2.3449
12403TIP3    H258701   2.800   6.213  10.720 -0.1605 -0.3746  1.0049
12404TIP3   OH258702   5.016   6.735  14.108 -0.0323  0.1213 -0.3069
12404TIP3    H158703   4.937   6.778  14.140 -0.2623  0.0106 -0.7295
12404TIP3    H258704   5.049   6.793  14.039  0.8788  0.7454  0.6185
12405TIP3   OH258705   5.644   5.182  16.790  0.5304 -0.1008 -0.1671
12405TIP3    H158706   5.574   5.215  16.732 -0.8049 -0.4161  1.2000
12405TIP3    H258707   5.604   5.180  16.877  2.3239 -0.1393  0.7049
12406TIP3   OH258708   0.819   0.861   1.460 -0.4090 -0.5379  0.2348
12406TIP3    H158709   0.908   0.896   1.464 -1.2814  1.6717  1.9421
12406TIP3    H258710   0.825   0.775   1.502  0.8549 -0.3218  0.5178
12407TIP3   OH258711   2.109   2.158   1.237 -0.0664 -0.0875 -0.7898
12407TIP3    H158712   2.137   2.068   1.253 -1.0208 -0.3112 -0.3248
12407TIP3    H258713   2.056   2.181   1.313  0.3670  0.9562 -0.7897
12408TIP3   OH258714   1.868   4.850   3.882 -0.2183 -0.1814  0.1184
12408TIP3    H158715   1.873   4.883   3.971 -0.1828  1.7346 -0.5421
12408TIP3    H258716   1.776   4.860   3.858 -0.1366 -0.2426 -0.2234
12409TIP3   OH258717   5.617   3.051  12.438  0.4956 -0.2486  0.2281
12409TIP3    H158718   5.561   3.021  12.508 -0.0738  0.2175 -0.0172
12409TIP3    H258719   5.627   3.145  12.455 -1.1813  0.2691 -1.3293
12410TIP3   OH258720   1.758   0.660  17.005  0.2332  0.1111  0.1131
12410TIP3    H158721   1.670   0.688  17.033  1.4947  1.1126  3.7241
12410TIP3    H258722   1.795   0.737  16.962 -0.1301  0.2358  0.0198
12411TIP3   OH258723   0.691   0.855  12.872 -0.1144 -0.1337 -0.1970
12411TIP3    H158724   0.772   0.805  12.879  0.6095  0.3944 -3.3612
12411TIP3    H258725   0.699   0.923  12.939  1.0978 -1.2734  0.8840
12412TIP3   OH258726   4.877   0.095  16.325  0.1740 -0.2230 -0.3481
12412TIP3    H158727   4.896   0.115  16.233 -0.8424 -0.1159 -0.5462
12412TIP3    H258728   4.827   0.013  16.322  1.7802 -1.2821  0.2590
12413TIP3   OH258729   5.162   5.293   2.951  0.1062 -0.4316 -0.1667
12413TIP3    H158730   5.131   5.382   2.935 -1.1013 -1.0387 -1.3658
12413TIP3    H258731   5.209   5.269   2.871  0.5561 -0.8311  0.2089
12414TIP3   OH258732   0.277   4.925   6.135  0.4910  0.1975 -0.1928
12414TIP3    H158733   0.340   4.965   6.075  0.1909  1.0155  0.0222
12414TIP3    H258734   0.223   4.998   6.165  1.5877  0.1213  2.2432
12415TIP3   OH258735   5.570   5.316  14.760 -0.0355 -0.5365  0.1084
12415TIP3    H158736   5.618   5.387  14.802  0.1674  0.1493 -1.2146
12415TIP3    H258737   5.478   5.345  14.763 -0.3527 -1.5740  2.1066
12416TIP3   OH258738   5.285   1.864  13.246 -0.0583 -0.5069 -0.1221
12416TIP3    H158739   5.189   1.858  13.242 -0.0609 -0.5315 -0.0267
12416TIP3    H258740   5.315   1.774  13.230 -0.1707 -1.4852  4.0457
12417TIP3   OH258741   1.013   3.097   4.105 -0.0865 -0.4501 -0.0628
12417TIP3    H158742   1.106   3.116   4.104 -0.0148 -0.7494 -1.2873
12417TIP3    H258743   1.006   3.010   4.144 -0.0451  0.3137  1.7339
12418TIP3   OH258744   4.913   3.137  10.320 -0.6123 -0.0319 -0.1611
12418TIP3    H158745   4.929   3.071  10.253  0.0282 -1.8942  1.7298
12418TIP3    H258746   4.819   3.154  10.315 -0.1672  2.5764 -3.8141
12419TIP3   OH258747   3.632   2.897   4.905 -0.2715  0.6921 -0.7145
12419TIP3    H158748   3.713   2.946   4.890 -0.7953  1.7707 -0.1142
12419TIP3    H258749   3.657   2.829   4.967  0.0331  1.4535  0.0163
12420TIP3   OH258750   1.013   3.220  12.238 -0.1207 -0.3463 -0.5170
12420TIP3    H158751   0.954   3.294  12.225  0.9945  0.5804 -0.4312
12420TIP3    H258752   1.036   3.192  12.149  2.8489  2.2210 -0.7032
12421TIP3   OH258753   4.906   4.824  15.910  0.0069  0.1465 -0.5182
12421TIP3    H158754   4.812   4.820  15.892  0.3083  0.3185 -2.3623
12421TIP3    H258755   4.922   4.752  15.970 -1.5020  0.9340  0.9010
12422TIP3   OH258756   5.703   5.746   0.147 -0.3018 -0.1059  0.5230
12422TIP3    H158757   5.777   5.685   0.154 -0.3343 -0.0800  1.0608
12422TIP3    H258758   5.718   5.811   0.215 -0.2225  0.5562 -0.1045
12423TIP3   OH258759   3.125   0.545  13.469  0.6113  0.0488 -0.3814
12423TIP3    H158760   3.089   0.613  13.526  2.0186 -0.5432  1.3117
12423TIP3    H258761   3.144   0.472  13.527  1.0461 -1.0405 -1.8237
12424TIP3   OH258762   0.988   0.252   4.063 -0.4671  0.2284 -0.5620
12424TIP3    H158763   0.995   0.162   4.095  0.1954  0.7817  0.9501
12424TIP3    H258764   1.068   0.294   4.092 -0.7764  1.3323 -1.2303
12425TIP3   OH258765   1.435   5.829  15.717 -0.5297 -0.0161  0.6113
12425TIP3    H158766   1.377   5.904  15.699  1.3400  1.6873  1.3489
12425TIP3    H258767   1.505   5.837  15.652 -1.8036 -3.0100 -1.3677
12426TIP3   OH258768   4.786   5.078   3.563  0.6272  0.5613 -0.2398
12426TIP3    H158769   4.777   4.995   3.516 -0.5566 -0.0399  0.9594
12426TIP3    H258770   4.776   5.145   3.495  0.7238 -0.2694 -1.1019
12427TIP3   OH258771   0.169   3.037  12.922 -0.2400 -0.4952 -0.1656
12427TIP3    H158772   0.179   3.004  13.011  0.7603 -0.6250 -0.3233
12427TIP3    H258773   0.134   3.126  12.934  1.3929  0.1074  0.4390
12428TIP3   OH258774   5.724   3.036   6.166 -0.1842 -0.4932  0.4208
12428TIP3    H158775   5.818   3.023   6.175  0.1502  1.5088  0.4026
12428TIP3    H258776   5.696   2.970   6.102  1.8618  1.0259 -2.2502
12429TIP3   OH258777   0.892   0.354  13.454 -0.1268 -0.1928  0.1912
12429TIP3    H158778   0.807   0.309  13.452 -0.0825 -0.2378 -1.4922
12429TIP3    H258779   0.884   0.417  13.526 -1.4522 -0.4428  0.2822
12430TIP3   OH258780   0.972   3.299   1.041 -0.3604  0.0748 -0.0167
12430TIP3    H158781   1.051   3.350   1.023  0.1140 -1.0147 -1.1563
12430TIP3    H258782   0.985   3.264   1.130 -0.1086  0.8381  0.2561
12431TIP3   OH258783   5.539   0.869  13.364 -0.0488  0.2511 -0.2178
12431TIP3    H158784   5.459   0.911  13.334  0.5438  0.4760 -1.5404
12431TIP3    H258785   5.532   0.870  13.460 -0.5869  2.3252 -0.2317
12432TIP3   OH258786   1.310   2.993   2.658 -0.2115  1.0525 -0.4842
12432TIP3    H158787   1.306   2.969   2.565  1.5726  0.3459 -0.4150
12432TIP3    H258788   1.241   2.941   2.699  0.1312  0.0311 -1.1578
12433TIP3   OH258789   1.959   0.325  16.894  0.4940 -0.1179 -0.0515
12433TIP3    H158790   1.970   0.326  16.989  2.7107 -0.9515 -0.2471
12433TIP3    H258791   1.991   0.411  16.866  0.7138 -0.2298 -0.1370
12434TIP3   OH258792   4.273   4.639  16.047 -0.2000  0.0526  0.5360
12434TIP3    H158793   4.182   4.630  16.019 -0.0998 -0.6711  0.4160
12434TIP3    H258794   4.300   4.725  16.014 -0.5901 -0.0749 -0.1334
12435TIP3   OH258795   2.506   3.271  16.186 -0.1663 -0.1006 -0.4848
12435TIP3    H158796   2.569   3.291  16.255  0.1049 -1.4229 -0.3310
12435TIP3    H258797   2.543   3.312  16.108 -0.4303  1.3235  0.1144
12436TIP3   OH258798   3.324   1.248   5.338 -0.6053 -0.1243 -0.1178
12436TIP3    H158799   3.230   1.230   5.348 -0.4805 -1.8500 -1.6139
12436TIP3    H258800   3.340   1.240   5.244  0.8504  1.3001 -0.0305
12437TIP3   OH258801   2.757   0.607   0.852 -0.0295 -0.2255  0.3025
12437TIP3    H158802   2.815   0.679   0.877 -0.6492  0.4672 -0.1721
12437TIP3    H258803   2.761   0.545   0.924 -0.2144  0.7508  1.1679
12438TIP3   OH258804   3.012   5.891  15.474 -0.0893 -0.2300  0.2331
12438TIP3    H158805   3.100   5.853  15.480  0.1483  0.2789  0.0798
12438TIP3    H258806   3.027   5.980  15.441 -0.7841 -0.6578 -1.3636
12439TIP3   OH258807   4.695   0.991  10.578  0.0897  0.0357 -0.2307
12439TIP3    H158808   4.625   0.929  10.557  0.3523 -0.5397  0.5659
12439TIP3    H258809   4.652   1.076  10.577 -0.7371 -0.3515  0.7162
12440TIP3   OH258810   0.628   3.018  14.700 -0.2848  0.3986  0.3055
12440TIP3    H158811   0.653   2.973  14.619 -2.5126 -2.0469  0.8386
12440TIP3    H258812   0.592   3.102  14.671  0.7991  0.4347 -1.0362
12441TIP3   OH258813   2.917   3.721   0.664 -0.4868 -0.7785  0.4116
12441TIP3    H158814   2.835   3.675   0.678 -0.8223  0.1779  1.8204
12441TIP3    H258815   2.979   3.653   0.638 -1.5188 -1.6316  0.1211
12442TIP3   OH258816   4.605   3.012   3.107 -0.0616  0.2332  0.2324
12442TIP3    H158817   4.539   3.081   3.119  0.0752  0.8707 -2.1407
12442TIP3    H258818   4.555   2.937   3.076  0.2302  0.5367 -1.0128
12443TIP3   OH258819   2.054   0.145  15.404  0.5893 -0.0557 -0.3234
12443TIP3    H158820   2.050   0.059  15.362 -0.3092 -0.4882  0.6274
12443TIP3    H258821   2.082   0.204  15.334 -0.9044 -0.7563 -1.5776
12444TIP3   OH258822   4.439   4.454  11.185  0.2470 -0.1857  0.2867
12444TIP3    H158823   4.382   4.473  11.110  2.6081 -0.2885 -1.6609
12444TIP3    H258824   4.504   4.525  11.184  0.5708 -0.3957  2.0634
12445TIP3   OH258825   3.771   5.431  10.536 -0.1815  0.2915  0.3821
12445TIP3    H158826   3.777   5.478  10.453  0.3890  0.1967  0.3663
12445TIP3    H258827   3.861   5.425  10.567 -0.1938 -1.0547  0.2282
12446TIP3   OH258828   5.115   4.505   6.213  0.5626  0.0351 -0.6692
12446TIP3    H158829   5.138   4.447   6.139  0.0690 -0.9787 -0.0532
12446TIP3    H258830   5.189   4.564   6.221  1.4315 -0.9868 -0.8675
12447TIP3   OH258831   4.909   5.179  15.733  0.1547  0.6627 -0.3502
12447TIP3    H158832   4.884   5.159  15.642  0.7169 -1.8671 -0.0149
12447TIP3    H258833   4.826   5.188  15.779 -0.3251 -3.4356 -0.1062
12448TIP3   OH258834   3.517   3.974   3.334  0.1173  0.7894 -0.3673
12448TIP3    H158835   3.599   3.981   3.284 -0.3050 -2.3567 -1.7566
12448TIP3    H258836   3.532   4.028   3.411  2.3644  2.6560 -1.9623
12449TIP3   OH258837   0.955   4.856   0.879 -0.1479 -0.2411  0.0904
12449TIP3    H158838   0.964   4.763   0.858 -0.5438  0.0631 -1.6040
12449TIP3    H258839   0.909   4.858   0.962 -2.0599 -1.5725 -0.8522
12450TIP3   OH258840   6.226   3.963   6.060  0.0897 -0.2664 -0.2944
12450TIP3    H158841   6.310   3.920   6.041 -0.2576 -1.4883  0.8792
12450TIP3    H258842   6.251   4.040   6.112  0.5511 -0.0598 -0.8015
12451TIP3   OH258843   2.096   0.806  11.260  0.5196  0.3830  0.1655
12451TIP3    H158844   2.143   0.731  11.297  0.4743  0.7710  1.0478
12451TIP3    H258845   2.104   0.874  11.327  0.2199  1.0356 -0.4511
12452TIP3   OH258846   0.143   5.205  14.810 -0.1715 -0.8242 -0.2894
12452TIP3    H158847   0.162   5.184  14.718 -2.0722  0.7008 -1.1040
12452TIP3    H258848   0.228   5.230  14.846  0.4405 -0.3067 -1.9798
12453TIP3   OH258849   4.907   0.453  11.030  0.1006  0.3289  0.0669
12453TIP3    H158850   4.987   0.402  11.041 -2.2685 -3.4598  1.7424
12453TIP3    H258851   4.892   0.455  10.936  1.5860  0.2006 -0.1977
12454TIP3   OH258852   6.578   1.463   1.325  0.1565  0.0989  0.7618
12454TIP3    H158853   6.621   1.511   1.395  0.7048  1.3383 -0.3869
12454TIP3    H258854   6.486   1.485   1.334 -0.0867 -1.2858  2.2339
12455TIP3   OH258855   0.530   1.324  12.778 -0.3764 -0.1526  0.6378
12455TIP3    H158856   0.564   1.235  12.785 -0.1126 -0.1397 -0.2921
12455TIP3    H258857   0.592   1.377  12.828  1.0183 -0.1301 -1.0234
12456TIP3   OH258858   3.165   4.384   5.066 -0.2693 -0.5068  0.2015
12456TIP3    H158859   3.129   4.421   4.986 -2.2973  0.1249  1.3337
12456TIP3    H258860   3.168   4.290   5.049 -1.2680 -0.4426 -0.4171
12457TIP3   OH258861   2.410   3.307   2.011  0.6083  0.1007 -0.4247
12457TIP3    H158862   2.428   3.213   2.013  0.6393  0.0744 -1.5680
12457TIP3    H258863   2.315   3.313   2.015  0.6286  0.0611  0.3862
12458TIP3   OH258864   2.322   4.849  16.548  0.3113 -0.0061  0.6908
12458TIP3    H158865   2.361   4.922  16.598 -0.1018  0.2125  0.6972
12458TIP3    H258866   2.314   4.884  16.459  0.8163 -0.3107  0.5205
12459TIP3   OH258867   0.826   6.086   4.708  0.1462  0.4811  0.0398
12459TIP3    H158868   0.815   6.017   4.642  2.6489 -1.6199  1.6332
12459TIP3    H258869   0.768   6.060   4.780  1.9531 -0.7167  1.1273
12460TIP3   OH258870   6.182   4.301  13.943 -0.3039 -0.2631  0.0200
12460TIP3    H158871   6.089   4.318  13.932 -0.0273  2.2831  0.7952
12460TIP3    H258872   6.201   4.326  14.034  1.1328 -0.6501 -0.1384
12461TIP3   OH258873   6.299   0.432   3.390 -0.7841 -0.0760  0.2108
12461TIP3    H158874   6.292   0.351   3.441 -1.3020 -0.6016 -0.6787
12461TIP3    H258875   6.209   0.460   3.375 -0.6262  0.2796 -0.0979
12462TIP3   OH258876   0.643   2.760   1.298 -0.0290 -0.1180 -0.7642
12462TIP3    H158877   0.723   2.800   1.332  0.5324 -0.9450 -1.1027
12462TIP3    H258878   0.573   2.800   1.350  0.5380  1.0680 -0.8761
12463TIP3   OH258879   6.700   2.261  14.701  0.5598 -0.4792 -0.1942
12463TIP3    H158880   6.786   2.256  14.741  0.4229 -2.1512 -0.0173
12463TIP3    H258881   6.712   2.319  14.626  1.3084  0.9999  1.0177
12464TIP3   OH258882   0.428   3.052  13.495 -0.0143 -0.4179 -0.0596
12464TIP3    H158883   0.347   3.092  13.464  0.6610  0.2906 -0.9936
12464TIP3    H258884   0.401   2.970  13.536 -1.1962 -0.1729 -0.3105
12465TIP3   OH258885   0.209   5.590  12.966  0.2655  0.1570 -0.5138
12465TIP3    H158886   0.114   5.598  12.958  0.2494  1.9323  0.6396
12465TIP3    H258887   0.244   5.654  12.903  0.7029 -0.3535 -0.8012
12466TIP3   OH258888   2.828   0.897   3.977 -0.1531 -0.3552  0.2977
12466TIP3    H158889   2.870   0.976   3.943  0.5746 -0.6491  0.4930
12466TIP3    H258890   2.836   0.905   4.072  1.7570 -1.6031  0.2973
12467TIP3   OH258891   6.598   0.574  15.101  0.0917 -0.2545 -0.2723
12467TIP3    H158892   6.656   0.518  15.153 -1.1731 -0.0865  1.4176
12467TIP3    H258893   6.649   0.653  15.085 -0.2491  0.7996  3.0264
12468TIP3   OH258894   2.458   1.813  11.224 -0.6424 -0.6547  0.2353
12468TIP3    H158895   2.470   1.729  11.180  0.2293 -1.1939  1.4455
12468TIP3    H258896   2.546   1.849  11.231 -1.1884  1.3846 -2.1160
12469TIP3   OH258897   0.482   2.733   4.397  0.2244  0.0572 -0.6759
12469TIP3    H158898   0.435   2.654   4.423 -2.3480  1.3220 -1.1578
12469TIP3    H258899   0.552   2.742   4.462 -2.4004 -0.0246  2.3986
12470TIP3   OH258900   4.310   6.391  12.147 -0.7923 -0.4197  0.0007
12470TIP3    H158901   4.399   6.356  12.146 -0.5432  0.2057 -0.9269
12470TIP3    H258902   4.309   6.458  12.079 -2.2947 -1.1981 -0.8033
12471TIP3   OH258903   2.639   3.178  12.659  0.4738  0.0922  0.5915
12471TIP3    H158904   2.563   3.120  12.650  2.0456 -1.9111 -0.5532
12471TIP3    H258905   2.690   3.139  12.730 -0.1999  2.2701  2.3935
12472TIP3   OH258906   4.599   2.310   6.399  0.0735  0.1580 -0.0728
12472TIP3    H158907   4.667   2.345   6.457  0.1479 -0.2456  0.0838
12472TIP3    H258908   4.605   2.215   6.408  0.0350  0.0884 -0.6850
12473TIP3   OH258909   2.360   3.969   5.142 -0.5320 -0.1781 -0.0594
12473TIP3    H158910   2.399   3.989   5.227 -1.4959  1.6598  0.0056
12473TIP3    H258911   2.282   3.917   5.164 -1.2338  0.9744  0.2943
12474TIP3   OH258912   5.507   4.682   5.499 -0.8280  0.4002  1.1151
12474TIP3    H158913   5.523   4.602   5.550 -0.0540  0.1161  0.4420
12474TIP3    H258914   5.453   4.653   5.426  0.5293  0.2166  0.1518
12475TIP3   OH258915   6.401   4.510  14.830  0.6986 -0.5691  0.1897
12475TIP3    H158916   6.414   4.596  14.791  0.3058 -0.7586 -0.3741
12475TIP3    H258917   6.481   4.494  14.881  0.4530  0.4417  0.9144
12476TIP3   OH258918   0.735   5.991   0.690 -0.0733 -0.1106 -0.6103
12476TIP3    H158919   0.827   5.962   0.694 -0.4052 -1.3484 -1.4390
12476TIP3    H258920   0.739   6.077   0.648  0.7999  0.4086  0.4647
12477TIP3   OH258921   5.549   0.222   4.881  0.2286  0.2615  0.4754
12477TIP3    H158922   5.637   0.196   4.856 -0.7370 -1.5712 -1.3887
12477TIP3    H258923   5.533   0.303   4.834  1.1704  1.0407  1.4701
12478TIP3   OH258924   0.618   4.155   5.321  0.0210 -0.6386 -0.6180
12478TIP3    H158925   0.543   4.131   5.376 -0.7220  0.3899 -1.1472
12478TIP3    H258926   0.654   4.072   5.291 -0.0588 -1.1953  0.7567
12479TIP3   OH258927   5.559   5.570  16.795 -0.1290 -0.1098 -0.1336
12479TIP3    H158928   5.622   5.613  16.737 -0.3902  1.7921  0.8889
12479TIP3    H258929   5.475   5.580  16.750  0.0098 -0.8536 -0.5663
12480TIP3   OH258930   3.340   6.783   1.285 -0.0680  0.3544 -0.3536
12480TIP3    H158931   3.412   6.846   1.278 -1.4534  2.0525  0.2265
12480TIP3    H258932   3.262   6.832   1.261 -1.3673 -0.7760  1.3469
12481TIP3   OH258933   6.268   6.251   0.421 -0.1706  0.0021  0.4940
12481TIP3    H158934   6.276   6.337   0.381  0.8823 -0.3262 -0.0386
12481TIP3    H258935   6.284   6.265   0.514  3.2582 -0.0176  0.0275
12482TIP3   OH258936   6.230   2.987   1.886  0.0823 -0.2986 -0.0986
12482TIP3    H158937   6.319   3.007   1.917 -0.2796 -1.4888  1.9484
12482TIP3    H258938   6.244   2.934   1.808  1.1469  0.5835 -0.5367
12483TIP3   OH258939   3.912   3.271   4.758  1.2416  0.1043  0.0641
12483TIP3    H158940   3.851   3.202   4.732 -0.1057  0.7484  1.3511
12483TIP3    H258941   3.864   3.352   4.745  2.2556  0.7175 -0.0007
12484TIP3   OH258942   1.506   2.918   3.113 -0.1498 -0.5251 -0.0340
12484TIP3    H158943   1.581   2.946   3.061 -0.1518 -0.1711  0.1505
12484TIP3    H258944   1.467   2.999   3.144 -1.4044 -0.6440 -1.2189
12485TIP3   OH258945   4.692   2.249  16.752 -0.0878  0.0688 -0.2901
12485TIP3    H158946   4.604   2.249  16.715 -0.3551 -0.6687  0.3334
12485TIP3    H258947   4.725   2.338  16.736 -1.9663  1.2710  1.8530
12486TIP3   OH258948   0.456   1.701  10.877  0.4691 -0.2347 -0.4439
12486TIP3    H158949   0.490   1.719  10.789  0.6131 -0.4215 -0.4264
12486TIP3    H258950   0.383   1.762  10.887 -0.8020 -1.5098 -1.4442
12487TIP3   OH258951   1.381   6.656  10.676  0.0687 -0.2531  0.4250
12487TIP3    H158952   1.442   6.665  10.748  0.0006  2.2066  0.2784
12487TIP3    H258953   1.421   6.707  10.605 -1.7844  0.8896  0.1280
12488TIP3   OH258954   2.562   4.836  12.854  0.3923 -0.0227 -0.3844
12488TIP3    H158955   2.543   4.868  12.766 -0.5268 -0.5928 -0.4041
12488TIP3    H258956   2.622   4.762  12.840  0.0177 -0.2961 -0.5508
12489TIP3   OH258957   6.760   6.095  16.935 -0.0491  0.0644  0.2554
12489TIP3    H158958   6.710   6.014  16.947 -1.8359  1.3209  1.9397
12489TIP3    H258959   6.750   6.116  16.842 -0.3537 -1.1248  0.0046
12490TIP3   OH258960   5.344   3.716  11.705 -0.1867  0.4447  0.4821
12490TIP3    H158961   5.404   3.761  11.645  1.8675 -0.5014  1.7081
12490TIP3    H258962   5.340   3.626  11.672 -2.2023  0.8242 -0.4539
12491TIP3   OH258963   1.857   3.616  12.174  0.0229  0.1435 -0.0650
12491TIP3    H158964   1.856   3.712  12.178  0.0811  0.1566 -0.3952
12491TIP3    H258965   1.949   3.592  12.186 -0.2345  0.0404  2.0809
12492TIP3   OH258966   1.171   4.684   6.056 -0.4358  0.1222 -0.1566
12492TIP3    H158967   1.135   4.747   6.118 -0.8147 -0.4788  0.2470
12492TIP3    H258968   1.263   4.710   6.045 -0.0006 -0.5072  1.6484
12493TIP3   OH258969   4.201   0.979   0.633  0.7047  0.4572 -0.3404
12493TIP3    H158970   4.117   0.933   0.641  0.8013  0.2105 -0.6690
12493TIP3    H258971   4.252   0.924   0.572  1.1664  0.5134 -0.0081
12494TIP3   OH258972   0.375   0.228  14.583  0.2137 -0.2186 -0.2296
12494TIP3    H158973   0.311   0.157  14.588 -0.2335  0.1627 -0.4892
12494TIP3    H258974   0.323   0.308  14.591  0.7245  0.0829  0.1553
12495TIP3   OH258975   0.470   2.549   4.605  0.0879 -0.2156  0.4956
12495TIP3    H158976   0.475   2.453   4.606  3.1369 -0.1994 -1.1311
12495TIP3    H258977   0.380   2.568   4.579  0.4322 -2.8372 -3.5429
12496TIP3   OH258978   4.322   1.852  13.506  0.0967  0.0558  0.3163
12496TIP3    H158979   4.327   1.758  13.494 -1.7051  0.1887 -2.2638
12496TIP3    H258980   4.254   1.864  13.573 -1.2911 -0.5090 -0.9213
12497TIP3   OH258981   3.544   3.196   0.972 -0.0910 -0.1553  0.2400
12497TIP3    H158982   3.494   3.162   0.898  0.4283  0.3370 -0.3492
12497TIP3    H258983   3.478   3.216   1.038 -0.5831 -0.4233 -0.1614
12498TIP3   OH258984   3.610   4.676   2.872 -0.6337 -0.4154  0.1316
12498TIP3    H158985   3.684   4.672   2.933  0.2795 -1.5430 -0.9905
12498TIP3    H258986   3.637   4.740   2.806  0.2397 -2.1857 -1.3252
12499TIP3   OH258987   5.140   4.009  12.931 -0.0970  0.1680 -0.3294
12499TIP3    H158988   5.198   3.946  12.975 -0.7475 -0.1171  0.1367
12499TIP3    H258989   5.171   4.011  12.840  0.3137 -0.3691 -0.2059
12500TIP3   OH258990   4.770   5.191   2.028 -0.5597 -0.5351  0.4463
12500TIP3    H158991   4.771   5.245   2.108  1.4543 -0.4834  0.4426
12500TIP3    H258992   4.854   5.145   2.030 -1.6960 -2.7618 -0.2006
12501TIP3   OH258993   6.641   4.495  14.059  0.2760  0.4041  0.2855
12501TIP3    H158994   6.671   4.426  14.001 -0.3579  0.2046  0.1851
12501TIP3    H258995   6.718   4.551  14.072  0.7444 -0.2135  0.2238
12502TIP3   OH258996   3.036   1.178   5.312  0.2420 -0.4377  0.3265
12502TIP3    H158997   2.991   1.231   5.378 -2.0143  0.0537 -1.4954
12502TIP3    H258998   3.004   1.212   5.228  2.1077 -1.8213 -1.0242
12503TIP3   OH258999   4.499   2.973   4.888 -0.7291  0.9150 -1.0690
12503TIP3    H159000   4.578   2.919   4.895 -0.4120  1.3410 -1.3084
12503TIP3    H259001   4.464   2.977   4.977 -0.6391  0.4911 -1.0140
12504TIP3   OH259002   2.210   3.213   5.578  0.4219  0.0169  0.0360
12504TIP3    H159003   2.136   3.274   5.587  1.9622  2.1753 -1.0378
12504TIP3    H259004   2.170   3.126   5.584 -1.9379  1.0955  1.2983
12505TIP3   OH259005   3.679   4.630  14.869  0.2934 -0.4645 -0.3838
12505TIP3    H159006   3.758   4.632  14.924  1.3965 -1.0707 -1.8840
12505TIP3    H259007   3.641   4.545  14.886  1.6031 -1.3850 -1.8014
12506TIP3   OH259008   0.392   5.894  16.466  0.0166  1.2296  0.2819
12506TIP3    H159009   0.339   5.837  16.522  1.6797 -0.3748  0.3150
12506TIP3    H259010   0.456   5.934  16.525  0.2852  1.3605 -0.0917
12507TIP3   OH259011   2.643   2.085  15.804  0.0436  0.4321  0.0684
12507TIP3    H159012   2.560   2.073  15.758 -0.7271  0.1504  1.4702
12507TIP3    H259013   2.689   2.001  15.792 -0.7874 -0.1809  1.0051
12508TIP3   OH259014   1.642   5.174  14.977  0.4815 -0.6153  0.1095
12508TIP3    H159015   1.569   5.227  14.945  0.9410  0.6465  1.1008
12508TIP3    H259016   1.605   5.121  15.047  0.2745 -0.8176 -0.1487
12509TIP3   OH259017   0.846   6.264   0.075 -0.0123  0.1127  0.5519
12509TIP3    H159018   0.908   6.294   0.008 -1.4183  0.7465 -0.5234
12509TIP3    H259019   0.817   6.178   0.044 -1.9406  1.1111 -0.6555
12510TIP3   OH259020   6.289   1.208   1.708 -0.5107  0.2618 -0.2143
12510TIP3    H159021   6.377   1.234   1.737 -0.4058  0.1988 -0.4729
12510TIP3    H259022   6.261   1.280   1.651  0.5590 -1.0221 -2.5034
12511TIP3   OH259023   0.284   2.580   2.677 -0.5408 -0.0675 -0.0374
12511TIP3    H159024   0.265   2.520   2.605  0.5985 -1.3838  0.7051
12511TIP3    H259025   0.213   2.567   2.739 -0.3251 -0.6083  0.0964
12512TIP3   OH259026   4.055   1.324   5.870 -0.4178 -0.3727  0.0058
12512TIP3    H159027   4.004   1.321   5.951  0.8857  1.4486  0.9670
12512TIP3    H259028   4.033   1.407   5.830  2.1550  0.7911  0.7867
12513TIP3   OH259029   3.077   1.153  16.302 -0.3644 -0.2131  0.7143
12513TIP3    H159030   3.113   1.201  16.377  1.1219 -0.2491  0.0530
12513TIP3    H259031   3.124   1.070  16.301 -1.0778 -0.6214  0.3209
12514TIP3   OH259032   1.887   5.172  12.317  0.4361 -0.0411  0.2747
12514TIP3    H159033   1.901   5.242  12.380  0.9820  0.0215  0.0895
12514TIP3    H259034   1.835   5.212  12.247 -2.2132 -0.6851  1.7227
12515TIP3   OH259035   5.078   0.707   2.250 -0.1894  0.0954 -0.0380
12515TIP3    H159036   5.048   0.772   2.313 -1.2535 -0.6870  0.3028
12515TIP3    H259037   4.997   0.674   2.211  0.2376 -1.7901  0.5796
12516TIP3   OH259038   2.671   1.330  15.098 -0.6162 -0.3850  0.4750
12516TIP3    H159039   2.635   1.418  15.084  0.7272  0.1102 -0.0501
12516TIP3    H259040   2.656   1.312  15.191  0.3133  0.9963  0.9306
12517TIP3   OH259041   5.811   1.292   2.127 -0.4557  0.2675 -0.0814
12517TIP3    H159042   5.877   1.285   2.196  0.1178  1.8105 -0.4167
12517TIP3    H259043   5.860   1.279   2.046 -0.9391 -0.5409 -0.2471
12518TIP3   OH259044   3.661   5.764  12.645  0.4877 -0.3734  0.4187
12518TIP3    H159045   3.607   5.774  12.723  1.1856  3.2162  0.5977
12518TIP3    H259046   3.599   5.767  12.572  0.1670  0.6753  0.7214
12519TIP3   OH259047   3.327   0.864   0.269 -0.4452 -0.0229 -0.0565
12519TIP3    H159048   3.305   0.800   0.202 -0.5538 -0.1432  0.0944
12519TIP3    H259049   3.244   0.906   0.292 -0.1956  1.0802 -1.0790
12520TIP3   OH259050   4.971   0.014   1.977  0.8928  0.1581  0.5197
12520TIP3    H159051   4.967   0.107   2.001  3.4132  1.2306 -2.5628
12520TIP3    H259052   4.911   0.006   1.903  0.5482 -0.7478  0.8845
12521TIP3   OH259053   5.964   0.310  11.349  0.8208 -0.1615  0.1695
12521TIP3    H159054   6.025   0.239  11.331 -0.1576 -1.0579  0.2604
12521TIP3    H259055   5.904   0.274  11.415  0.2513  0.7139  0.1470
12522TIP3   OH259056   2.307   4.226  12.300 -0.2554 -0.1482  0.1704
12522TIP3    H159057   2.367   4.196  12.232 -1.3865 -2.5071  0.0975
12522TIP3    H259058   2.222   4.230  12.256 -0.4407  1.8628  0.6006
12523TIP3   OH259059   3.791   0.256   2.596 -0.4267  0.2768  0.2483
12523TIP3    H159060   3.863   0.319   2.599  0.6023 -0.8749  0.7729
12523TIP3    H259061   3.782   0.235   2.503 -0.0917  0.4577  0.1715
12524TIP3   OH259062   5.347   3.235  15.172 -0.2969  0.4388  0.2211
12524TIP3    H159063   5.291   3.309  15.149  0.2338  0.3218 -1.5454
12524TIP3    H259064   5.288   3.160  15.176 -0.3677  0.3952 -1.1989
12525TIP3   OH259065   3.666   4.423   1.537  0.1649 -0.1939 -0.1101
12525TIP3    H159066   3.761   4.412   1.542  0.2418  0.5022  0.0605
12525TIP3    H259067   3.653   4.488   1.467 -0.1362  0.2555  0.3550
12526TIP3   OH259068   0.191   2.963  11.102  0.2566 -0.5347 -0.5209
12526TIP3    H159069   0.261   2.961  11.038  1.2473 -0.7361  0.5347
12526TIP3    H259070   0.166   3.056  11.108 -1.8635 -0.8193 -3.2539
12527TIP3   OH259071   2.987   0.966   4.391 -0.2648 -0.3416  0.2943
12527TIP3    H159072   3.032   1.024   4.453 -1.1988  1.4341 -0.6307
12527TIP3    H259073   3.021   0.992   4.306 -0.7325 -1.1694 -0.1516
12528TIP3   OH259074   4.015   3.404   4.413 -0.0708 -0.3850 -0.4865
12528TIP3    H159075   4.000   3.312   4.434 -2.2329 -0.6529 -2.8189
12528TIP3    H259076   3.931   3.446   4.428  0.3391  0.8086 -1.4285
12529TIP3   OH259077   0.186   2.146   6.668  0.3450 -0.2552  0.1370
12529TIP3    H159078   0.251   2.078   6.688 -0.4415 -0.9318  0.5155
12529TIP3    H259079   0.220   2.191   6.591 -0.5886 -3.1696 -2.1843
12530TIP3   OH259080   0.392   2.336  17.177 -1.0429 -0.2194  0.2453
12530TIP3    H159081   0.401   2.241  17.169 -2.0122 -0.2896 -0.1617
12530TIP3    H259082   0.298   2.352  17.163 -0.7330  0.8859 -0.6800
12531TIP3   OH259083   1.634   4.428   1.668  0.4390 -0.4711 -0.4514
12531TIP3    H159084   1.726   4.417   1.644  0.1284  0.7317 -2.3708
12531TIP3    H259085   1.586   4.398   1.592 -0.7912 -1.0326  0.5093
12532TIP3   OH259086   5.251   4.341   5.024 -0.7134  0.2864 -0.1468
12532TIP3    H159087   5.182   4.328   5.088 -0.2737 -0.0996  0.2621
12532TIP3    H259088   5.206   4.345   4.939 -1.2261 -0.0150  0.1114
12533TIP3   OH259089   1.968   0.829  13.800 -0.3779  0.1327 -0.0928
12533TIP3    H159090   1.984   0.737  13.820 -1.3530  0.3113  1.7293
12533TIP3    H259091   2.051   0.873  13.820  0.2570 -0.3731 -1.4670
12534TIP3   OH259092   6.094   2.155   4.846  0.0113  0.2851  0.5744
12534TIP3    H159093   6.042   2.112   4.914 -2.1270  1.9661  0.0886
12534TIP3    H259094   6.089   2.097   4.771 -0.5965  0.0934  0.7576
12535TIP3   OH259095   1.398   1.631  11.261 -0.2806  0.0660 -0.0261
12535TIP3    H159096   1.347   1.552  11.240  1.9715 -1.3158 -0.6239
12535TIP3    H259097   1.401   1.634  11.356 -1.6399  0.3149  0.0253
12536TIP3   OH259098   5.877   0.935   1.721  0.4122 -0.1007  0.8313
12536TIP3    H159099   5.845   0.861   1.671  0.9226  0.7505 -0.8478
12536TIP3    H259100   5.961   0.956   1.680  0.0949  1.6270  0.9874
12537TIP3   OH259101   4.325   2.468   6.254  0.0009 -0.4367 -0.6311
12537TIP3    H159102   4.264   2.419   6.200  0.0765 -1.8938  0.5221
12537TIP3    H259103   4.325   2.422   6.338  1.4578  0.4782 -0.0793
12538TIP3   OH259104   1.025   4.251   5.503  0.3290  0.5113  0.4787
12538TIP3    H159105   1.039   4.241   5.597  0.4364 -1.6140  0.2951
12538TIP3    H259106   1.112   4.262   5.466  0.4568 -0.4147  0.4840
12539TIP3   OH259107   5.788   1.566   5.289  0.5958 -0.1734  0.1565
12539TIP3    H159108   5.740   1.642   5.321  1.1803 -0.0967  0.8666
12539TIP3    H259109   5.804   1.513   5.368  0.5886 -0.8089 -0.2604
12540TIP3   OH259110   6.637   2.388   2.833  0.1930  0.0083 -0.4663
12540TIP3    H159111   6.542   2.393   2.823  0.0154 -0.2939  0.9046
12540TIP3    H259112   6.667   2.339   2.757 -0.8615 -0.7977 -0.3779
12541TIP3   OH259113   5.271   2.793  15.497 -0.6131  0.4335  0.3567
12541TIP3    H159114   5.262   2.800  15.592 -3.8102  1.3139  0.0858
12541TIP3    H259115   5.199   2.736  15.470 -0.1124  0.6584 -1.5930
12542TIP3   OH259116   2.330   3.074   3.769  0.7587  0.1830  0.5548
12542TIP3    H159117   2.316   3.127   3.848  0.1137 -0.2028  0.7112
12542TIP3    H259118   2.306   2.986   3.796  0.4053  0.0726 -0.1127
12543TIP3   OH259119   0.672   3.880  16.491 -0.3151 -0.0059 -0.0652
12543TIP3    H159120   0.723   3.832  16.425 -0.9506 -0.1177 -0.4840
12543TIP3    H259121   0.623   3.812  16.538  0.6280  0.0015  0.9819
12544TIP3   OH259122   1.442   0.515   1.306  0.8794  0.2542 -0.4951
12544TIP3    H159123   1.446   0.429   1.264  0.1060 -0.2254  0.3452
12544TIP3    H259124   1.377   0.503   1.376 -0.0107  1.8183 -1.0246
12545TIP3   OH259125   6.847   6.447  16.461 -0.4514 -0.1010 -0.0451
12545TIP3    H159126   6.909   6.470  16.530  0.4967 -0.8363 -0.6055
12545TIP3    H259127   6.852   6.520  16.399 -0.0652 -0.1916 -0.1270
12546TIP3   OH259128   0.368   2.600  11.568 -0.5000  0.0261  0.5074
12546TIP3    H159129   0.346   2.692  11.580  0.0777  0.0512  1.5206
12546TIP3    H259130   0.288   2.553  11.593 -0.9781  0.2518 -0.5364
12547TIP3   OH259131   1.403   0.015   0.872 -0.5485  0.3537 -0.3718
12547TIP3    H159132   1.361   0.022   0.957 -4.0468  0.6114 -1.9626
12547TIP3    H259133   1.379  -0.072   0.840  0.4228  0.3921 -1.2718
12548TIP3   OH259134   2.334   2.302  12.523  0.2795  0.2278  0.2740
12548TIP3    H159135   2.392   2.371  12.558 -0.5907  0.3400  1.5622
12548TIP3    H259136   2.279   2.277  12.597 -1.1762 -0.0479 -0.8478
12549TIP3   OH259137   3.269   5.198  12.099 -0.3715 -0.1168 -0.1883
12549TIP3    H159138   3.314   5.193  12.015 -0.2605  1.9457 -0.3043
12549TIP3    H259139   3.339   5.203  12.164 -0.4559 -1.8099  0.0735
12550TIP3   OH259140   0.464   2.011  12.578  0.0462 -0.8473  0.4281
12550TIP3    H159141   0.536   2.039  12.634  0.4347 -1.7574  0.3897
12550TIP3    H259142   0.386   2.045  12.622  0.5242  0.8501  0.0419
12551TIP3   OH259143   2.568   3.727  12.168  0.1600  0.8618 -0.2641
12551TIP3    H159144   2.569   3.800  12.231  0.5149 -0.4526  1.3407
12551TIP3    H259145   2.558   3.649  12.223  1.8681 -0.4740 -1.7193
12552TIP3   OH259146   6.037   6.563   5.798 -0.6160 -0.5129 -0.0300
12552TIP3    H159147   5.964   6.541   5.739  0.1266 -1.7201 -0.5366
12552TIP3    H259148   6.007   6.533   5.884 -1.5878  0.9974  0.1994
12553TIP3   OH259149   3.636   5.502  16.913  0.0929  0.1126  0.0379
12553TIP3    H159150   3.572   5.529  16.846 -0.1141 -1.6275 -0.5222
12553TIP3    H259151   3.626   5.407  16.918  1.5903 -0.0195  1.0411
12554TIP3   OH259152   0.007   3.112   5.407 -0.2824  0.1048  0.3276
12554TIP3    H159153  -0.043   3.170   5.465  2.4756  1.0937  1.9131
12554TIP3    H259154   0.049   3.171   5.345  1.5697 -0.2380  1.1864
12555TIP3   OH259155   4.636   5.656   2.537 -0.4151  0.1682  0.1436
12555TIP3    H159156   4.620   5.580   2.480 -0.6527  1.1090 -1.0989
12555TIP3    H259157   4.548   5.686   2.561 -0.3145 -0.4772  1.4064
12556TIP3   OH259158   6.190   5.698   3.712 -0.3023  0.2326  0.4786
12556TIP3    H159159   6.170   5.624   3.769  0.1729 -0.6370 -0.4548
12556TIP3    H259160   6.139   5.681   3.633 -0.0573  0.8291  0.1888
12557TIP3   OH259161   4.988   6.576   4.066 -0.1701  0.4037  0.2621
12557TIP3    H159162   4.941   6.614   3.991  0.3796  0.9903  0.2107
12557TIP3    H259163   4.922   6.572   4.135  0.1521  3.1348  0.8386
12558TIP3   OH259164   5.100   4.348   4.773 -0.1756 -0.5938 -0.0938
12558TIP3    H159165   5.156   4.326   4.699 -1.0798  1.1734 -1.3587
12558TIP3    H259166   5.011   4.334   4.741 -0.7454  2.8660 -0.4153
12559TIP3   OH259167   2.103   4.818   4.095 -0.1906  0.1746  0.0624
12559TIP3    H159168   2.177   4.869   4.130 -0.3154  1.3310 -1.2815
12559TIP3    H259169   2.027   4.876   4.106 -0.3901  0.1813 -1.1936
12560TIP3   OH259170   0.136   3.017  16.851 -0.2022 -0.0109  0.2789
12560TIP3    H159171   0.186   3.098  16.860  0.2054 -0.3525  1.1884
12560TIP3    H259172   0.059   3.042  16.800  1.3435  0.3355 -2.0213
12561TIP3   OH259173   2.139   6.114  17.149  0.1873 -0.1512 -0.0510
12561TIP3    H159174   2.098   6.157  17.073 -0.7467 -0.6131  0.1743
12561TIP3    H259175   2.180   6.186  17.197 -0.9520  0.4411  0.0707
12562TIP3   OH259176   1.525   4.374   1.434 -0.1616 -0.0248 -0.1091
12562TIP3    H159177   1.516   4.293   1.483  0.3515  0.8894  1.5628
12562TIP3    H259178   1.459   4.368   1.365 -0.5247 -1.5811  0.3364
12563TIP3   OH259179   5.213   0.355   5.714 -0.1051  0.1527  0.1652
12563TIP3    H159180   5.190   0.390   5.800 -2.9438 -2.3946  0.6391
12563TIP3    H259181   5.138   0.300   5.690  2.7662 -3.5268 -1.5022
12564TIP3   OH259182   2.367   1.633   0.276  0.8359  0.1996 -0.3960
12564TIP3    H159183   2.317   1.584   0.342  2.0872 -2.5790 -1.3280
12564TIP3    H259184   2.304   1.648   0.205 -0.0361  1.6275  0.6213
12565TIP3   OH259185   2.359   3.800   5.575 -0.2782 -0.0891 -0.3804
12565TIP3    H159186   2.321   3.717   5.606 -2.1510  1.1590  0.8379
12565TIP3    H259187   2.449   3.777   5.551 -1.0142 -2.6786 -1.0337
12566TIP3   OH259188   1.716   5.150   1.002 -0.0496  0.0182  0.1093
12566TIP3    H159189   1.772   5.120   1.074 -1.0169 -2.0140  0.0945
12566TIP3    H259190   1.655   5.211   1.043  0.6709  0.4328  0.5944
12567TIP3   OH259191   0.396   1.700  13.277 -0.0783  0.3202 -0.3266
12567TIP3    H159192   0.390   1.740  13.190 -1.2107  1.4689  0.2382
12567TIP3    H259193   0.407   1.774  13.337  2.2339 -0.5467  0.4219
12568TIP3   OH259194   4.292   4.070  12.297 -0.1393 -0.1105  0.4013
12568TIP3    H159195   4.294   3.977  12.321  1.8836 -0.5564 -1.1887
12568TIP3    H259196   4.244   4.112  12.369  0.1712 -2.1678  1.9239
12569TIP3   OH259197   3.460   0.248   4.821 -0.2491 -0.6089 -0.1116
12569TIP3    H159198   3.537   0.291   4.785 -1.6001  1.5557 -0.5800
12569TIP3    H259199   3.428   0.192   4.750  1.0775 -1.8493  0.2298
12570TIP3   OH259200   5.023   6.298   2.786  0.2568  0.3664  0.6189
12570TIP3    H159201   5.016   6.217   2.737 -0.8475  0.9233 -0.1996
12570TIP3    H259202   5.116   6.322   2.781  0.0300  0.9760 -2.2039
12571TIP3   OH259203   5.550   4.222   4.465  0.4390  0.0635  0.1352
12571TIP3    H159204   5.624   4.262   4.419 -0.7668 -0.5779 -2.5494
12571TIP3    H259205   5.530   4.143   4.415 -3.9942  1.7627 -1.2320
12572TIP3   OH259206   3.460   5.712  12.472  0.0834 -0.0857 -0.2534
12572TIP3    H159207   3.372   5.740  12.499 -0.7763 -3.7633  1.4481
12572TIP3    H259208   3.455   5.706  12.377 -1.1255  0.8590 -0.2805
12573TIP3   OH259209   6.419   6.659  13.964 -0.0195 -0.5197  0.5564
12573TIP3    H159210   6.413   6.734  13.905  2.1673 -0.1578  0.7202
12573TIP3    H259211   6.337   6.612  13.951 -0.3494  0.5074 -1.4651
12574TIP3   OH259212   5.544   6.812  13.903 -0.1138 -0.2626 -0.1942
12574TIP3    H159213   5.474   6.808  13.968 -0.1519 -1.3727 -0.2981
12574TIP3    H259214   5.621   6.777  13.947 -0.0472 -0.6694 -0.6317
12575TIP3   OH259215   5.276   4.862  17.021  0.3989  0.0702  0.1978
12575TIP3    H159216   5.256   4.939  16.968  1.9367  0.0907 -0.3935
12575TIP3    H259217   5.205   4.857  17.085 -0.1318  1.5175 -0.2594
12576TIP3   OH259218   4.761   5.037  12.355 -0.4291  0.1856 -0.0846
12576TIP3    H159219   4.705   4.962  12.372 -0.4511 -0.0667 -1.1930
12576TIP3    H259220   4.834   5.002  12.304 -1.8772  1.3274 -3.1958
12577TIP3   OH259221   0.557   4.397  13.700 -0.1852  0.4568 -0.0308
12577TIP3    H159222   0.590   4.373  13.787  1.1559 -1.5478 -1.0221
12577TIP3    H259223   0.463   4.381  13.705  0.1223 -1.4444  0.5665
12578TIP3   OH259224   5.351   1.069  13.311  0.1131  0.1873 -0.3919
12578TIP3    H159225   5.385   1.132  13.374  1.7391 -0.5179 -0.5068
12578TIP3    H259226   5.406   1.080  13.234 -1.3615  0.5146 -1.4307
12579TIP3   OH259227   6.752   2.237   3.216 -0.2745 -0.0675  0.5074
12579TIP3    H159228   6.781   2.149   3.190 -0.0210 -0.1686  1.1141
12579TIP3    H259229   6.827   2.293   3.196 -0.6436  0.1156 -0.4214
12580TIP3   OH259230   5.478   5.533  12.615  0.1968 -0.1393  0.2829
12580TIP3    H159231   5.565   5.556  12.646  0.9476 -0.7227 -1.3036
12580TIP3    H259232   5.455   5.455  12.664 -0.3248  1.1196  2.1617
12581TIP3   OH259233   3.698   6.193   3.579  0.1080  0.2966 -0.0283
12581TIP3    H159234   3.726   6.117   3.631  0.3718 -0.8219 -1.7405
12581TIP3    H259235   3.603   6.183   3.572  0.2960 -0.7850 -1.5404
12582TIP3   OH259236   3.495   1.005   3.798  0.0347  0.0082  0.0437
12582TIP3    H159237   3.589   1.002   3.780 -0.2737  0.3234 -1.7813
12582TIP3    H259238   3.470   0.914   3.813  0.5984 -0.0945  0.3853
12583TIP3   OH259239   5.768   2.013   3.368  0.1536  0.1179  0.0754
12583TIP3    H159240   5.797   1.936   3.418  1.2915  0.3131 -0.2628
12583TIP3    H259241   5.702   2.053   3.423 -0.8289 -1.3662  0.0523
12584TIP3   OH259242   3.035   1.103  10.269 -0.2382  0.2654 -0.4045
12584TIP3    H159243   2.988   1.139  10.345  0.1547  0.8061 -0.4114
12584TIP3    H259244   3.019   1.167  10.199  1.1166  0.8655 -0.2066
12585TIP3   OH259245   2.794   0.778  11.231 -0.1774 -1.0569 -0.0996
12585TIP3    H159246   2.866   0.840  11.242  1.1568 -2.5702  0.0803
12585TIP3    H259247   2.749   0.807  11.152  1.7478 -1.1204 -1.2577
12586TIP3   OH259248   3.587   2.056  14.536 -0.1009 -0.2189  0.5007
12586TIP3    H159249   3.620   2.132  14.488 -0.5846  0.2020  0.8146
12586TIP3    H259250   3.535   2.094  14.607 -0.2307 -0.8452  0.7477
12587TIP3   OH259251   4.957   1.278  13.703 -0.1135  0.3501  0.7215
12587TIP3    H159252   4.932   1.203  13.758 -0.8102  1.0650  1.4239
12587TIP3    H259253   4.957   1.352  13.763 -1.2748  1.2310 -0.3138
12588TIP3   OH259254   6.095   4.539  17.172 -0.4574 -0.1488 -0.1995
12588TIP3    H159255   6.094   4.604  17.102  0.8703  0.0114 -0.1095
12588TIP3    H259256   6.077   4.589  17.252  0.1922  0.0609 -0.1768
12589TIP3   OH259257   2.107   2.868  15.770  0.2541 -0.1199  0.7406
12589TIP3    H159258   2.029   2.815  15.785 -0.6617  0.5785 -1.2778
12589TIP3    H259259   2.179   2.805  15.767 -0.6487 -1.1303 -0.3864
12590TIP3   OH259260   4.944   2.612   5.392 -0.8996 -0.5788 -0.1400
12590TIP3    H159261   4.991   2.629   5.310 -1.9191 -0.5532 -0.7435
12590TIP3    H259262   4.880   2.683   5.398 -1.5835 -1.1959  0.0927
12591TIP3   OH259263   0.744   3.970   4.307 -0.1119 -0.2135  0.0835
12591TIP3    H159264   0.751   3.955   4.401  0.6481  2.7787  0.6016
12591TIP3    H259265   0.740   4.065   4.298 -0.6609 -0.4237 -2.9011
12592TIP3   OH259266   0.682   2.975   0.879  0.4170 -0.5018 -0.3947
12592TIP3    H159267   0.612   2.932   0.930  0.1346 -0.2006 -0.5221
12592TIP3    H259268   0.706   2.911   0.813  1.7397 -1.4490  0.9368
12593TIP3   OH259269   1.150   6.133  14.358 -0.1462  0.0584 -0.2963
12593TIP3    H159270   1.223   6.129  14.419  0.9410 -2.0240 -1.6093
12593TIP3    H259271   1.104   6.050  14.371 -1.2626  0.5845 -0.7187
12594TIP3   OH259272   1.110   0.128   2.823  0.1705 -1.4204  0.0229
12594TIP3    H159273   1.050   0.155   2.893 -1.4172 -0.5544 -1.5840
12594TIP3    H259274   1.161   0.056   2.861  2.5677  1.7342  3.6014
12595TIP3   OH259275   1.282   1.186  14.804  0.0973 -0.1361 -0.1945
12595TIP3    H159276   1.364   1.191  14.755  0.2608 -0.0681  0.0811
12595TIP3    H259277   1.213   1.197  14.738  0.3045 -0.3463 -0.4483
12596TIP3   OH259278   1.541   3.437  11.098  0.0497  0.5462  0.1098
12596TIP3    H159279   1.616   3.480  11.138  1.3851  0.9046 -2.5462
12596TIP3    H259280   1.542   3.348  11.133  2.0177  0.4129 -0.1709
12597TIP3   OH259281   6.837   2.059   5.808  0.3971  0.1958  0.0065
12597TIP3    H159282   6.810   2.143   5.845 -2.0522 -0.5761  0.1285
12597TIP3    H259283   6.777   2.044   5.735 -0.6284 -2.3740  1.2688
12598TIP3   OH259284   0.925   4.734  16.910 -0.3033 -0.4780  0.1562
12598TIP3    H159285   0.933   4.642  16.887  1.3753 -0.7792  1.7474
12598TIP3    H259286   0.844   4.739  16.961  0.9469 -1.6573  2.4128
12599TIP3   OH259287   3.135   1.622  15.719  0.0169  0.3947 -0.4499
12599TIP3    H159288   3.159   1.544  15.769  0.2971  1.7802  1.7455
12599TIP3    H259289   3.073   1.668  15.777  0.1175  1.9510 -1.5300
12600TIP3   OH259290   6.423   3.515  11.500 -0.6005  0.4145 -0.3369
12600TIP3    H159291   6.477   3.573  11.447 -0.0417  0.7717  0.6021
12600TIP3    H259292   6.470   3.431  11.499  0.6212  1.0344  1.4233
12601TIP3   OH259293   0.737   1.197   2.265  0.4788 -0.1518 -0.0548
12601TIP3    H159294   0.822   1.238   2.284  1.0052 -0.6453 -1.2108
12601TIP3    H259295   0.693   1.260   2.208  1.0356 -0.8808 -1.3311
12602TIP3   OH259296   1.859   6.623   2.438 -0.5735  0.2772  0.1152
12602TIP3    H159297   1.845   6.529   2.444 -0.2133  0.0591 -1.7049
12602TIP3    H259298   1.794   6.653   2.374  0.8730  0.8413 -1.1546
12603TIP3   OH259299   3.356   4.798  10.786  0.7043  0.1936  0.1161
12603TIP3    H159300   3.423   4.740  10.822 -0.5427 -1.0061  0.5876
12603TIP3    H259301   3.348   4.772  10.694 -0.0316 -0.6030  0.3877
12604TIP3   OH259302   2.026   5.553  16.565  0.6098 -0.8384 -0.0942
12604TIP3    H159303   2.003   5.565  16.657 -2.7330  0.8957 -0.9890
12604TIP3    H259304   2.078   5.630  16.543 -1.3238  0.4821 -0.3160
12605TIP3   OH259305   4.866   1.008   3.805  0.2398  0.0137 -0.2555
12605TIP3    H159306   4.773   1.008   3.828  0.4289  0.7359  0.5647
12605TIP3    H259307   4.892   0.916   3.811  0.1643  0.0742  2.0934
12606TIP3   OH259308   0.000   3.036   0.729  0.0492  0.8367  0.4150
12606TIP3    H159309   0.094   3.043   0.746 -0.3816  2.7708  2.4719
12606TIP3    H259310  -0.012   3.078   0.644  0.9453  1.5212  0.6100
12607TIP3   OH259311   5.797   4.103   4.888 -0.3599 -0.4060 -0.0164
12607TIP3    H159312   5.744   4.027   4.910  0.7586 -0.7887  1.5176
12607TIP3    H259313   5.773   4.168   4.953  0.7593 -0.4531  0.4535
12608TIP3   OH259314   2.018   1.026  11.955  0.3162 -0.8571  0.0639
12608TIP3    H159315   2.042   1.075  12.034  1.2159 -1.4844  0.1990
12608TIP3    H259316   2.102   1.009  11.912 -0.2597  1.0563 -2.0221
12609TIP3   OH259317   3.282   5.504   6.552 -0.6203  0.1796 -0.0004
12609TIP3    H159318   3.364   5.456   6.541  0.1319  1.6819 -1.4043
12609TIP3    H259319   3.225   5.444   6.601  1.4939 -0.6624  1.5680
12610TIP3   OH259320   2.270   4.503  10.500  0.9889 -0.0521 -0.3387
12610TIP3    H159321   2.237   4.415  10.516 -0.2065  0.1752 -1.4090
12610TIP3    H259322   2.268   4.514  10.405 -1.0240  1.8670 -0.1563
12611TIP3   OH259323   0.315   2.667  12.304 -0.3317  0.1720  0.6791
12611TIP3    H159324   0.235   2.614  12.299  0.1285 -0.4118 -1.5066
12611TIP3    H259325   0.303   2.721  12.382 -1.3823 -2.2214  2.2815
12612TIP3   OH259326   2.374   3.973  14.128 -0.3141  0.1237  0.0955
12612TIP3    H159327   2.431   3.997  14.055 -2.2282  0.2690 -1.4283
12612TIP3    H259328   2.315   3.907  14.093 -0.6404 -0.5572  1.8221
12613TIP3   OH259329   4.424   4.755   0.124 -0.0351  0.6879 -0.2079
12613TIP3    H159330   4.451   4.812   0.196 -0.3689  0.6719 -0.0665
12613TIP3    H259331   4.422   4.812   0.047 -1.5279  1.1691  0.1508
12614TIP3   OH259332   4.196   6.430  16.660  0.3334 -0.7317  0.4373
12614TIP3    H159333   4.244   6.503  16.620 -0.8590  0.2053  0.6365
12614TIP3    H259334   4.205   6.358  16.598  3.6508 -1.2896  1.3581
12615TIP3   OH259335   3.040   5.890   6.060  0.0896 -0.0411  0.3477
12615TIP3    H159336   3.101   5.879   5.987 -0.0498  0.7628  0.1084
12615TIP3    H259337   3.092   5.931   6.129  0.1727 -0.6305  0.6481
12616TIP3   OH259338   1.449   1.475   1.616  0.3372 -0.1212 -0.2987
12616TIP3    H159339   1.503   1.399   1.593  0.8175 -0.5365  1.9867
12616TIP3    H259340   1.491   1.548   1.571  1.1052 -0.8709 -0.8448
12617TIP3   OH259341   4.833   5.051  16.835  0.0460 -0.4629  0.5540
12617TIP3    H159342   4.820   4.957  16.831 -0.0171 -0.4342 -0.0153
12617TIP3    H259343   4.923   5.064  16.806 -0.1677 -0.3020 -0.0723
12618TIP3   OH259344   0.380   5.039  11.007  0.2267  0.3055  0.0404
12618TIP3    H159345   0.369   5.115  10.950 -1.9931  0.7476  0.9275
12618TIP3    H259346   0.453   5.062  11.064 -0.6028  1.9679  0.4991
12619TIP3   OH259347   6.032   1.183   4.510  0.5400  0.0686  0.6148
12619TIP3    H159348   6.051   1.199   4.417  0.2610  0.1674  0.5745
12619TIP3    H259349   5.946   1.140   4.510  1.0460 -0.9762  0.7535
12620TIP3   OH259350   6.249   0.250  14.081 -0.0124 -0.2486 -0.1135
12620TIP3    H159351   6.253   0.338  14.043 -0.6957 -0.0350  0.2871
12620TIP3    H259352   6.157   0.225  14.073  0.2452 -1.0652 -0.5304
12621TIP3   OH259353   4.361   2.928  13.218  0.2521 -0.3603 -0.1626
12621TIP3    H159354   4.332   2.839  13.240  1.8471 -0.9157 -0.1960
12621TIP3    H259355   4.291   2.985  13.251 -0.2679 -1.5477  0.8695
12622TIP3   OH259356   5.832   1.407  13.728  0.0294 -0.1486  0.7333
12622TIP3    H159357   5.752   1.386  13.679  0.7191  1.1746 -1.0365
12622TIP3    H259358   5.871   1.322  13.748 -1.1191 -0.7636  0.4408
12623TIP3   OH259359   2.097   6.741   1.907  0.5687  0.1165  0.1216
12623TIP3    H159360   2.149   6.664   1.929 -0.4700 -0.8303 -0.6344
12623TIP3    H259361   2.120   6.761   1.816 -3.0699 -2.7037 -1.6669
12624TIP3   OH259362   1.182   4.752  12.812 -0.0435 -0.4213 -0.4079
12624TIP3    H159363   1.133   4.735  12.892 -0.6637 -0.7019 -0.8373
12624TIP3    H259364   1.168   4.674  12.758  0.5059 -0.3089 -0.7196
12625TIP3   OH259365   2.381   2.089   3.676  0.5381 -0.2598  0.6186
12625TIP3    H159366   2.357   2.096   3.584 -5.3156  2.8595  1.9232
12625TIP3    H259367   2.328   2.016   3.709  0.2133  0.5499  1.9798
12626TIP3   OH259368   5.387   3.498  14.239  0.0668  0.4324  0.5670
12626TIP3    H159369   5.457   3.506  14.174  0.8024  1.3148  1.4324
12626TIP3    H259370   5.338   3.580  14.231 -0.9330 -0.1991 -0.0698
12627TIP3   OH259371   6.302   3.548  13.151 -0.5949 -0.4373  0.4920
12627TIP3    H159372   6.324   3.583  13.065  0.5453 -0.6319  0.6873
12627TIP3    H259373   6.239   3.478  13.134 -2.1018  0.9623  0.0135
12628TIP3   OH259374   1.185   3.750  12.412 -0.1678  0.3276 -0.1672
12628TIP3    H159375   1.201   3.678  12.473  1.5829  0.3898 -0.5003
12628TIP3    H259376   1.157   3.823  12.468  1.1232  0.2967  0.5656
12629TIP3   OH259377   0.556   1.426  14.420 -1.0627 -0.0951 -0.1779
12629TIP3    H159378   0.504   1.422  14.501  1.4683 -0.1173  1.5693
12629TIP3    H259379   0.533   1.510  14.380 -1.7883  0.2900  1.0069
12630TIP3   OH259380   6.093   1.009  13.439 -0.1900 -0.6279 -0.4372
12630TIP3    H159381   6.006   1.030  13.405 -0.7717 -0.4874  1.0641
12630TIP3    H259382   6.099   0.914  13.433 -0.9342 -0.7497  0.5297
12631TIP3   OH259383   2.727   2.492  11.843  0.2051  0.2598 -0.0229
12631TIP3    H159384   2.702   2.419  11.787 -0.0648 -0.0844  0.5395
12631TIP3    H259385   2.806   2.461  11.889  0.5782  0.6372 -0.3997
12632TIP3   OH259386   1.110   5.299  13.330  0.3042 -0.2353  0.8366
12632TIP3    H159387   1.205   5.300  13.319  0.4069  0.0478  1.6697
12632TIP3    H259388   1.087   5.390  13.348  0.1001 -0.5473  2.3225
12633TIP3   OH259389   1.250   2.479   5.673 -0.2343  0.4499  0.3164
12633TIP3    H159390   1.201   2.406   5.710  0.1162 -1.2054 -2.2299
12633TIP3    H259391   1.326   2.488   5.730 -0.2285 -1.2523  0.6218
12634TIP3   OH259392   2.564   2.139   5.890  0.5860  0.3216  0.5139
12634TIP3    H159393   2.639   2.081   5.899 -0.3076 -1.0698 -0.5573
12634TIP3    H259394   2.488   2.080   5.884 -0.5326  1.6591  0.9694
12635TIP3   OH259395   4.966   0.786  13.184  0.3139 -0.0456  0.4791
12635TIP3    H159396   4.886   0.765  13.136  0.1836 -0.3427  0.8230
12635TIP3    H259397   5.001   0.701  13.211  0.7452  0.0829  0.3304
12636TIP3   OH259398   5.282   0.644   2.439  0.6859 -0.2958 -0.2519
12636TIP3    H159399   5.233   0.564   2.458 -0.5917  0.6151  0.4087
12636TIP3    H259400   5.239   0.680   2.362  1.1178 -0.1214 -0.4125
12637TIP3   OH259401   1.923   4.001  14.183  0.4879  0.0499 -0.1792
12637TIP3    H159402   1.987   4.052  14.232  1.2922  0.7473 -1.8749
12637TIP3    H259403   1.945   4.017  14.091 -1.4608 -0.5472 -0.7957
12638TIP3   OH259404   6.246   5.385  12.572  0.1340 -0.3467  0.2529
12638TIP3    H159405   6.239   5.299  12.614 -1.1043 -0.3514  0.0851
12638TIP3    H259406   6.244   5.365  12.478 -0.1241 -0.1375  0.2139
12639TIP3   OH259407   5.115   6.617  16.318  0.3898 -0.5164 -0.2552
12639TIP3    H159408   5.204   6.641  16.294  0.8815  1.1868  2.7491
12639TIP3    H259409   5.060   6.660  16.252  1.6753 -2.4174 -2.7573
12640TIP3   OH259410   4.452   2.890  10.139 -0.0936 -0.3496  0.0633
12640TIP3    H159411   4.367   2.907  10.098  0.2970  1.1158 -0.1796
12640TIP3    H259412   4.442   2.922  10.228  0.0091 -0.7911  0.2376
12641TIP3   OH259413   6.724   6.312   5.753  0.2704  0.4897  0.3725
12641TIP3    H159414   6.798   6.260   5.786  2.0134  1.4301 -1.7793
12641TIP3    H259415   6.734   6.397   5.796  1.2917  1.0410 -0.8899
12642TIP3   OH259416   2.015   6.326   3.195 -0.2291  0.0586  0.4335
12642TIP3    H159417   1.937   6.285   3.233  0.0264 -0.0794  0.8183
12642TIP3    H259418   2.031   6.276   3.115  0.8453 -1.4966  1.5608
12643TIP3   OH259419   1.110   5.602  11.252  0.4052  0.2798  0.3878
12643TIP3    H159420   1.179   5.593  11.318  0.7599 -0.1729 -0.0305
12643TIP3    H259421   1.072   5.688  11.268 -1.4650 -0.8999  3.0172
12644TIP3   OH259422   5.098   1.303   5.986 -0.3109 -0.0603  0.5045
12644TIP3    H159423   5.064   1.268   6.068 -0.8577  1.8515  1.1391
12644TIP3    H259424   5.050   1.385   5.973  1.3826  0.8243 -0.5243
12645TIP3   OH259425   5.615   5.244  14.495  0.3954 -0.1557  0.3844
12645TIP3    H159426   5.608   5.249  14.590 -2.3400 -0.6727  0.3122
12645TIP3    H259427   5.700   5.203  14.479  0.4815 -1.0069  2.6486
12646TIP3   OH259428   6.418   6.457  13.579 -0.4553  0.2609 -0.3589
12646TIP3    H159429   6.476   6.427  13.509  0.9509  0.4062  0.6967
12646TIP3    H259430   6.472   6.455  13.658 -1.1338  2.8332  0.2650
12647TIP3   OH259431   1.587   2.140  17.195 -0.3172  0.2748  0.5438
12647TIP3    H159432   1.535   2.146  17.114 -0.9247 -0.7603  0.8372
12647TIP3    H259433   1.527   2.100  17.258  0.7986 -0.8334  0.9339
12648TIP3   OH259434   6.218   4.809   1.291 -0.3190  0.2616  0.1745
12648TIP3    H159435   6.310   4.781   1.296 -0.3309  0.3356  0.8208
12648TIP3    H259436   6.180   4.785   1.375 -1.0902 -0.4121 -0.3485
12649TIP3   OH259437   1.722   2.963   3.756  0.1715  1.3801  0.1345
12649TIP3    H159438   1.816   2.982   3.763  0.2720  0.9684 -0.0624
12649TIP3    H259439   1.718   2.883   3.702 -0.1767  0.2373  1.7891
12650TIP3   OH259440   1.250   2.811  11.030  0.5111 -0.0786  0.1541
12650TIP3    H159441   1.337   2.850  11.027  0.0905  1.0746  1.7857
12650TIP3    H259442   1.251   2.757  11.110 -0.1540 -0.3347 -0.0053
12651TIP3   OH259443   4.426   4.723   5.276 -0.1772 -0.0009 -0.2959
12651TIP3    H159444   4.334   4.742   5.254 -0.9773 -2.6302  0.4408
12651TIP3    H259445   4.435   4.629   5.264  2.2846  0.0968  0.2768
12652TIP3   OH259446   3.686   5.185  11.777 -0.7645 -0.7387  0.1736
12652TIP3    H159447   3.613   5.152  11.829  0.2293  0.3824  2.4022
12652TIP3    H259448   3.757   5.122  11.792 -0.4048 -0.2914  0.3894
12653TIP3   OH259449   5.170   3.090  17.106 -0.0792 -0.2435 -0.2198
12653TIP3    H159450   5.138   3.158  17.165  0.1562  0.4140 -0.8346
12653TIP3    H259451   5.152   3.123  17.018 -0.2726 -1.1360 -0.5291
12654TIP3   OH259452   5.384   1.950  14.071 -0.2055 -0.0512  0.4969
12654TIP3    H159453   5.477   1.942  14.092  0.4670 -0.6070 -2.3055
12654TIP3    H259454   5.340   1.889  14.131  0.9826  1.3905  2.9697
12655TIP3   OH259455   5.745   3.927   2.534  1.0991  0.2575 -0.1425
12655TIP3    H159456   5.778   3.860   2.594  0.7097  1.2279  1.2036
12655TIP3    H259457   5.672   3.968   2.581  2.5862  3.0091 -0.0071
12656TIP3   OH259458   4.609   0.337  16.022 -0.2651 -0.1021  0.6506
12656TIP3    H159459   4.663   0.407  15.985 -0.5161 -0.4616 -0.4224
12656TIP3    H259460   4.532   0.334  15.966 -0.9313 -0.2889  1.5509
12657TIP3   OH259461   2.483   4.129   3.299 -0.2809 -0.2194  0.5852
12657TIP3    H159462   2.417   4.109   3.365 -0.2672  1.2403  1.0796
12657TIP3    H259463   2.562   4.147   3.350  0.4849 -1.7817  0.0082
12658TIP3   OH259464   2.649   0.179   3.574 -0.4931 -0.2784  0.2070
12658TIP3    H159465   2.615   0.164   3.662  1.0581  1.2277  1.1238
12658TIP3    H259466   2.617   0.266   3.550 -0.7120 -0.5796 -0.6355
12659TIP3   OH259467   3.020   6.412  10.694 -0.4022  0.5621 -0.3751
12659TIP3    H159468   2.980   6.325  10.697  0.8595 -0.0350  0.1802
12659TIP3    H259469   2.952   6.471  10.726 -1.1016 -0.2950 -0.2339
12660TIP3   OH259470   2.812   6.128  16.729  0.0345 -0.3153  0.4454
12660TIP3    H159471   2.801   6.173  16.813 -1.5161  0.2448 -0.0335
12660TIP3    H259472   2.764   6.182  16.666  2.7421  0.3394 -1.2250
12661TIP3   OH259473   4.578   3.688  13.207  0.4546 -0.5584 -0.0314
12661TIP3    H159474   4.506   3.711  13.148 -0.0294 -1.6056  0.1124
12661TIP3    H259475   4.545   3.710  13.294  1.0196  0.6298 -0.0985
12662TIP3   OH259476   2.899   0.919  16.389 -0.4135 -0.2540 -0.0647
12662TIP3    H159477   2.940   0.833  16.378  0.1535  0.0941 -0.7797
12662TIP3    H259478   2.882   0.949  16.300  1.3033  1.2564  0.0330
12663TIP3   OH259479   0.401   0.622  14.664 -0.6500  0.0374 -0.0478
12663TIP3    H159480   0.325   0.570  14.690  0.3872 -1.1426  0.7584
12663TIP3    H259481   0.429   0.585  14.581  1.2846 -2.1748  1.4511
12664TIP3   OH259482   5.398   2.183   2.315 -0.2482  0.8504 -0.5021
12664TIP3    H159483   5.376   2.219   2.229  0.9373 -1.0365 -1.6616
12664TIP3    H259484   5.335   2.112   2.328 -1.2701  1.9327  0.8494
12665TIP3   OH259485   2.385   4.127   0.111  0.0113 -0.1102 -0.6154
12665TIP3    H159486   2.402   4.090   0.198  1.2802  0.0313 -0.7827
12665TIP3    H259487   2.359   4.052   0.057  0.2210 -0.3594 -0.3698
12666TIP3   OH259488   0.994   3.948  11.114  0.1265  0.6769  0.5285
12666TIP3    H159489   1.084   3.945  11.082  0.3926 -0.0679  1.2965
12666TIP3    H259490   0.973   4.041  11.119  0.2549  0.8351 -1.2515
12667TIP3   OH259491   3.827   6.355   5.443 -0.1288  0.2896  0.3193
12667TIP3    H159492   3.910   6.358   5.395 -1.8502  0.5393 -2.8832
12667TIP3    H259493   3.786   6.440   5.426 -1.9466 -0.5934  0.0127
12668TIP3   OH259494   0.516   3.977   3.352  0.8251 -0.4653  0.1818
12668TIP3    H159495   0.451   3.907   3.362  0.2964  0.2714  2.2889
12668TIP3    H259496   0.551   3.990   3.440  0.5063  2.2849 -0.0273
12669TIP3   OH259497   6.258   2.133   5.108  0.2211 -0.2696  0.0248
12669TIP3    H159498   6.294   2.064   5.052  3.1973  1.9708 -1.0933
12669TIP3    H259499   6.197   2.180   5.051 -1.0547 -1.3123  0.4855
12670TIP3   OH259500   2.373   1.206   1.381 -0.0755 -0.1124 -0.1099
12670TIP3    H159501   2.453   1.230   1.427 -0.3209  0.5420 -0.0144
12670TIP3    H259502   2.364   1.272   1.313 -0.7878  0.0999  0.1820
12671TIP3   OH259503   2.733   0.347  12.398 -0.1226 -0.2565  0.0758
12671TIP3    H159504   2.816   0.371  12.439 -0.1861 -1.4697  0.9704
12671TIP3    H259505   2.666   0.387  12.452 -0.1553  1.3991 -1.0972
12672TIP3   OH259506   4.529   6.688  14.988 -0.5987  0.1874  0.9441
12672TIP3    H159507   4.579   6.733  14.920 -1.1030 -1.0744 -0.3339
12672TIP3    H259508   4.466   6.753  15.018 -0.0746  0.9134  0.5093
12673TIP3   OH259509   1.315   4.479   3.807  0.0486  0.4168 -0.2062
12673TIP3    H159510   1.275   4.502   3.890 -1.2609 -0.4275 -0.5804
12673TIP3    H259511   1.404   4.514   3.813  0.0380  0.2316  1.6030
12674TIP3   OH259512   0.792   2.506   4.875  0.6955  0.1404  0.3266
12674TIP3    H159513   0.835   2.470   4.797 -3.1938  1.8446 -2.9859
12674TIP3    H259514   0.797   2.601   4.862 -2.6764  0.4465  0.3654
12675TIP3   OH259515   0.477   3.724   1.696  0.5200 -0.5028 -0.3510
12675TIP3    H159516   0.545   3.656   1.702  1.8406  0.8672  1.5198
12675TIP3    H259517   0.452   3.740   1.787  0.3617  1.5858 -0.7192
12676TIP3   OH259518   2.146   1.280   5.159 -0.3437  0.5196 -0.2230
12676TIP3    H159519   2.102   1.293   5.075  3.0511  2.7173 -1.9026
12676TIP3    H259520   2.109   1.348   5.216 -1.0380  0.5567 -0.7071
12677TIP3   OH259521   4.959   0.245   4.871 -0.1945  0.1630 -0.0660
12677TIP3    H159522   4.911   0.321   4.839 -1.6641 -0.4571  0.5827
12677TIP3    H259523   4.935   0.237   4.963  1.2432 -0.1297  0.3210
12678TIP3   OH259524   0.565   6.317  11.683 -0.2768  0.1496  0.1891
12678TIP3    H159525   0.630   6.341  11.617  1.6492 -0.4077  1.7777
12678TIP3    H259526   0.546   6.399  11.728 -0.7346  0.3212 -0.3031
12679TIP3   OH259527   0.210   0.050  14.270 -0.7610  0.5224  0.3351
12679TIP3    H159528   0.129   0.101  14.275 -0.4536  1.2035 -1.2000
12679TIP3    H259529   0.280   0.115  14.267 -0.3150  0.0290 -0.7121
12680TIP3   OH259530   1.170   4.466   2.293  0.0023 -0.1356 -0.6122
12680TIP3    H159531   1.163   4.388   2.348 -0.5656 -0.0349 -0.5367
12680TIP3    H259532   1.163   4.539   2.354  1.6893 -0.0012 -0.5336
12681TIP3   OH259533   1.902   4.464  11.884 -0.5813  0.1542 -0.3865
12681TIP3    H159534   1.887   4.559  11.890 -3.5650 -0.2126 -0.4113
12681TIP3    H259535   1.997   4.455  11.885 -0.1842  3.1495 -0.5211
12682TIP3   OH259536   1.917   5.899  17.170  0.5885  0.2103 -0.1615
12682TIP3    H159537   2.007   5.904  17.139  0.7422  2.2652  0.5009
12682TIP3    H259538   1.902   5.981  17.216 -1.5546 -0.1954 -0.0137
12683TIP3   OH259539   5.797   3.270  10.329  0.3166 -0.5677  0.0729
12683TIP3    H159540   5.733   3.224  10.383 -1.2201 -0.1821 -1.3228
12683TIP3    H259541   5.748   3.342  10.290  1.7861  0.1406 -0.5394
12684TIP3   OH259542   0.887   3.864  15.490  0.0360 -0.2054 -0.0194
12684TIP3    H159543   0.902   3.809  15.567  0.1369 -0.0069  0.1029
12684TIP3    H259544   0.865   3.950  15.526 -0.1989 -0.1824 -0.2087
12685TIP3   OH259545   0.742   4.859  12.550 -0.6779  0.6854 -0.3938
12685TIP3    H159546   0.693   4.941  12.560 -1.5249  0.1325  0.0616
12685TIP3    H259547   0.763   4.832  12.640 -3.4094 -1.3603 -0.2460
12686TIP3   OH259548   4.707   6.513  14.456 -0.0051  0.3147  0.0674
12686TIP3    H159549   4.642   6.560  14.405 -0.6224 -0.6704 -0.0695
12686TIP3    H259550   4.690   6.539  14.547  0.5920  1.4585 -0.1274
12687TIP3   OH259551   4.732   0.437  11.805  0.4672  0.3975 -0.0947
12687TIP3    H159552   4.786   0.468  11.878  0.4069 -1.0048  0.5926
12687TIP3    H259553   4.677   0.369  11.844 -0.7821  0.7903 -1.1011
12688TIP3   OH259554   3.846   5.913   3.011 -0.2744 -0.0462 -0.0362
12688TIP3    H159555   3.844   5.989   2.953  4.0047 -0.2623 -0.7456
12688TIP3    H259556   3.847   5.950   3.099  2.7306  0.9057 -0.3805
12689TIP3   OH259557   3.139   1.325   5.712  0.5163 -0.4517  0.4812
12689TIP3    H159558   3.166   1.406   5.757 -0.2065 -0.9742  1.9384
12689TIP3    H259559   3.182   1.255   5.761 -0.5611 -1.0664  0.5918
12690TIP3   OH259560   5.957   5.184   3.988  0.3085  0.3926 -0.3622
12690TIP3    H159561   5.893   5.189   3.917 -0.5956  0.4614  0.4430
12690TIP3    H259562   5.932   5.254   4.048 -0.8563 -1.5233  1.5476
12691TIP3   OH259563   0.784   4.623  11.141  0.1355  0.5724  0.4997
12691TIP3    H159564   0.722   4.626  11.068 -0.4053 -1.2366  0.8319
12691TIP3    H259565   0.768   4.538  11.182  2.9810 -0.0634  0.4742
12692TIP3   OH259566   2.517   6.806   0.659  0.3443  0.6704  0.1632
12692TIP3    H159567   2.490   6.896   0.682 -0.4802  0.2805  0.7971
12692TIP3    H259568   2.464   6.751   0.716 -1.7895 -0.3966 -2.6157
12693TIP3   OH259569   2.812   2.645  11.505  0.1857 -0.0297 -0.7187
12693TIP3    H159570   2.841   2.558  11.533  0.0406 -0.2002 -1.0842
12693TIP3    H259571   2.886   2.680  11.457 -0.1079 -0.3635 -1.4365
12694TIP3   OH259572   1.041   4.927  13.502 -0.0959 -0.2098  0.0993
12694TIP3    H159573   1.029   4.899  13.593 -2.3956 -1.3319 -0.4782
12694TIP3    H259574   1.068   4.848  13.456 -1.5465 -0.2970 -0.6412
12695TIP3   OH259575   6.140   3.656   4.587  0.2069  0.2425 -0.9114
12695TIP3    H159576   6.201   3.723   4.618  0.5125 -0.3811 -0.1099
12695TIP3    H259577   6.056   3.701   4.579  0.2306  0.5432  0.3912
12696TIP3   OH259578   6.343   5.078   0.276  0.3885  0.2036  0.4898
12696TIP3    H159579   6.302   5.093   0.361 -0.8440 -0.9214  0.1373
12696TIP3    H259580   6.424   5.032   0.296  1.4727  2.3177  1.1915
12697TIP3   OH259581   2.130   1.953  12.931 -0.1629 -0.0567 -0.4806
12697TIP3    H159582   2.082   1.952  12.849  1.0987 -0.2650 -1.2396
12697TIP3    H259583   2.063   1.938  12.998 -1.4556  1.7028 -1.3095
12698TIP3   OH259584   1.548   3.826  13.552 -0.0380  0.4037 -0.4041
12698TIP3    H159585   1.465   3.872  13.566 -0.6312 -1.1135  1.4641
12698TIP3    H259586   1.607   3.863  13.618 -0.0008 -0.2735 -0.0507
12699TIP3   OH259587   5.870   3.670  12.888  0.4566  0.6243 -0.3303
12699TIP3    H159588   5.780   3.699  12.905  0.8418  2.2837 -0.9277
12699TIP3    H259589   5.872   3.579  12.917 -1.6265  0.3090 -1.0277
12700TIP3   OH259590   6.063   5.543  11.224 -0.0081  0.2259 -0.2141
12700TIP3    H159591   6.019   5.463  11.250  0.9362 -0.1888  0.1789
12700TIP3    H259592   6.155   5.527  11.245  0.6857  0.2326 -2.9529
12701TIP3   OH259593   4.298   1.732   5.154 -0.0248  0.1114 -0.4011
12701TIP3    H159594   4.221   1.731   5.097  1.0274 -0.9511 -1.8896
12701TIP3    H259595   4.372   1.731   5.094  1.1565 -0.3108  1.0062
12702TIP3   OH259596   5.870   2.058  13.138  0.5717  0.2172  0.5000
12702TIP3    H159597   5.900   1.994  13.073  1.9601  1.0976  0.2126
12702TIP3    H259598   5.874   2.142  13.092 -0.8368  0.5785  0.9879
12703TIP3   OH259599   1.941   6.488   1.101  0.1676 -0.0562 -0.0612
12703TIP3    H159600   2.019   6.495   1.156  0.6179 -0.6254 -0.6231
12703TIP3    H259601   1.924   6.395   1.094  0.4002 -0.0237 -1.2764
12704TIP3   OH259602   1.191   3.614   5.813  0.0845 -0.2401  0.2438
12704TIP3    H159603   1.178   3.696   5.860 -0.8190 -0.6473  0.7485
12704TIP3    H259604   1.182   3.546   5.881 -0.6899 -0.8116 -0.4059
12705TIP3   OH259605   1.284   0.868  16.391 -0.2707 -0.1611  0.0665
12705TIP3    H159606   1.252   0.956  16.370  0.9191  0.9043  2.4312
12705TIP3    H259607   1.378   0.873  16.377 -0.1981 -1.0978  0.1614
12706TIP3   OH259608   1.227   6.716   3.174  0.2624  0.1110  0.3738
12706TIP3    H159609   1.320   6.709   3.152 -0.2223 -0.9957 -1.4711
12706TIP3    H259610   1.190   6.773   3.108 -0.4283  0.3953  0.9860
12707TIP3   OH259611   4.551   0.999  12.136  0.5206 -0.0554  0.0444
12707TIP3    H159612   4.634   1.044  12.152  0.7824 -0.3391 -0.4918
12707TIP3    H259613   4.564   0.911  12.171  0.9263 -0.5249 -1.2322
12708TIP3   OH259614   2.588   3.580  13.367 -0.3421  0.4055  0.2829
12708TIP3    H159615   2.499   3.571  13.333 -1.3690 -1.0775  3.0524
12708TIP3    H259616   2.579   3.640  13.441  0.8953 -0.0490  0.8291
12709TIP3   OH259617   3.901   1.911  11.443 -0.0777  0.2680 -0.6146
12709TIP3    H159618   3.939   1.931  11.358 -0.1617  0.7486 -0.5438
12709TIP3    H259619   3.931   1.822  11.463 -0.3675  0.0045 -1.3104
12710TIP3   OH259620   2.036   0.581   5.336 -0.1382 -0.5949  0.0770
12710TIP3    H159621   2.125   0.565   5.304  0.5478  0.7304  1.2017
12710TIP3    H259622   2.006   0.496   5.368  0.8369 -0.9975 -0.0520
12711TIP3   OH259623   4.526   4.047  11.051  0.5256 -0.6862  0.0899
12711TIP3    H159624   4.508   4.123  10.996  1.4982 -0.6676 -0.2261
12711TIP3    H259625   4.571   4.083  11.127  2.4044 -1.0651 -0.7715
12712TIP3   OH259626   2.068   6.431   4.451 -0.3138 -0.3776  0.7148
12712TIP3    H159627   2.049   6.473   4.536 -2.8561 -0.4856  0.2883
12712TIP3    H259628   2.032   6.343   4.459  2.1728 -1.4894  0.5073
12713TIP3   OH259629   6.288   0.960   5.410 -0.4955  0.0021  0.6247
12713TIP3    H159630   6.341   0.991   5.484  1.7067  0.5728 -1.0956
12713TIP3    H259631   6.257   0.874   5.438  1.0066 -0.1785  1.9155
12714TIP3   OH259632   5.144   3.323   5.864  0.3139 -0.0485  0.1953
12714TIP3    H159633   5.163   3.260   5.795 -0.9643 -0.2500  0.0092
12714TIP3    H259634   5.125   3.405   5.818 -0.0281 -0.0491  0.3295
12715TIP3   OH259635   5.053   0.932  15.612  0.1679 -0.3200 -0.0708
12715TIP3    H159636   5.143   0.945  15.581  0.0434  0.9267  0.0293
12715TIP3    H259637   5.063   0.915  15.705  0.1910  3.3364  0.7591
12716TIP3   OH259638   5.458   1.328   3.766  0.3639  0.4038  0.1518
12716TIP3    H159639   5.485   1.237   3.765 -0.2260  0.2173  0.4646
12716TIP3    H259640   5.376   1.328   3.816 -0.1509  0.9581 -0.6711
12717TIP3   OH259641   5.711   5.494  13.625 -0.0304 -0.3737  0.3074
12717TIP3    H159642   5.778   5.508  13.558  1.9384  0.8122  2.3677
12717TIP3    H259643   5.647   5.563  13.610 -0.6225 -1.2562 -1.4314
12718TIP3   OH259644   1.354   5.829   2.374  0.3853  0.0939 -0.5825
12718TIP3    H159645   1.361   5.882   2.453  1.4045  0.3300 -0.8265
12718TIP3    H259646   1.279   5.866   2.327  0.2373  0.4255 -0.0981
12719TIP3   OH259647   4.584   5.682   3.774 -0.2890 -0.2028  0.0138
12719TIP3    H159648   4.503   5.647   3.738 -1.0008 -0.8634  2.1094
12719TIP3    H259649   4.648   5.611   3.763 -1.1023 -1.3371  2.0296
12720TIP3   OH259650   4.720   1.218  15.512 -0.2389 -0.8545  0.3656
12720TIP3    H159651   4.807   1.178  15.508  0.5557  0.9160 -1.2878
12720TIP3    H259652   4.674   1.182  15.437 -0.3809 -0.5756  0.3194
12721TIP3   OH259653   6.144   6.762  15.716  0.2792  0.0381 -0.4434
12721TIP3    H159654   6.097   6.824  15.772 -0.7557 -2.1586  1.2944
12721TIP3    H259655   6.236   6.776  15.737  0.2530  2.2831 -1.5716
12722TIP3   OH259656   0.224   4.628  13.441  0.0229  0.1705 -0.6577
12722TIP3    H159657   0.215   4.665  13.529  0.3575 -1.6588  0.2021
12722TIP3    H259658   0.250   4.702  13.386  2.1649  0.9361  1.2385
12723TIP3   OH259659   4.363   4.325  15.170  0.2539  0.4861 -0.2893
12723TIP3    H159660   4.363   4.251  15.109  1.6674  0.5097 -0.3408
12723TIP3    H259661   4.418   4.391  15.129  0.3158  0.9441  0.5039
12724TIP3   OH259662   1.669   4.283  16.176  0.4321 -0.4590  0.3262
12724TIP3    H159663   1.725   4.303  16.101 -0.4813  0.2988 -0.1642
12724TIP3    H259664   1.581   4.277  16.140 -0.1324  0.6773  1.4491
12725TIP3   OH259665   0.765   1.836   1.486  0.1298  0.6528 -0.1494
12725TIP3    H159666   0.788   1.891   1.411 -0.1044 -0.7972 -1.3270
12725TIP3    H259667   0.836   1.773   1.492 -0.5964 -0.1745 -0.1092
12726TIP3   OH259668   4.511   4.489  12.008  0.1625  0.2108  0.2505
12726TIP3    H159669   4.556   4.425  12.063  0.0328 -1.7457 -1.7638
12726TIP3    H259670   4.436   4.441  11.972 -0.8049  1.9731 -0.2068
12727TIP3   OH259671   2.211   0.189  14.967  0.2082  0.0263 -0.1599
12727TIP3    H159672   2.228   0.267  14.914  0.8426  0.7941  1.1168
12727TIP3    H259673   2.229   0.217  15.057 -2.0632 -0.8551  0.6407
12728TIP3   OH259674   1.488   0.181  11.167  0.7956 -0.3130  0.1791
12728TIP3    H159675   1.559   0.210  11.225  0.9687  0.3354 -0.3489
12728TIP3    H259676   1.409   0.189  11.221  1.0544 -0.5235  0.5981
12729TIP3   OH259677   6.337   3.660   4.329 -0.3914 -0.1063 -0.0328
12729TIP3    H159678   6.279   3.728   4.363  0.0939 -0.6428  2.0442
12729TIP3    H259679   6.354   3.685   4.238 -0.1142  2.6498  0.6925
12730TIP3   OH259680   6.359   5.731  11.448  0.4452  0.0400  0.1524
12730TIP3    H159681   6.383   5.761  11.535  0.5707 -1.6604  0.7323
12730TIP3    H259682   6.312   5.805  11.409  0.9445  1.0485  1.4115
12731TIP3   OH259683   1.774   1.372  12.082 -0.2929  0.3015  0.2100
12731TIP3    H159684   1.833   1.375  12.157  0.1792  0.6987 -0.1780
12731TIP3    H259685   1.700   1.427  12.108  0.1839  0.9899  0.1142
12732TIP3   OH259686   2.584   6.385   4.397  0.1645 -0.6814 -0.1524
12732TIP3    H159687   2.571   6.296   4.428  1.6581 -0.8448  0.0670
12732TIP3    H259688   2.657   6.419   4.448  1.6049 -0.3761 -2.2714
12733TIP3   OH259689   4.198   3.061  12.721  0.6650 -0.3823  0.9683
12733TIP3    H159690   4.190   3.026  12.810  2.8259 -1.7463  0.6889
12733TIP3    H259691   4.214   3.155  12.734 -0.0210 -0.3775  1.9526
12734TIP3   OH259692   2.433   5.550   3.324 -0.8399 -0.5097  0.1031
12734TIP3    H159693   2.408   5.640   3.346  1.2731 -0.1030  1.0752
12734TIP3    H259694   2.390   5.496   3.391 -1.3980 -0.1561  0.0428
12735TIP3   OH259695   6.074   2.063  15.592  0.5440 -0.3936  0.4372
12735TIP3    H159696   6.152   2.095  15.546 -0.1837  0.6804 -0.1130
12735TIP3    H259697   6.018   2.028  15.523  0.1232 -0.2398  0.6944
12736TIP3   OH259698   5.673   0.602  11.911  0.1910  0.1700 -0.1802
12736TIP3    H159699   5.754   0.580  11.958 -1.1696 -2.0839  1.3022
12736TIP3    H259700   5.626   0.660  11.971 -0.1463 -0.1408 -0.1406
12737TIP3   OH259701   4.368   0.816  11.811 -0.6420  0.1075  0.2865
12737TIP3    H159702   4.428   0.823  11.736 -2.0643  1.2536 -0.8032
12737TIP3    H259703   4.398   0.884  11.872 -1.1537  1.0779 -0.5149
12738TIP3   OH259704   4.550   6.543  14.714  0.0277  0.1897  0.0759
12738TIP3    H159705   4.560   6.612  14.780 -0.0218 -0.3151  0.6254
12738TIP3    H259706   4.560   6.462  14.764 -0.1012 -0.2014 -0.5320
12739TIP3   OH259707   0.360   2.626   3.462 -0.3876  0.3149  0.3104
12739TIP3    H159708   0.416   2.619   3.539  0.5840 -1.8180 -0.5073
12739TIP3    H259709   0.413   2.593   3.390 -2.2648 -0.6523 -0.7308
12740TIP3   OH259710   3.268   3.950  15.578 -0.3551 -0.1678  0.0555
12740TIP3    H159711   3.223   3.956  15.494 -2.6422 -1.7801  1.0646
12740TIP3    H259712   3.213   3.999  15.639 -0.1411 -1.1806  1.1055
12741TIP3   OH259713   6.515   3.453  12.474  0.0709  0.0565 -0.0125
12741TIP3    H159714   6.569   3.532  12.464  1.1558 -0.7998 -1.1138
12741TIP3    H259715   6.571   3.392  12.522 -0.1837 -0.6041 -0.5569
12742TIP3   OH259716   4.789   0.419  13.100  0.5952  0.2020 -0.0354
12742TIP3    H159717   4.727   0.491  13.097  1.2428  0.7693  0.0704
12742TIP3    H259718   4.777   0.374  13.016  1.4357  1.4989 -0.8833
12743TIP3   OH259719   5.063   3.684  13.598  0.5644  0.4495  0.0965
12743TIP3    H159720   5.148   3.641  13.607  1.1884  1.6735  0.3410
12743TIP3    H259721   5.006   3.618  13.558  1.4470 -0.6043  0.5337
12744TIP3   OH259722   2.262   1.735   2.415  0.1131  0.2061  0.0133
12744TIP3    H159723   2.210   1.687   2.479  1.5290 -0.2641  0.8435
12744TIP3    H259724   2.197   1.779   2.360 -1.1505 -0.2100  1.1182
12745TIP3   OH259725   3.046   3.444   1.691  0.2807  0.2053 -0.0050
12745TIP3    H159726   2.966   3.448   1.640 -0.4598 -0.2017  1.0913
12745TIP3    H259727   3.063   3.351   1.704  0.1738  0.3028  0.9029
12746TIP3   OH259728   0.108   1.047  13.194  0.1057 -0.2293 -0.1391
12746TIP3    H159729   0.189   1.074  13.236 -0.2334  0.4076  0.1064
12746TIP3    H259730   0.043   1.047  13.264 -0.4237  0.6737 -0.6188
12747TIP3   OH259731   1.613   1.769   3.135 -0.6541 -0.0427  0.0087
12747TIP3    H159732   1.609   1.854   3.091 -1.3870 -0.3717 -0.5771
12747TIP3    H259733   1.643   1.708   3.067 -0.6336 -0.3458  0.2844
12748TIP3   OH259734   0.774   1.658  11.317  0.3780  0.0135  0.1062
12748TIP3    H159735   0.739   1.586  11.265  1.1431 -0.6850  0.5418
12748TIP3    H259736   0.809   1.719  11.252  1.0217 -0.6911 -0.2201
12749TIP3   OH259737   0.207   2.575  14.339  0.5066 -0.0845  0.2460
12749TIP3    H159738   0.127   2.627  14.343 -0.4488 -1.4264 -0.4005
12749TIP3    H259739   0.278   2.639  14.346 -0.6091  1.0671  1.5647
12750TIP3   OH259740   6.372   6.480  16.428 -0.2795  0.2884  0.5157
12750TIP3    H159741   6.332   6.558  16.390  1.7652  0.6247 -1.1249
12750TIP3    H259742   6.465   6.501  16.434  0.4162 -2.1601 -0.4607
12751TIP3   OH259743   4.553   3.039  14.732 -0.0599 -0.1844  0.1334
12751TIP3    H159744   4.629   2.988  14.704  0.9490  1.0420  0.5562
12751TIP3    H259745   4.489   3.028  14.662  1.3546  0.5762 -1.3263
12752TIP3   OH259746   0.485   6.175   1.202 -0.5269 -0.9091  0.3517
12752TIP3    H159747   0.518   6.255   1.243 -0.0339 -0.4298 -0.9521
12752TIP3    H259748   0.406   6.202   1.155  0.0996 -0.9871 -0.7834
12753TIP3   OH259749   1.658   2.026  14.294  0.4557  0.0355  0.7414
12753TIP3    H159750   1.589   2.030  14.360  0.4760 -1.2232  0.8501
12753TIP3    H259751   1.629   1.960  14.232  1.0615  0.2671  0.2031
12754TIP3   OH259752   3.572   2.120   4.741  0.0837 -0.3987 -0.1926
12754TIP3    H159753   3.623   2.178   4.684  0.3134 -1.3412 -0.9631
12754TIP3    H259754   3.527   2.180   4.801  1.5578  0.4841  0.0652
12755TIP3   OH259755   2.318   1.822  11.960  0.0812 -0.4379  0.1254
12755TIP3    H159756   2.281   1.748  12.007  1.7779 -0.2973  1.8161
12755TIP3    H259757   2.272   1.898  11.995 -0.8411 -0.5614 -0.7652
12756TIP3   OH259758   1.195   5.775  15.169  0.0231 -0.5150 -0.0550
12756TIP3    H159759   1.124   5.791  15.232 -0.2240  1.7396 -0.8030
12756TIP3    H259760   1.205   5.859  15.122  0.3643 -1.9835 -2.8443
12757TIP3   OH259761   6.175   4.337  14.235 -0.0177 -0.9096  0.3416
12757TIP3    H159762   6.147   4.352  14.325  0.4184 -0.2435  0.3773
12757TIP3    H259763   6.268   4.361  14.234  0.5461 -2.9100  0.1984
12758TIP3   OH259764   0.506   0.930   5.279  0.2493  0.1902  0.5794
12758TIP3    H159765   0.424   0.976   5.300 -0.8330 -1.5452  0.3582
12758TIP3    H259766   0.542   0.906   5.365  0.8601  1.4570  0.6992
12759TIP3   OH259767   3.565   2.773   1.991  0.9435  0.2812  0.0945
12759TIP3    H159768   3.639   2.713   1.996 -0.3754 -1.3447  1.6409
12759TIP3    H259769   3.535   2.780   2.082  0.3547  2.4335 -0.2149
12760TIP3   OH259770   3.612   6.371   0.271 -0.3012  0.1938  0.5288
12760TIP3    H159771   3.654   6.393   0.187  1.4363  1.5074  1.6603
12760TIP3    H259772   3.568   6.452   0.297  0.5565  0.3437  1.6170
12761TIP3   OH259773   6.759   4.585  16.386  0.1362  0.1976  0.3577
12761TIP3    H159774   6.740   4.531  16.463 -0.3431 -1.6200 -0.9690
12761TIP3    H259775   6.676   4.589  16.338  0.8072 -0.0904 -0.8724
12762TIP3   OH259776   1.121   6.065  17.154 -0.0929  0.9960  0.7505
12762TIP3    H159777   1.186   6.116  17.203 -0.8542  1.4924  1.2784
12762TIP3    H259778   1.083   6.007  17.219 -0.8638  1.4099  0.6815
12763TIP3   OH259779   5.192   2.648  14.571 -0.0017  0.0628 -0.3794
12763TIP3    H159780   5.224   2.573  14.623 -0.5835  0.2979  0.3225
12763TIP3    H259781   5.272   2.693  14.543  0.4991 -2.0664 -2.7419
12764TIP3   OH259782   0.699   0.985   0.018 -0.9697 -0.5340 -0.5560
12764TIP3    H159783   0.737   1.024   0.097  0.7672  0.7785 -1.9592
12764TIP3    H259784   0.606   0.979   0.037 -0.8907  1.6179  0.8745
12765TIP3   OH259785   3.242   6.024  12.514  0.0738  0.1409 -0.0804
12765TIP3    H159786   3.239   5.934  12.547 -0.6668  0.2297  0.1219
12765TIP3    H259787   3.152   6.043  12.489  0.4739  0.3633 -1.4285
12766TIP3   OH259788   0.135   4.594  14.701 -0.4200  0.2489 -0.1206
12766TIP3    H159789   0.175   4.604  14.614  0.5078  0.9760  0.3822
12766TIP3    H259790   0.076   4.669  14.709 -0.7315  0.0214 -0.2265
12767TIP3   OH259791   4.196   4.317   5.594 -0.6064  0.1659  0.0762
12767TIP3    H159792   4.231   4.267   5.521 -1.0305 -1.0159  0.6458
12767TIP3    H259793   4.131   4.375   5.555 -1.7616 -1.3566 -0.3696
12768TIP3   OH259794   1.321   1.353   3.880  0.3139  0.2123 -0.1191
12768TIP3    H159795   1.275   1.436   3.872  2.0263  1.3339  1.1290
12768TIP3    H259796   1.358   1.337   3.794 -0.4863  0.4458 -0.5149
12769TIP3   OH259797   6.646   5.749   1.548 -0.6043  0.1191  0.1981
12769TIP3    H159798   6.629   5.687   1.619 -0.5068 -1.8461 -1.3927
12769TIP3    H259799   6.638   5.835   1.588  0.8816 -0.9081  2.8947
12770TIP3   OH259800   5.624   1.999  16.032 -0.2272  0.4819  0.4256
12770TIP3    H159801   5.677   2.053  15.973  0.8430  0.3616  1.2489
12770TIP3    H259802   5.554   2.058  16.061 -2.1611 -0.0922 -2.6642
12771TIP3   OH259803   6.363   0.636   2.118  0.1171 -0.0099  0.2973
12771TIP3    H159804   6.299   0.703   2.138 -0.2969 -0.6038  1.0254
12771TIP3    H259805   6.448   0.679   2.130 -0.1416  0.3365  0.9164
12772TIP3   OH259806   5.368   0.364  17.145 -0.0816 -0.3789  0.0864
12772TIP3    H159807   5.282   0.329  17.123 -0.9599  0.7439  1.5534
12772TIP3    H259808   5.394   0.415  17.068  0.0104 -1.9881 -0.9880
12773TIP3   OH259809   2.151   5.537   4.748 -0.1802 -0.0469  0.0771
12773TIP3    H159810   2.093   5.532   4.672 -0.0896  0.6207 -0.0404
12773TIP3    H259811   2.095   5.519   4.823 -0.3687 -0.2220 -0.1049
12774TIP3   OH259812   4.705   6.323   0.067 -0.3915 -1.3940  0.0176
12774TIP3    H159813   4.790   6.309   0.026 -0.1990  0.5875 -0.3607
12774TIP3    H259814   4.642   6.317  -0.005 -0.0924  1.6394 -0.6524
12775TIP3   OH259815   4.461   6.666   0.604 -0.1186  0.1321  0.0865
12775TIP3    H159816   4.385   6.684   0.660 -0.4598 -0.5696 -0.1402
12775TIP3    H259817   4.464   6.571   0.598  1.1498  0.1225  0.5857
12776TIP3   OH259818   3.989   2.991  16.233 -0.6674  0.2033  0.1301
12776TIP3    H159819   4.015   3.014  16.144  1.4145  1.6113  1.0280
12776TIP3    H259820   3.925   3.058  16.257 -2.8465 -1.3660 -0.9364
12777TIP3   OH259821   2.744   5.619   1.921  0.3242  0.6603 -0.1651
12777TIP3    H159822   2.664   5.610   1.869  1.4072 -0.6158 -1.6911
12777TIP3    H259823   2.815   5.624   1.857  1.6662 -0.4025  1.1581
12778TIP3   OH259824   3.062   4.812   3.886 -0.2916 -0.1708  0.2002
12778TIP3    H159825   3.015   4.730   3.902  2.1763 -1.6604  0.3868
12778TIP3    H259826   3.111   4.795   3.805  1.5565  0.4465  1.1438
12779TIP3   OH259827   1.306   2.177  13.743  0.4091 -0.3606  0.2451
12779TIP3    H159828   1.260   2.253  13.707  0.4179 -0.0629  0.8437
12779TIP3    H259829   1.284   2.179  13.836 -0.2805 -1.5802  0.1255
12780TIP3   OH259830   0.031   2.554   2.793  0.1745 -0.4830 -0.3910
12780TIP3    H159831  -0.015   2.484   2.747  0.5407 -1.4405  0.6702
12780TIP3    H259832  -0.029   2.629   2.788 -1.2986 -1.5494  0.5048
12781TIP3   OH259833   0.483   0.745   1.769 -0.2199 -0.6039 -0.5280
12781TIP3    H159834   0.567   0.765   1.809 -0.3108 -0.0732 -0.5868
12781TIP3    H259835   0.502   0.730   1.677 -0.2452 -0.0398 -0.6278
12782TIP3   OH259836   0.105   5.975  14.371 -0.1059 -0.1198  0.4539
12782TIP3    H159837   0.047   5.920  14.318 -0.1709  0.4245 -0.0430
12782TIP3    H259838   0.118   5.925  14.451 -2.4267  0.3251  1.2052
12783TIP3   OH259839   4.903   2.646  15.744 -0.6361 -0.1316 -0.2279
12783TIP3    H159840   4.832   2.693  15.700  1.2452 -0.2279 -3.7300
12783TIP3    H259841   4.943   2.711  15.802 -2.7058  0.2502  0.8871
12784TIP3   OH259842   4.962   2.121   1.036 -0.0611  0.0269  0.3635
12784TIP3    H159843   5.049   2.136   1.000 -0.3957  2.3238  0.3416
12784TIP3    H259844   4.909   2.093   0.961 -0.0427  1.7613 -0.3362
12785TIP3   OH259845   2.157   4.847   4.505  0.2610  0.1181  0.4938
12785TIP3    H159846   2.201   4.864   4.421 -0.4310  1.4870  0.3812
12785TIP3    H259847   2.175   4.925   4.558  1.3618 -1.0508  1.9449
12786TIP3   OH259848   2.332   1.351   3.112 -0.0506  0.2810 -0.1118
12786TIP3    H159849   2.402   1.328   3.173 -0.7504  0.1394  0.6465
12786TIP3    H259850   2.345   1.444   3.094 -0.8446  0.7513  1.5949
12787TIP3   OH259851   0.658   5.092  16.496  0.5433 -0.4958 -0.0453
12787TIP3    H159852   0.719   5.036  16.449 -0.9744 -0.7856 -1.8175
12787TIP3    H259853   0.580   5.038  16.508 -0.4354  0.7485 -0.5054
12788TIP3   OH259854   0.564   0.496   6.493 -0.0593 -0.8891 -0.8811
12788TIP3    H159855   0.542   0.571   6.437 -0.4713 -1.4519 -1.4753
12788TIP3    H259856   0.495   0.496   6.560  0.7279  0.1056 -0.0257
12789TIP3   OH259857   4.910   1.655  11.443  0.0220  0.0129  0.1094
12789TIP3    H159858   4.967   1.597  11.392 -1.2171 -1.1194 -0.0540
12789TIP3    H259859   4.921   1.624  11.533  0.7361  0.7372  0.2794
12790TIP3   OH259860   0.689   3.976   0.982  0.1894  0.2932 -0.1368
12790TIP3    H159861   0.668   4.065   0.951 -0.1078  0.2330 -0.1132
12790TIP3    H259862   0.672   3.921   0.906  1.8160  0.4204 -0.6257
12791TIP3   OH259863   3.806   0.661  13.871  0.2921 -0.0006 -0.6008
12791TIP3    H159864   3.889   0.623  13.899  0.8158 -0.5999 -2.7966
12791TIP3    H259865   3.748   0.586  13.860 -0.5542  0.4035  0.7838
12792TIP3   OH259866   5.601   2.340  12.500  0.5891  0.1881 -0.6530
12792TIP3    H159867   5.687   2.331  12.459  0.4741 -2.2546 -0.5171
12792TIP3    H259868   5.555   2.259  12.477 -1.3637  1.0474  0.0090
12793TIP3   OH259869   3.976   2.727  12.040 -0.3222  0.3009 -0.5908
12793TIP3    H159870   3.949   2.815  12.067  0.2402  0.3991 -0.3506
12793TIP3    H259871   4.064   2.716  12.076 -0.3290 -0.3037 -0.7481
12794TIP3   OH259872   3.366   1.188   3.949  0.2662 -0.4370  0.5298
12794TIP3    H159873   3.422   1.127   3.902  1.6229  0.9577  0.2344
12794TIP3    H259874   3.278   1.152   3.941  0.6799 -1.0699 -1.6944
12795TIP3   OH259875   2.198   0.843  16.327 -0.2911 -0.5253 -0.8145
12795TIP3    H159876   2.261   0.913  16.347 -0.0413 -0.8415 -0.4910
12795TIP3    H259877   2.154   0.873  16.248 -1.0091  0.5614 -0.0425
12796TIP3   OH259878   0.488   2.497  15.255  0.0208 -0.1101 -0.1709
12796TIP3    H159879   0.395   2.478  15.241  0.3118 -1.9928  0.1400
12796TIP3    H259880   0.531   2.466  15.176  0.4414  0.3686 -0.1358
12797TIP3   OH259881   1.635   6.396   2.792  0.3486 -0.0059  0.4865
12797TIP3    H159882   1.624   6.323   2.853  0.5605 -1.7306 -1.4231
12797TIP3    H259883   1.668   6.355   2.711 -0.5490  2.0478 -1.0167
12798TIP3   OH259884   4.394   2.678  14.070  0.2504 -0.2459 -0.0209
12798TIP3    H159885   4.375   2.599  14.018  0.0979  0.5322 -1.1898
12798TIP3    H259886   4.308   2.710  14.097  0.3727 -1.9570  2.8680
12799TIP3   OH259887   6.789   0.300  12.365  0.4705  0.2873 -0.4251
12799TIP3    H159888   6.698   0.308  12.338  0.7016  0.7417 -1.0981
12799TIP3    H259889   6.826   0.236  12.304  0.5009 -0.2282  0.1229
12800TIP3   OH259890   0.184   0.396  12.293  0.0631  0.0006 -0.4760
12800TIP3    H159891   0.231   0.477  12.313 -0.5511 -0.3069  2.8450
12800TIP3    H259892   0.092   0.417  12.309 -0.0933 -1.3211  0.5744
12801TIP3   OH259893   0.298   2.618  14.698  0.1544 -0.0035  0.7948
12801TIP3    H159894   0.390   2.613  14.726 -0.0634  0.9833  1.7694
12801TIP3    H259895   0.297   2.685  14.630  0.1820 -0.0924  0.7080
12802TIP3   OH259896   1.375   6.099   4.663 -0.1699 -0.0603 -0.3163
12802TIP3    H159897   1.420   6.178   4.693 -0.5023  0.9611 -2.2842
12802TIP3    H259898   1.289   6.103   4.706  0.6942 -0.7180  1.5426
12803TIP3   OH259899   4.536   4.077   4.691  0.7887  0.1150  0.3011
12803TIP3    H159900   4.500   4.050   4.775 -0.4660 -1.6610 -0.7445
12803TIP3    H259901   4.519   4.171   4.687  0.8743  0.2349  1.9991
12804TIP3   OH259902   6.436   5.615  14.974  0.0045  0.3406  0.6673
12804TIP3    H159903   6.494   5.549  15.012 -1.0421  0.4022  2.4954
12804TIP3    H259904   6.395   5.657  15.050 -2.7012  0.0628 -0.5305
12805TIP3   OH259905   0.425   5.774   3.067 -0.3387  0.7069  0.0897
12805TIP3    H159906   0.454   5.781   3.158  2.5949  2.8920 -0.8509
12805TIP3    H259907   0.383   5.858   3.049 -1.8992 -0.1330 -0.3198
12806TIP3   OH259908   0.044   5.766   1.404  0.0982 -0.5038  0.4988
12806TIP3    H159909   0.018   5.757   1.495 -0.5412  0.2949  0.4040
12806TIP3    H259910   0.024   5.681   1.364 -2.1405 -0.0455  0.5021
12807TIP3   OH259911   3.751   5.654  12.413  0.1434  0.0253 -0.2194
12807TIP3    H159912   3.687   5.704  12.363  0.9749 -0.2006 -1.5680
12807TIP3    H259913   3.769   5.708  12.490 -0.1104  1.0919 -0.8904
12808TIP3   OH259914   1.738   4.408  15.943  0.1376 -0.1176 -0.3048
12808TIP3    H159915   1.718   4.502  15.939  3.1786  0.6629  0.4075
12808TIP3    H259916   1.670   4.367  15.890 -1.4737  2.4421 -0.3864
12809TIP3   OH259917   1.842   0.175   0.125  0.5858  0.0238 -0.7887
12809TIP3    H159918   1.795   0.192   0.207  1.7353 -0.5841  0.0327
12809TIP3    H259919   1.793   0.223   0.059 -1.0306 -0.3878  0.0552
12810TIP3   OH259920   1.773   2.295  13.167 -0.3385 -0.3106  0.6305
12810TIP3    H159921   1.741   2.355  13.099 -1.0286 -0.4676  0.8052
12810TIP3    H259922   1.804   2.353  13.237  0.0542 -0.1519  0.3240
12811TIP3   OH259923   4.828   2.145   1.563 -0.2484 -0.0318 -0.2067
12811TIP3    H159924   4.788   2.063   1.534 -0.8013  0.4323 -0.7814
12811TIP3    H259925   4.770   2.213   1.531  0.1199  0.5885  0.4047
12812TIP3   OH259926   4.840   2.546  13.740 -0.0014 -0.1451  0.3739
12812TIP3    H159927   4.747   2.532  13.721  0.5470 -1.0706 -1.9915
12812TIP3    H259928   4.880   2.459  13.728  0.9743 -0.1504  3.0293
12813TIP3   OH259929   1.575   0.783   0.722  0.1308  0.2329  0.4028
12813TIP3    H159930   1.561   0.778   0.627  1.4409 -1.5699  0.2443
12813TIP3    H259931   1.490   0.758   0.759 -0.0164 -0.4080 -0.3250
12814TIP3   OH259932   6.153   0.700  15.456 -0.1648  0.2592 -0.0087
12814TIP3    H159933   6.199   0.617  15.461  0.9517  0.9371  3.1058
12814TIP3    H259934   6.102   0.704  15.537 -3.0770  1.1015 -1.7196
12815TIP3   OH259935   6.672   3.010  14.601 -0.4203 -0.2385  0.1532
12815TIP3    H159936   6.703   2.988  14.688  1.7123  1.3446 -0.1352
12815TIP3    H259937   6.587   2.966  14.594  0.0779 -1.7135  2.3937
12816TIP3   OH259938   5.144   2.793  11.000 -0.1200 -0.0387  0.4408
12816TIP3    H159939   5.231   2.759  11.018 -0.1787 -0.2854  0.2595
12816TIP3    H259940   5.139   2.874  11.051 -0.3153 -0.7815  1.6421
12817TIP3   OH259941   5.159   3.488  11.448 -0.1291 -0.0193  0.5105
12817TIP3    H159942   5.183   3.568  11.402 -0.5872 -0.8696 -1.2886
12817TIP3    H259943   5.079   3.512  11.496  0.1864  0.8088  0.6395
12818TIP3   OH259944   2.108   4.752   5.515 -0.1147  1.2967 -0.0487
12818TIP3    H159945   2.119   4.751   5.611  0.6785 -0.1524 -0.1189
12818TIP3    H259946   2.147   4.834   5.487  1.0620  1.0464  0.7528
12819TIP3   OH259947   5.352   5.329  15.337  0.5078 -0.1210  0.0264
12819TIP3    H159948   5.272   5.277  15.333 -0.0041  0.5633  0.9699
12819TIP3    H259949   5.364   5.348  15.430  1.3182  0.4744 -0.1816
12820TIP3   OH259950   6.329   1.697   5.770 -0.1547  0.9331 -0.2792
12820TIP3    H159951   6.366   1.774   5.815 -1.0793  0.5030  1.3086
12820TIP3    H259952   6.251   1.730   5.726 -1.6585  0.6315  1.9885
12821TIP3   OH259953   5.984   3.350   1.639  0.4877 -0.4354  0.1577
12821TIP3    H159954   6.001   3.256   1.647 -1.9262 -0.9516 -0.0964
12821TIP3    H259955   5.961   3.362   1.546  2.1587  0.6903 -0.1445
12822TIP3   OH259956   0.863   3.752  13.521  0.1297 -0.5309 -0.3974
12822TIP3    H159957   0.907   3.784  13.600  2.0092 -0.9292 -1.2409
12822TIP3    H259958   0.834   3.663  13.545 -1.7172  0.3029  0.6819
12823TIP3   OH259959   4.621   3.134  15.018 -0.5393  0.2067 -0.6001
12823TIP3    H159960   4.697   3.191  15.001  1.1871 -1.8906 -0.2924
12823TIP3    H259961   4.612   3.082  14.939  0.7207 -2.0914  0.6722
12824TIP3   OH259962   2.759   6.449   4.889 -0.2763 -0.0958 -0.3906
12824TIP3    H159963   2.812   6.507   4.943 -1.3534  0.2560  0.3016
12824TIP3    H259964   2.682   6.500   4.866 -0.6461 -0.8270 -0.8262
12825TIP3   OH259965   4.829   5.837   4.185  0.1026 -0.7169 -0.1906
12825TIP3    H159966   4.877   5.761   4.217  1.3481  0.7193  1.5591
12825TIP3    H259967   4.748   5.837   4.234  0.5844 -0.3359  0.6242
12826TIP3   OH259968   3.663   1.627  17.095  0.0330  0.3479 -0.3815
12826TIP3    H159969   3.726   1.698  17.109 -0.0531  0.1609  1.1204
12826TIP3    H259970   3.578   1.671  17.089  0.2180  0.5542 -1.8873
12827TIP3   OH259971   2.320   1.137  12.552 -0.1656  0.3309  0.1248
12827TIP3    H159972   2.227   1.117  12.543 -0.1135 -0.4893  1.1243
12827TIP3    H259973   2.361   1.051  12.565  0.6334  0.7533  0.4430
12828TIP3   OH259974   0.658   6.229   0.877 -0.2321 -0.1780  0.2558
12828TIP3    H159975   0.584   6.171   0.857  0.0034 -1.0731  1.8147
12828TIP3    H259976   0.624   6.317   0.860 -0.6582 -0.7146 -1.9796
12829TIP3   OH259977   5.956   4.490   0.418  0.3269 -0.0938  0.0799
12829TIP3    H159978   5.870   4.453   0.437  0.3166 -1.3320 -2.1007
12829TIP3    H259979   6.014   4.453   0.484 -0.6776  0.2289  1.1619
12830TIP3   OH259980   0.268   4.659   3.459  0.5630  0.3295  0.0237
12830TIP3    H159981   0.240   4.750   3.453 -1.0383 -0.1963 -0.9301
12830TIP3    H259982   0.216   4.623   3.531 -0.6610 -0.4346 -1.2047
12831TIP3   OH259983   6.538   5.605   3.464 -0.5750 -0.4486 -0.7800
12831TIP3    H159984   6.528   5.637   3.554 -1.7031 -0.4613 -0.8769
12831TIP3    H259985   6.615   5.650   3.431  0.7283 -1.5260  0.6414
12832TIP3   OH259986   2.165   6.131   1.426 -0.0052  0.1203  0.2874
12832TIP3    H159987   2.171   6.164   1.516 -0.4583 -0.4426  0.5257
12832TIP3    H259988   2.162   6.210   1.372 -0.8622  0.4725  0.8417
12833TIP3   OH259989   3.289   0.991  16.208 -0.2627  0.5869 -0.5225
12833TIP3    H159990   3.312   0.902  16.235 -3.3014 -0.6448 -1.5772
12833TIP3    H259991   3.318   0.997  16.117 -1.5479  0.0112 -0.9917
12834TIP3   OH259992   1.564   3.596   0.805 -0.0055 -0.5663  0.4304
12834TIP3    H159993   1.572   3.661   0.875 -2.2452  0.7192 -0.3998
12834TIP3    H259994   1.475   3.609   0.771  0.5178 -2.1229 -1.7010
12835TIP3   OH259995   5.813   5.045   1.901  0.1105  0.2544 -0.1087
12835TIP3    H159996   5.788   4.959   1.936 -1.0566  0.3076 -0.7565
12835TIP3    H259997   5.766   5.108   1.955  0.9497  0.5074  0.3500
12836TIP3   OH259998   0.540   1.887   3.762 -0.2056 -0.3990 -0.1408
12836TIP3    H159999   0.489   1.948   3.816 -0.4517 -1.2910  0.6639
12836TIP3    H260000   0.578   1.942   3.693 -1.3715  0.4642 -0.1241
12837TIP3   OH260001   6.011   3.638  10.680 -0.9695 -0.6014  0.2790
12837TIP3    H160002   5.941   3.572  10.686  0.0608 -1.7721 -0.0241
12837TIP3    H260003   6.081   3.593  10.632 -0.8743  1.2942 -1.4959
12838TIP3   OH260004   3.979   0.517  13.616 -0.4419  0.0837 -0.1191
12838TIP3    H160005   3.889   0.528  13.645 -0.5108  0.1428 -0.3468
12838TIP3    H260006   3.971   0.469  13.533 -0.3475  1.1596 -0.7666
12839TIP3   OH260007   1.166   2.912   1.158  0.0306  0.4267  0.3425
12839TIP3    H160008   1.190   2.991   1.206 -1.2538  1.0149  0.0656
12839TIP3    H260009   1.103   2.942   1.092 -2.2488 -1.1056  1.6760
12840TIP3   OH260010   5.368   6.721  16.635  0.6009  0.5277  0.4455
12840TIP3    H160011   5.453   6.732  16.676  0.8383  0.6383 -0.0699
12840TIP3    H260012   5.350   6.627  16.641  0.2261  0.6496  1.5873
12841TIP3   OH260013   4.638   5.005   3.001 -0.1454 -0.1530 -0.3166
12841TIP3    H160014   4.713   5.065   2.991 -1.2753  1.4654  0.4787
12841TIP3    H260015   4.564   5.054   2.966 -0.9138 -1.5909 -0.7591
12842TIP3   OH260016   5.073   4.538   1.292  0.3145  0.3066  0.2067
12842TIP3    H160017   5.027   4.621   1.278 -0.1226  0.5632  2.7603
12842TIP3    H260018   5.013   4.487   1.346  0.0054 -2.2678 -2.3305
12843TIP3   OH260019   3.348   4.997  12.438  0.3264 -0.4671  0.3151
12843TIP3    H160020   3.271   5.053  12.451  0.8319  0.7318 -1.3932
12843TIP3    H260021   3.402   5.012  12.515 -0.6546 -0.4944  1.0279
12844TIP3   OH260022   2.799   0.529   2.192 -0.2398  0.2169 -0.0418
12844TIP3    H160023   2.775   0.554   2.103 -0.0682 -1.2205 -0.5192
12844TIP3    H260024   2.744   0.453   2.211  1.4053 -0.9768  0.1545
12845TIP3   OH260025   3.189   0.810   5.085 -0.2032 -0.0669  1.0467
12845TIP3    H160026   3.231   0.746   5.142 -0.4137 -0.5034  0.7210
12845TIP3    H260027   3.136   0.863   5.143 -0.0899 -0.2431  1.3121
12846TIP3   OH260028   6.161   6.017  16.945 -0.0494 -0.2486 -0.1076
12846TIP3    H160029   6.205   5.967  17.014  1.3642 -1.9268 -2.1382
12846TIP3    H260030   6.073   5.979  16.941  0.6705 -1.9147 -0.8905
12847TIP3   OH260031   5.992   3.873   1.963 -0.7800 -0.5614  0.1631
12847TIP3    H160032   5.979   3.918   2.046  1.8290 -1.9633  1.4447
12847TIP3    H260033   6.032   3.789   1.987 -2.6319 -2.3009 -2.3339
12848TIP3   OH260034   1.983   3.348   5.619 -0.1035 -0.7998  0.3807
12848TIP3    H160035   1.895   3.335   5.583 -0.0992 -0.5734  0.2873
12848TIP3    H260036   1.981   3.303   5.703 -0.0972 -1.3857  0.0742
12849TIP3   OH260037   4.629   3.866  14.663 -0.2938  0.6941  0.8840
12849TIP3    H160038   4.719   3.849  14.634 -0.6504 -1.4970  0.8664
12849TIP3    H260039   4.625   3.827  14.751 -2.0533 -2.3290 -0.3864
12850TIP3   OH260040   0.156   4.748   5.723 -0.2547 -0.0659 -0.1057
12850TIP3    H160041   0.112   4.764   5.639  0.0228  1.2082 -0.0388
12850TIP3    H260042   0.186   4.835   5.751 -0.4223 -0.4503  1.3627
12851TIP3   OH260043   6.309   2.769  16.456  0.2666 -0.3581 -0.1418
12851TIP3    H160044   6.391   2.814  16.435  1.0416 -0.8506  1.6696
12851TIP3    H260045   6.245   2.840  16.467  0.8467  0.1447  0.0815
12852TIP3   OH260046   4.631   1.662   3.864  0.3031 -0.9942 -1.3109
12852TIP3    H160047   4.644   1.569   3.846 -0.3908 -1.3443 -0.1078
12852TIP3    H260048   4.643   1.670   3.958 -1.3647 -0.1755 -1.1390
12853TIP3   OH260049   5.529   5.854  12.888 -0.0771  0.2395 -0.0025
12853TIP3    H160050   5.507   5.903  12.967  0.5682 -0.2724  0.5110
12853TIP3    H260051   5.625   5.854  12.885 -0.0920  1.1088 -1.3427
12854TIP3   OH260052   6.410   6.845  15.365 -0.0477 -0.0426  0.0658
12854TIP3    H160053   6.319   6.835  15.390 -0.5992 -0.6289 -2.0099
12854TIP3    H260054   6.444   6.912  15.424 -2.1564  1.1061  0.0677
12855TIP3   OH260055   3.493   5.427   2.968  0.0715 -0.2544  0.0605
12855TIP3    H160056   3.528   5.483   2.899 -1.4289 -1.0180 -1.3587
12855TIP3    H260057   3.554   5.353   2.972  0.0190 -0.3356 -0.6193
12856TIP3   OH260058   3.000   0.914   5.281 -0.5723  0.6155  0.0487
12856TIP3    H160059   3.016   1.006   5.302  1.2263 -0.0412  1.7913
12856TIP3    H260060   2.960   0.878   5.360 -1.0959 -0.1766 -0.5565
12857TIP3   OH260061   2.824   4.771  10.998 -0.2498  0.1718  0.2282
12857TIP3    H160062   2.808   4.680  10.972 -0.0255 -0.6119  2.6170
12857TIP3    H260063   2.737   4.805  11.020 -0.2151  0.2484  0.2437
12858TIP3   OH260064   6.432   1.400  16.075  0.4417 -0.3758 -0.7089
12858TIP3    H160065   6.495   1.457  16.031  1.3665 -2.1490 -1.7844
12858TIP3    H260066   6.455   1.311  16.047 -0.8677 -1.3272  0.9873
12859TIP3   OH260067   2.568   2.345  16.255  0.0248  0.1363  0.4309
12859TIP3    H160068   2.639   2.374  16.312 -0.3864  0.2359  0.9004
12859TIP3    H260069   2.603   2.268  16.210  1.0330  1.1570 -0.6279
12860TIP3   OH260070   2.478   4.908   0.994  0.2287 -0.1157  0.3154
12860TIP3    H160071   2.519   4.822   0.984  0.3603  0.2396 -3.4550
12860TIP3    H260072   2.549   4.971   0.980 -0.0005  0.6949  2.3925
12861TIP3   OH260073   5.669   2.910   3.218  0.0457  0.5461  0.6462
12861TIP3    H160074   5.717   2.986   3.185 -0.4090  0.5491 -0.0241
12861TIP3    H260075   5.734   2.839   3.219 -0.0004  0.4720 -0.5614
12862TIP3   OH260076   0.969   1.552  15.224  0.2268  0.5173 -0.4778
12862TIP3    H160077   0.896   1.565  15.285 -0.0145  0.3931 -0.7361
12862TIP3    H260078   0.949   1.611  15.151  1.4259  2.0143  0.3484
12863TIP3   OH260079   0.070   1.599   4.125 -0.0447 -0.4434  0.0054
12863TIP3    H160080   0.118   1.602   4.043  1.9400 -0.7906  1.0979
12863TIP3    H260081   0.075   1.688   4.159 -1.8910  0.0031 -0.7448
12864TIP3   OH260082   1.823   4.509  17.176  0.4251 -0.0219  0.2799
12864TIP3    H160083   1.846   4.480  17.088  0.1544  1.4382 -0.3012
12864TIP3    H260084   1.883   4.580  17.195  2.1531 -1.8716  2.3299
12865TIP3   OH260085   6.707   3.176   1.377 -0.0585 -0.3618 -0.5940
12865TIP3    H160086   6.797   3.189   1.407 -0.2241 -1.1140  0.2791
12865TIP3    H260087   6.704   3.218   1.292  0.4663  1.7811  0.3704
12866TIP3   OH260088   0.347   1.557  15.686 -0.1927 -0.1229  0.3126
12866TIP3    H160089   0.320   1.522  15.770  0.1121 -2.1704 -0.3752
12866TIP3    H260090   0.408   1.491  15.651  0.7152  1.2977 -0.9306
12867TIP3   OH260091   4.862   0.644   1.041 -0.0418  0.5844 -0.0679
12867TIP3    H160092   4.861   0.707   0.968 -0.7663 -0.1983 -0.7529
12867TIP3    H260093   4.789   0.585   1.022  1.0186 -0.8662  0.2051
12868TIP3   OH260094   4.890   6.657   3.551 -0.5032 -0.5015 -0.0951
12868TIP3    H160095   4.917   6.740   3.590 -2.8294  0.1440  0.3244
12868TIP3    H260096   4.913   6.665   3.459  0.4820  0.0478  0.1770
12869TIP3   OH260097   6.569   6.378  13.376  0.1081  0.1895  0.0385
12869TIP3    H160098   6.646   6.363  13.432  1.0527  0.0024 -1.2641
12869TIP3    H260099   6.580   6.467  13.343  1.9476 -1.0869 -3.2629
12870TIP3   OH260100   2.898   3.086  17.032  0.1006 -0.3701 -0.6135
12870TIP3    H160101   2.832   3.143  17.071 -0.9452 -0.9779 -1.4603
12870TIP3    H260102   2.943   3.142  16.969  1.7695  0.6073  1.3282
12871TIP3   OH260103   0.591   2.969  13.277 -0.0432  0.2402 -0.6394
12871TIP3    H160104   0.539   3.027  13.332  0.4628  1.7701 -1.6931
12871TIP3    H260105   0.540   2.889  13.271 -1.1033  0.8120  0.3083
12872TIP3   OH260106   2.611   4.302  14.027  0.2596  0.7136 -0.3654
12872TIP3    H160107   2.578   4.339  13.945 -1.1710  0.6394  0.1378
12872TIP3    H260108   2.665   4.370  14.065  1.4545  0.5321 -1.6366
12873TIP3   OH260109   4.717   3.770   0.564 -0.0364 -0.1570  0.7188
12873TIP3    H160110   4.768   3.839   0.520 -0.7658 -1.3485 -2.2188
12873TIP3    H260111   4.629   3.777   0.526 -0.9998 -0.7436  2.7009
12874TIP3   OH260112   1.788   5.251  12.068 -0.4980 -0.7299  0.1148
12874TIP3    H160113   1.695   5.250  12.042 -0.2851 -1.6324 -0.6484
12874TIP3    H260114   1.817   5.340  12.048 -1.5574  0.0064  1.7035
12875TIP3   OH260115   1.241   2.475  15.549  0.4088  0.0047 -0.5233
12875TIP3    H160116   1.197   2.515  15.623 -1.6159 -1.5861 -0.7794
12875TIP3    H260117   1.189   2.398  15.529  1.8626 -0.5360 -2.5537
12876TIP3   OH260118   3.335   6.290   5.766  0.5238 -0.2912  0.0324
12876TIP3    H160119   3.308   6.284   5.858 -0.7038  0.4039 -0.2633
12876TIP3    H260120   3.285   6.363   5.731  1.3410 -0.2436 -1.0785
12877TIP3   OH260121   4.399   4.488  14.859  0.0878 -0.0570 -0.1934
12877TIP3    H160122   4.312   4.519  14.882  0.8600  1.6151  0.6588
12877TIP3    H260123   4.449   4.496  14.940  1.9656  2.5124 -1.4804
12878TIP3   OH260124   0.129   6.693  17.032 -0.3971  0.2342  0.2328
12878TIP3    H160125   0.194   6.659  16.971 -1.7187  0.3765 -1.2982
12878TIP3    H260126   0.050   6.704  16.980 -1.2961  1.3179  1.7451
12879TIP3   OH260127   6.335   5.763  13.671  0.0130  0.9294 -0.5823
12879TIP3    H160128   6.312   5.819  13.745 -2.9136 -0.2621 -0.4678
12879TIP3    H260129   6.261   5.771  13.611  0.5319 -1.0819 -1.5695
12880TIP3   OH260130   0.226   5.018   5.779 -0.2752 -0.7984 -0.4884
12880TIP3    H160131   0.148   5.059   5.817 -0.4470  0.5032 -2.1148
12880TIP3    H260132   0.299   5.061   5.825 -0.4922 -1.2470  0.2900
12881TIP3   OH260133   2.272   6.146   2.579 -0.9246  0.0740  0.1828
12881TIP3    H160134   2.329   6.156   2.655 -1.0293  1.5457  0.1004
12881TIP3    H260135   2.247   6.236   2.555 -3.7761 -0.4913  0.5857
12882TIP3   OH260136   2.299   1.167  13.141 -0.0188 -0.3505  1.0357
12882TIP3    H160137   2.312   1.074  13.160  3.0510 -0.0575  0.8469
12882TIP3    H260138   2.387   1.201  13.128 -1.1382  2.3749 -0.0571
12883TIP3   OH260139   1.284   3.532   2.388 -0.2731  0.9046  0.5898
12883TIP3    H160140   1.330   3.480   2.321  0.4188  1.5993  0.5109
12883TIP3    H260141   1.224   3.470   2.428  0.5077  0.0362  0.4753
12884TIP3   OH260142   5.278   3.701   4.754 -0.2280 -0.2678 -0.0594
12884TIP3    H160143   5.229   3.783   4.765 -0.8554 -0.0981 -3.3135
12884TIP3    H260144   5.369   3.724   4.777 -0.6980  0.8132  0.8254
12885TIP3   OH260145   2.931   5.184   6.204 -0.4873 -0.6067  0.1117
12885TIP3    H160146   2.850   5.206   6.156 -0.8766 -2.6660 -0.2777
12885TIP3    H260147   2.931   5.088   6.207  1.1023 -0.5931  1.6038
12886TIP3   OH260148   2.601   4.455  14.441  0.1238 -0.5414 -0.0100
12886TIP3    H160149   2.561   4.377  14.401 -1.9562  1.4873 -2.1972
12886TIP3    H260150   2.535   4.523  14.432  2.7674  2.1620 -0.5547
12887TIP3   OH260151   3.455   4.176  14.274 -0.3672  0.1979 -0.0281
12887TIP3    H160152   3.389   4.109  14.292 -1.4276  1.3641  0.6103
12887TIP3    H260153   3.468   4.173  14.179  0.7004 -1.8679  0.1401
12888TIP3   OH260154   3.390   4.953   5.504  0.2328  0.5203  0.1848
12888TIP3    H160155   3.352   4.884   5.559 -0.3415  0.9856  0.3864
12888TIP3    H260156   3.386   5.031   5.559  0.4332  0.8144 -0.2208
12889TIP3   OH260157   4.408   5.767   0.144  0.4616  0.4698  0.2412
12889TIP3    H160158   4.345   5.714   0.194 -0.6383  2.0558  0.6098
12889TIP3    H260159   4.478   5.706   0.123 -0.6044 -1.0659  0.8977
12890TIP3   OH260160   2.163   6.594   2.478  0.1171 -0.3175 -0.4649
12890TIP3    H160161   2.149   6.659   2.548  0.5619 -2.3448  1.6224
12890TIP3    H260162   2.075   6.579   2.443 -0.1701  0.5097 -0.1432
12891TIP3   OH260163   6.184   2.848   3.146 -0.0903  0.0030  0.1547
12891TIP3    H160164   6.212   2.772   3.197  0.8494  1.6447  2.2067
12891TIP3    H260165   6.259   2.907   3.148 -1.4340  1.7566  0.1839
12892TIP3   OH260166   5.588   3.410   0.143 -0.2153  0.1586 -0.1405
12892TIP3    H160167   5.531   3.383   0.071 -0.5650  1.2240 -0.2908
12892TIP3    H260168   5.562   3.501   0.161  0.5454  0.2317  0.6702
12893TIP3   OH260169   1.113   0.007   0.134 -0.3228  0.0548  0.2472
12893TIP3    H160170   1.133   0.095   0.164  0.3521  0.0453 -0.1479
12893TIP3    H260171   1.197  -0.027   0.102 -0.6000 -0.6876  0.2942
12894TIP3   OH260172   1.561   1.554  15.509 -0.4476  0.1610  0.3278
12894TIP3    H160173   1.483   1.538  15.561 -0.0597 -1.3323  0.5060
12894TIP3    H260174   1.535   1.622  15.446 -1.8292 -0.1867  0.4984
12895TIP3   OH260175   1.541   5.888  16.458  0.5111 -0.4955  0.5469
12895TIP3    H160176   1.547   5.869  16.364 -0.0627 -0.0988  0.4235
12895TIP3    H260177   1.631   5.882  16.489  0.8323  0.2369 -0.2053
12896TIP3   OH260178   4.192   2.797  16.862  0.1214  0.0976  0.4685
12896TIP3    H160179   4.246   2.736  16.912 -1.5216 -1.8613  0.0125
12896TIP3    H260180   4.207   2.773  16.770 -0.0819  0.7899  0.2451
12897TIP3   OH260181   5.338   0.569  12.369 -0.2245 -0.3273 -0.5456
12897TIP3    H160182   5.390   0.640  12.406 -0.7816 -0.2990  0.1969
12897TIP3    H260183   5.340   0.500  12.435 -1.2304 -0.2734 -0.4346
12898TIP3   OH260184   3.245   2.379   5.428  0.4459  0.4730  0.6256
12898TIP3    H160185   3.202   2.379   5.342  3.3481 -1.9400 -0.9896
12898TIP3    H260186   3.199   2.448   5.476 -2.5336  0.7385 -2.1832
12899TIP3   OH260187   0.106   6.296   4.463  0.3253  0.2154 -0.2604
12899TIP3    H160188   0.159   6.375   4.449  0.3475  0.4665  1.0739
12899TIP3    H260189   0.062   6.312   4.547 -1.7483 -0.0606 -1.2262
12900TIP3   OH260190   0.371   1.589  15.308 -0.0772  0.8004  0.2803
12900TIP3    H160191   0.374   1.675  15.352  0.9096  0.0879  1.7014
12900TIP3    H260192   0.432   1.535  15.358  0.3717 -0.3608 -1.4325
12901TIP3   OH260193   4.506   3.701  11.541  0.8737 -0.0110  0.2936
12901TIP3    H160194   4.533   3.632  11.481  0.5114 -0.3582  0.5279
12901TIP3    H260195   4.582   3.759  11.547  1.2288 -0.4686  0.2136
12902TIP3   OH260196   2.056   5.165  15.207 -0.0323 -0.3786  0.3512
12902TIP3    H160197   2.070   5.105  15.133 -1.7686  0.1927 -0.4975
12902TIP3    H260198   2.141   5.205  15.222  0.5309 -1.0738 -0.8427
12903TIP3   OH260199   0.445   3.607  15.333  0.2419  0.6899  0.3531
12903TIP3    H160200   0.539   3.611  15.350  0.4905 -3.2124  0.7297
12903TIP3    H260201   0.437   3.615  15.238  0.8287  1.7447  0.3748
12904TIP3   OH260202   0.336   4.240  14.152  0.1382 -0.1423  0.1324
12904TIP3    H160203   0.396   4.175  14.188 -0.0496  1.1494  3.0802
12904TIP3    H260204   0.389   4.318  14.139 -0.7635  1.0358  2.8424
12905TIP3   OH260205   0.107   6.445  13.004  0.4884  0.1871 -0.2448
12905TIP3    H160206   0.187   6.481  13.041  0.5866 -0.9593  0.7180
12905TIP3    H260207   0.112   6.351  13.021 -0.1492 -0.1957 -1.9235
12906TIP3   OH260208   4.672   5.607  12.160  0.2383  0.0674 -0.0196
12906TIP3    H160209   4.659   5.577  12.070 -0.4974  0.4648 -0.0542
12906TIP3    H260210   4.756   5.653  12.158  1.3095 -1.7862 -0.0015
12907TIP3   OH260211   6.022   0.370   0.663  0.5128 -0.8819  0.1198
12907TIP3    H160212   5.963   0.438   0.695 -1.3224 -1.7995 -1.1539
12907TIP3    H260213   6.080   0.351   0.737  0.0963  0.9796  0.9741
12908TIP3   OH260214   3.348   0.616   4.110 -0.1904 -0.1059 -0.2883
12908TIP3    H160215   3.342   0.693   4.166  1.2943  0.2008 -0.5165
12908TIP3    H260216   3.404   0.555   4.159  1.0017  0.1050 -1.3346
12909TIP3   OH260217   2.105   2.836  11.512  0.2534  0.5159  0.2580
12909TIP3    H160218   2.093   2.915  11.565 -0.2036 -0.2794  1.3731
12909TIP3    H260219   2.016   2.806  11.494  0.3584  1.1869 -1.6583
12910TIP3   OH260220   2.901   1.328   5.512 -0.0655  0.6632 -0.1105
12910TIP3    H160221   2.963   1.327   5.586 -1.1467  0.0261  0.8115
12910TIP3    H260222   2.825   1.374   5.546  0.1501  2.0797 -1.4747
12911TIP3   OH260223   4.668   2.271   3.257 -0.0181 -0.1604 -1.3251
12911TIP3    H160224   4.699   2.269   3.166 -1.3814 -0.4384 -1.8064
12911TIP3    H260225   4.661   2.179   3.282 -0.0192 -0.0910 -1.0661
12912TIP3   OH260226   0.415   3.882  13.873 -0.2921  1.0539  0.6080
12912TIP3    H160227   0.375   3.836  13.947 -1.1662 -0.1647 -0.5596
12912TIP3    H260228   0.482   3.938  13.912  0.4905 -0.8659  2.1844
12913TIP3   OH260229   2.165   6.261  13.292 -0.2746 -0.7097  0.1659
12913TIP3    H160230   2.114   6.261  13.211 -1.0128 -1.1814  0.6207
12913TIP3    H260231   2.257   6.257  13.263 -0.5578 -1.7593 -0.6292
12914TIP3   OH260232   3.150   3.714  16.113 -0.3243  0.5408 -0.7661
12914TIP3    H160233   3.157   3.739  16.205  1.5833  0.8438 -0.9537
12914TIP3    H260234   3.071   3.758  16.082 -0.0196  1.9020  0.2857
12915TIP3   OH260235   0.009   5.044   3.885  0.2163  0.3162 -0.0832
12915TIP3    H160236   0.017   5.089   3.969  0.5799  0.7007 -0.3153
12915TIP3    H260237   0.017   4.951   3.906 -0.3008  0.3729  0.3767
12916TIP3   OH260238   3.549   6.808   5.223  0.0342  0.1162  0.5045
12916TIP3    H160239   3.560   6.810   5.128 -0.1933 -0.7787  0.4475
12916TIP3    H260240   3.457   6.829   5.237 -0.2686 -1.0425  0.4243
12917TIP3   OH260241   1.578   3.190  14.002  0.2848 -0.0199 -0.8308
12917TIP3    H160242   1.492   3.170  14.041  0.1873  1.9491  0.0814
12917TIP3    H260243   1.628   3.229  14.074  1.6298 -0.2696 -1.6018
12918TIP3   OH260244   3.409   3.398   1.125 -0.4556  0.3522  0.3639
12918TIP3    H160245   3.364   3.481   1.142  1.2650  1.2459  0.7859
12918TIP3    H260246   3.378   3.339   1.195 -0.4504  1.1452  1.0451
12919TIP3   OH260247   6.492   5.401   5.768  0.5507  0.4497  0.1692
12919TIP3    H160248   6.507   5.346   5.691  1.0674 -0.0429  0.6062
12919TIP3    H260249   6.437   5.348   5.825 -0.0155  0.9020  0.0495
12920TIP3   OH260250   3.379   1.481   2.063 -0.1894 -0.3784  0.0346
12920TIP3    H160251   3.410   1.567   2.090 -1.6928  0.0915  0.3684
12920TIP3    H260252   3.308   1.499   2.001 -1.2878 -1.3401  0.9555
12921TIP3   OH260253   5.304   4.891  15.924 -0.2950 -0.1077 -0.1966
12921TIP3    H160254   5.219   4.927  15.949  0.1715  1.1465 -0.3239
12921TIP3    H260255   5.298   4.882  15.829 -0.6743 -1.0893 -0.0840
12922TIP3   OH260256   6.666   4.524  17.165 -0.6097 -0.0698  0.7888
12922TIP3    H160257   6.750   4.538  17.121 -0.1510 -3.2031  0.4337
12922TIP3    H260258   6.612   4.599  17.138  1.1812  0.6027 -1.2314
12923TIP3   OH260259   2.310   4.445   4.041 -0.7640 -0.0207  0.1565
12923TIP3    H160260   2.313   4.379   4.111 -1.0581  0.8276  0.9885
12923TIP3    H260261   2.397   4.444   4.002 -0.6393 -0.5992  0.4455
12924TIP3   OH260262   6.443   1.774  16.136  0.1681 -0.1097 -0.1678
12924TIP3    H160263   6.390   1.714  16.082  0.2614  0.1862 -0.5954
12924TIP3    H260264   6.529   1.773  16.095 -0.1754  1.3466 -1.0075
12925TIP3   OH260265   2.694   6.473   5.987  0.4239  0.6563 -0.1087
12925TIP3    H160266   2.773   6.463   6.040  0.4634  0.3398 -0.2269
12925TIP3    H260267   2.653   6.553   6.021  1.6411  1.7894 -1.1652
12926TIP3   OH260268   3.944   4.031   2.396  0.1582 -0.1247 -0.3115
12926TIP3    H160269   4.000   3.996   2.326  0.6768 -0.0882  0.0835
12926TIP3    H260270   3.962   4.125   2.396 -0.4935  0.0046 -0.7082
12927TIP3   OH260271   0.598   0.383   6.104 -0.0280 -0.0137  0.4686
12927TIP3    H160272   0.641   0.463   6.075  0.8672 -1.0938 -1.3875
12927TIP3    H260273   0.541   0.359   6.031 -2.2559  0.2544  2.0344
12928TIP3   OH260274   0.577   2.301   0.881  0.0519 -0.2633  0.2944
12928TIP3    H160275   0.518   2.256   0.941  0.1721  1.4182  1.7758
12928TIP3    H260276   0.557   2.394   0.893 -0.3363  0.1529 -2.7675
12929TIP3   OH260277   0.307   0.178   6.709  0.5424  0.4141 -0.1066
12929TIP3    H160278   0.296   0.088   6.740  0.8729  0.5582  0.4518
12929TIP3    H260279   0.222   0.201   6.671  0.6349 -0.3210 -0.7648
12930TIP3   OH260280   5.292   0.130   3.260 -0.7394 -0.2292  0.0905
12930TIP3    H160281   5.372   0.164   3.220  0.1207 -0.1238  1.8149
12930TIP3    H260282   5.229   0.201   3.250 -0.2770  0.1408 -0.2649
12931TIP3   OH260283   4.210   4.418  13.004  0.1463  0.3314 -0.0001
12931TIP3    H160284   4.216   4.359  13.078  0.3998 -1.5044 -1.4067
12931TIP3    H260285   4.236   4.365  12.928 -0.3880  2.0217 -1.4509
12932TIP3   OH260286   0.969   0.739  15.550 -0.0273 -0.2828 -0.3364
12932TIP3    H160287   0.979   0.725  15.644 -1.5335  2.1070  0.2764
12932TIP3    H260288   1.023   0.672  15.509  2.2864 -0.1386  2.2418
12933TIP3   OH260289   6.591   4.261  15.442  0.5124 -0.4018 -0.1273
12933TIP3    H160290   6.578   4.356  15.448 -0.7108 -0.5625  0.0097
12933TIP3    H260291   6.662   4.251  15.379 -0.7563  0.5501 -1.7905
12934TIP3   OH260292   3.931   2.893  12.920  0.2998  0.1952  0.3262
12934TIP3    H160293   4.023   2.904  12.942 -0.1243  0.0777  2.4110
12934TIP3    H260294   3.924   2.803  12.887  0.8450  0.0363  0.6435
12935TIP3   OH260295   4.523   4.522   2.726  0.6684 -0.6191 -0.9651
12935TIP3    H160296   4.547   4.471   2.649 -0.9712 -0.4831 -1.5978
12935TIP3    H260297   4.464   4.464   2.775  0.1236  0.0291 -0.8449
12936TIP3   OH260298   2.863   6.147   2.399 -0.0333  0.5474  0.2299
12936TIP3    H160299   2.782   6.122   2.444  0.5124 -2.5045 -0.2582
12936TIP3    H260300   2.930   6.144   2.467  0.0498  0.6558  0.1532
12937TIP3   OH260301   3.474   2.344  14.856  0.0340 -0.2704  0.2002
12937TIP3    H160302   3.517   2.270  14.813  1.3935  1.8124 -2.3047
12937TIP3    H260303   3.542   2.378  14.915 -0.1327 -0.2108  0.3571
12938TIP3   OH260304   2.641   2.858   0.871  0.2918 -0.1383  0.1060
12938TIP3    H160305   2.568   2.813   0.830 -1.3951  0.1528  2.5691
12938TIP3    H260306   2.719   2.812   0.839 -0.9767 -0.9800 -1.9660
12939TIP3   OH260307   6.759   3.922  10.223 -0.0431  0.2617 -0.0366
12939TIP3    H160308   6.737   4.002  10.174  1.3847  1.4011  1.0897
12939TIP3    H260309   6.786   3.953  10.309  1.9277 -1.3212 -0.0121
12940TIP3   OH260310   3.997   2.163   5.771 -0.1877 -0.1206  0.3276
12940TIP3    H160311   3.976   2.100   5.701  1.0058  0.5036 -0.6292
12940TIP3    H260312   4.044   2.111   5.836  1.6301 -0.0829 -0.8880
12941TIP3   OH260313   1.978   0.762   4.037 -0.0177  0.0294  0.7554
12941TIP3    H160314   2.030   0.687   4.066  0.3234  1.0927  3.0703
12941TIP3    H260315   1.892   0.726   4.016  1.3465 -1.6952 -2.6686
12942TIP3   OH260316   3.554   3.883  15.241  0.2909 -0.0857 -0.6658
12942TIP3    H160317   3.493   3.905  15.170 -0.9294  0.8965  0.6305
12942TIP3    H260318   3.634   3.931  15.219 -0.5139  1.2999 -0.7250
12943TIP3   OH260319   0.054   4.194  16.800 -0.7535  0.4282 -0.2724
12943TIP3    H160320   0.146   4.201  16.826 -1.1496 -1.0028  1.6660
12943TIP3    H260321   0.051   4.237  16.714  2.3296 -2.1308 -1.8545
12944TIP3   OH260322   3.393   1.027  11.122 -0.0358  0.1397  0.0154
12944TIP3    H160323   3.367   0.948  11.169 -0.5062 -0.3263 -0.9864
12944TIP3    H260324   3.324   1.040  11.057  0.4196  0.9549 -0.3237
12945TIP3   OH260325   6.705   2.954   4.361 -0.4331 -0.2630 -0.2289
12945TIP3    H160326   6.750   3.032   4.393 -1.4052  0.6022 -0.8904
12945TIP3    H260327   6.619   2.986   4.333 -0.3539 -1.3141 -1.8275
12946TIP3   OH260328   5.797   2.648   1.158  0.4288 -0.2889 -0.1550
12946TIP3    H160329   5.884   2.635   1.196 -0.2063  1.1565  1.9049
12946TIP3    H260330   5.737   2.646   1.232 -0.9926  1.6312 -1.1617
12947TIP3   OH260331   4.687   6.829  11.312  0.0436  0.1027 -0.1058
12947TIP3    H160332   4.716   6.785  11.393  1.1393  1.3887  0.2369
12947TIP3    H260333   4.718   6.919  11.321 -1.3071  0.7142 -1.2234
12948TIP3   OH260334   0.481   4.143   4.901  1.1194 -0.7336 -0.1792
12948TIP3    H160335   0.489   4.050   4.925  0.0229 -0.4720  1.3489
12948TIP3    H260336   0.567   4.180   4.918  0.7669 -0.8633  2.1787
12949TIP3   OH260337   3.772   2.980   1.895  0.1808 -0.4490  0.0542
12949TIP3    H160338   3.855   2.973   1.847  1.2987  0.9608  1.6620
12949TIP3    H260339   3.738   3.066   1.871  0.5302  0.0790  1.3819
12950TIP3   OH260340   6.576   1.759   1.295 -0.0208  0.0292 -0.4570
12950TIP3    H160341   6.650   1.780   1.238 -0.9209  3.3349 -0.5765
12950TIP3    H260342   6.608   1.776   1.383  0.1003 -1.0927 -0.2646
12951TIP3   OH260343   0.809   3.258   3.441 -0.4236 -0.1538 -0.0083
12951TIP3    H160344   0.774   3.266   3.530  1.8134 -0.5804  0.9927
12951TIP3    H260345   0.836   3.167   3.434  0.6370  0.1899 -0.6178
12952TIP3   OH260346   2.966   2.654   4.220 -0.1819 -0.5553 -0.0622
12952TIP3    H160347   2.916   2.682   4.297 -0.4497 -0.5724 -0.2274
12952TIP3    H260348   2.901   2.609   4.165 -0.0708 -0.2129 -0.4723
12953TIP3   OH260349   2.365   5.616   4.462 -0.3032  0.3726 -0.7574
12953TIP3    H160350   2.304   5.647   4.529  0.1465  0.5677 -0.4296
12953TIP3    H260351   2.321   5.634   4.379 -1.7662 -1.7224 -0.5077
12954TIP3   OH260352   4.566   3.994   3.258 -0.5382 -0.3619  0.3858
12954TIP3    H160353   4.622   4.070   3.240  1.0568 -1.4437  0.5687
12954TIP3    H260354   4.614   3.920   3.221 -1.2512 -1.5112  1.6705
12955TIP3   OH260355   2.527   4.706   5.006 -0.0250  0.0501  0.1631
12955TIP3    H160356   2.498   4.685   4.918  0.3868 -0.9996  0.2540
12955TIP3    H260357   2.464   4.770   5.038  1.9378  3.5172 -2.2495
12956TIP3   OH260358   3.915   1.760   0.771 -0.4477  0.5891  0.4661
12956TIP3    H160359   3.842   1.768   0.709 -0.6223 -1.2700  0.3949
12956TIP3    H260360   3.988   1.729   0.718 -0.1562  0.5088  0.9123
12957TIP3   OH260361   2.319   4.010   3.558 -0.0724 -0.4801 -0.3998
12957TIP3    H160362   2.254   3.949   3.522 -1.0119 -0.8223  1.7108
12957TIP3    H260363   2.393   3.954   3.584  0.5719 -0.2450 -1.6781
12958TIP3   OH260364   1.768   1.212  11.862  0.4656 -0.4202 -0.4948
12958TIP3    H160365   1.690   1.166  11.893  1.6789 -1.8106  0.6350
12958TIP3    H260366   1.802   1.257  11.940  0.1193  1.2338 -1.2601
12959TIP3   OH260367   2.523   4.646  13.532 -0.2104 -0.1298 -0.0268
12959TIP3    H160368   2.476   4.700  13.468 -1.9560  3.9255  4.1026
12959TIP3    H260369   2.479   4.561  13.529 -1.9538  0.7513 -2.3206
12960TIP3   OH260370   0.751   1.077   5.196  0.0453 -0.0072 -0.3319
12960TIP3    H160371   0.678   1.017   5.182  0.9167 -0.5425 -3.2883
12960TIP3    H260372   0.794   1.044   5.275 -1.6663 -0.9317  0.2691
12961TIP3   OH260373   5.111   3.619  12.119  0.1963 -0.2833  0.2999
12961TIP3    H160374   5.180   3.667  12.073  0.7233 -0.7498  0.5804
12961TIP3    H260375   5.046   3.600  12.052  1.4564 -1.9048 -0.5560
12962TIP3   OH260376   5.177   5.062   3.802  0.0476  0.0587 -0.2259
12962TIP3    H160377   5.166   5.100   3.715 -1.1397  0.2592 -0.0043
12962TIP3    H260378   5.117   4.987   3.804 -0.4985  0.4929  0.6566
12963TIP3   OH260379   5.596   0.078   4.285  0.4081  0.4260  0.1688
12963TIP3    H160380   5.548   0.000   4.312 -1.0468  1.0886 -0.4365
12963TIP3    H260381   5.670   0.044   4.235  1.5215 -0.6842  2.3909
12964TIP3   OH260382   5.617   5.586  14.609  0.7292 -0.1142 -0.1617
12964TIP3    H160383   5.526   5.611  14.596 -0.1588 -3.3728 -1.3620
12964TIP3    H260384   5.631   5.593  14.704 -0.1128  2.1812 -0.1554
12965TIP3   OH260385   6.728   6.174  13.946  0.1213  0.1978  0.4591
12965TIP3    H160386   6.653   6.174  14.005 -0.6365  0.3715 -0.4805
12965TIP3    H260387   6.732   6.085  13.911  0.0476  0.3163  0.1409
12966TIP3   OH260388   0.574   0.434   0.434  0.0056  0.5477 -0.2785
12966TIP3    H160389   0.548   0.489   0.361 -1.0639 -0.4765 -0.7125
12966TIP3    H260390   0.491   0.408   0.475  0.5607  0.7287  1.0257
12967TIP3   OH260391   1.874   2.860  13.845 -0.0225 -0.6762 -0.3576
12967TIP3    H160392   1.807   2.882  13.910 -1.0472 -1.3411 -1.1469
12967TIP3    H260393   1.876   2.764  13.844  1.6035 -0.6797  0.2900
12968TIP3   OH260394   5.547   5.998  16.176  0.1464  0.5568  0.1363
12968TIP3    H160395   5.514   6.025  16.261  0.4776  0.0061  0.4390
12968TIP3    H260396   5.609   5.928  16.194  0.4351  0.6221 -0.5336
12969TIP3   OH260397   6.322   6.028  11.979 -0.4740 -0.0434 -0.0014
12969TIP3    H160398   6.390   6.063  11.922  0.2666 -3.2249 -1.3108
12969TIP3    H260399   6.370   5.990  12.053 -1.0097 -0.3102  0.2204
12970TIP3   OH260400   3.157   2.745  14.707 -0.0901 -0.0923  0.3911
12970TIP3    H160401   3.210   2.723  14.783  1.6814  0.1521 -0.7246
12970TIP3    H260402   3.183   2.681  14.640 -1.3601 -0.0914 -0.1502
12971TIP3   OH260403   5.617   4.756   6.276 -0.0830  0.6332 -0.7174
12971TIP3    H160404   5.681   4.813   6.317 -0.7483  2.1315 -1.6777
12971TIP3    H260405   5.538   4.810   6.268 -1.6940 -1.3142  0.9336
12972TIP3   OH260406   2.289   3.404   5.347 -0.3625  0.4243  0.2192
12972TIP3    H160407   2.240   3.345   5.405  1.4505  0.3868  1.8301
12972TIP3    H260408   2.230   3.478   5.332 -0.6322  0.8089  2.8056
12973TIP3   OH260409   4.740   3.302  17.106  0.2602 -0.5565  0.3365
12973TIP3    H160410   4.675   3.281  17.039  0.3438 -0.6300  0.2791
12973TIP3    H260411   4.697   3.369  17.161  0.6617  0.4328 -0.5235
12974TIP3   OH260412   5.208   5.538   0.670 -0.2438  0.0117  0.3695
12974TIP3    H160413   5.131   5.520   0.725  0.0645  1.1699  1.2194
12974TIP3    H260414   5.183   5.615   0.620 -1.3743 -2.2426 -2.8741
12975TIP3   OH260415   3.786   6.622  12.533  0.1180 -0.1630  0.5019
12975TIP3    H160416   3.746   6.537  12.547  2.2536 -1.1291  1.1173
12975TIP3    H260417   3.799   6.627  12.438  3.4150 -2.3116  0.6735
12976TIP3   OH260418   4.707   3.475   1.506 -0.6492 -0.1881  0.1207
12976TIP3    H160419   4.789   3.435   1.477 -0.8250  0.1578 -0.8961
12976TIP3    H260420   4.707   3.561   1.464 -1.4575 -0.1217  0.2546
12977TIP3   OH260421   5.493   3.785  14.963 -0.0038 -0.1558 -0.7066
12977TIP3    H160422   5.420   3.796  15.024  0.0964 -1.7367 -0.2354
12977TIP3    H260423   5.491   3.863  14.908 -0.8652  0.7327  0.5239
12978TIP3   OH260424   4.526   2.792   5.325  0.2942  0.3013 -0.3719
12978TIP3    H160425   4.585   2.850   5.277  0.7023  0.4410  0.2946
12978TIP3    H260426   4.539   2.815   5.417 -0.7722  0.3130 -0.2060
12979TIP3   OH260427   6.724   6.536  14.216  0.9475 -0.3018 -0.2688
12979TIP3    H160428   6.676   6.616  14.197  2.0974  0.7659  1.0290
12979TIP3    H260429   6.796   6.535  14.152  1.9170  0.6453  0.7585
12980TIP3   OH260430   0.099   1.124  14.715  0.3599 -0.2954  0.1632
12980TIP3    H160431   0.159   1.064  14.759  1.9973  0.4945 -0.8844
12980TIP3    H260432   0.095   1.093  14.625  2.6682  2.0404 -0.8932
12981TIP3   OH260433   0.630   5.162   4.196 -0.3977 -0.0832  0.0303
12981TIP3    H160434   0.577   5.083   4.203  0.7611 -0.9066 -0.0732
12981TIP3    H260435   0.598   5.219   4.267 -2.0026 -0.1528 -0.5993
12982TIP3   OH260436   6.835   5.947   0.443 -0.1261 -0.5221 -0.3430
12982TIP3    H160437   6.883   5.948   0.360 -1.5380 -1.5238 -1.2161
12982TIP3    H260438   6.813   5.855   0.455 -0.5938 -0.2694  0.7713
12983TIP3   OH260439   1.697   1.573   4.444 -0.3473 -0.1117  0.5207
12983TIP3    H160440   1.780   1.526   4.436 -0.3380  0.1617 -1.8448
12983TIP3    H260441   1.716   1.661   4.410 -1.8143 -0.3945 -1.2222
12984TIP3   OH260442   5.905   5.987   1.092  0.1207 -0.1925  0.0374
12984TIP3    H160443   5.912   5.907   1.144 -1.3632 -1.3216 -1.4005
12984TIP3    H260444   5.960   5.970   1.015 -0.4062  0.0658 -0.4004
12985TIP3   OH260445   6.613   0.234   2.217 -0.2890 -0.1815  0.2280
12985TIP3    H160446   6.688   0.186   2.253 -0.2636 -0.5240 -0.2777
12985TIP3    H260447   6.545   0.223   2.283  0.8115  2.1623  1.8700
12986TIP3   OH260448   0.351   3.873  16.114  0.3219  0.7237 -0.1590
12986TIP3    H160449   0.432   3.878  16.064  0.5148 -0.5924 -0.0310
12986TIP3    H260450   0.285   3.848  16.050  0.1392  1.2063 -0.1569
12987TIP3   OH260451   4.860   0.490  13.722  0.9053 -0.9382  0.6243
12987TIP3    H160452   4.853   0.558  13.655  0.1855 -2.3648 -0.8081
12987TIP3    H260453   4.948   0.501  13.758  1.0797  0.2515 -0.0981
12988TIP3   OH260454   3.840   1.688   4.835  0.4811  0.3705 -0.4733
12988TIP3    H160455   3.783   1.727   4.769  1.5288  1.5884 -0.6960
12988TIP3    H260456   3.883   1.616   4.790  0.1731  0.3277 -0.7044
12989TIP3   OH260457   6.184   0.400   5.550 -0.1536  0.0526  0.4776
12989TIP3    H160458   6.269   0.369   5.519 -0.1899 -0.4242  0.8429
12989TIP3    H260459   6.166   0.348   5.628 -0.4792  0.6086  0.7842
12990TIP3   OH260460   6.240   4.138  12.003 -0.5502  0.2874  0.7501
12990TIP3    H160461   6.216   4.126  11.911 -1.2920  1.2485  0.7905
12990TIP3    H260462   6.280   4.055  12.029  2.2319  0.9043 -1.1858
12991TIP3   OH260463   2.965   5.001  14.416  0.3247  0.3739 -0.3442
12991TIP3    H160464   3.028   4.973  14.350  0.1674  0.2100 -0.4244
12991TIP3    H260465   2.987   5.093  14.432  0.6031  0.3092 -0.3494
12992TIP3   OH260466   4.640   3.256  10.878 -0.2179 -0.7538  0.0260
12992TIP3    H160467   4.592   3.316  10.821  0.0039  0.7910  1.4021
12992TIP3    H260468   4.611   3.278  10.967  0.9619 -1.6747  0.6776
12993TIP3   OH260469   4.860   4.748  10.819 -0.5114 -0.4986  0.8679
12993TIP3    H160470   4.936   4.719  10.768 -0.8198 -1.2496  0.8151
12993TIP3    H260471   4.818   4.815  10.765 -1.9821 -2.6601 -0.8729
12994TIP3   OH260472   0.508   4.728  16.098  0.3741 -0.4246 -0.7923
12994TIP3    H160473   0.545   4.814  16.117 -0.8920  0.0453 -0.2997
12994TIP3    H260474   0.415   4.745  16.081 -0.1369 -1.7939  0.3725
12995TIP3   OH260475   6.768   6.727   6.317 -1.1002 -0.0815  0.2927
12995TIP3    H160476   6.795   6.816   6.339 -0.0099 -0.2793 -0.1421
12995TIP3    H260477   6.744   6.687   6.400 -1.1896  0.4923  0.5429
12996TIP3   OH260478   5.900   5.163   2.221 -0.4825 -0.0066  0.1960
12996TIP3    H160479   5.938   5.184   2.306 -0.1645 -1.6784  0.4914
12996TIP3    H260480   5.975   5.153   2.163 -0.4278 -2.3214  0.5553
12997TIP3   OH260481   3.339   1.764  13.982 -0.2129 -0.5569  0.1166
12997TIP3    H160482   3.355   1.719  14.064  1.0061  0.4753  0.4794
12997TIP3    H260483   3.426   1.777  13.944 -0.3957  2.1553  0.4384
12998TIP3   OH260484   4.927   5.755  12.896  0.0589 -0.8986 -0.3534
12998TIP3    H160485   4.867   5.683  12.914 -0.2488 -0.0212  2.6615
12998TIP3    H260486   4.876   5.834  12.911  1.2769 -0.0996 -0.2182
12999TIP3   OH260487   2.426   0.119  15.672  0.2524 -0.7140 -0.1499
12999TIP3    H160488   2.332   0.107  15.659  0.0241  0.9239 -0.2504
12999TIP3    H260489   2.464   0.106  15.585 -0.0594 -0.0842 -0.3917
13000TIP3   OH260490   3.228   0.921  10.216 -0.2534 -0.0514 -0.3668
13000TIP3    H160491   3.293   0.961  10.274 -0.1450 -0.8998  0.1146
13000TIP3    H260492   3.164   0.989  10.200 -0.1958  0.2409  0.6237
13001TIP3   OH260493   1.697   5.188   0.148 -0.6223  0.3328 -0.4449
13001TIP3    H160494   1.659   5.159   0.065 -0.6349  1.1454 -0.7384
13001TIP3    H260495   1.782   5.225   0.124 -1.2976  2.0797 -0.3660
13002TIP3   OH260496   1.518   4.305  12.530 -0.1605 -0.0643 -0.1233
13002TIP3    H160497   1.560   4.302  12.616 -3.3081  2.6280  1.7577
13002TIP3    H260498   1.480   4.217  12.519  0.9340 -0.6823  0.8619
13003TIP3   OH260499   1.484   3.760   4.723  0.1882 -0.2056  0.4180
13003TIP3    H160500   1.449   3.729   4.640 -0.7229 -0.4243  0.8667
13003TIP3    H260501   1.538   3.688   4.755 -0.8642 -0.8485  0.8273
13004TIP3   OH260502   0.710   5.070   1.670  0.0057 -0.1301  0.6643
13004TIP3    H160503   0.730   5.158   1.637  0.0766 -0.4359 -0.1365
13004TIP3    H260504   0.669   5.026   1.595 -1.6335 -0.2330  1.5661
13005TIP3   OH260505   6.728   3.637  10.732  0.3011  0.2048  0.0832
13005TIP3    H160506   6.644   3.594  10.714 -0.5346  1.2906  1.1280
13005TIP3    H260507   6.784   3.614  10.658 -0.3300 -2.0083  0.2249
13006TIP3   OH260508   5.503   5.123  15.013 -0.1984 -0.2053  0.2734
13006TIP3    H160509   5.512   5.045  14.958 -3.6143 -0.1853 -0.5090
13006TIP3    H260510   5.551   5.101  15.093 -1.1724 -3.2380  0.1596
13007TIP3   OH260511   5.119   6.447   5.581  0.0570 -0.0452  0.0709
13007TIP3    H160512   5.167   6.425   5.501  1.1977  1.2755  0.3552
13007TIP3    H260513   5.178   6.505   5.629 -0.3522 -1.2973  2.1777
13008TIP3   OH260514   4.441   0.264   0.283  0.0418 -0.2416 -0.3856
13008TIP3    H160515   4.423   0.181   0.237 -0.3601 -0.9938  1.0665
13008TIP3    H260516   4.395   0.330   0.232 -0.3008 -1.0242 -1.1247
13009TIP3   OH260517   0.430   2.302   5.424  0.0451 -0.5648  0.0863
13009TIP3    H160518   0.354   2.291   5.482 -1.1361  2.5683 -0.6614
13009TIP3    H260519   0.392   2.312   5.337  1.4256 -0.2419 -0.5066
13010TIP3   OH260520   6.347   5.126   1.953 -0.1790  0.0239  0.0771
13010TIP3    H160521   6.267   5.178   1.960 -0.9612 -1.0834 -0.1915
13010TIP3    H260522   6.387   5.152   1.871 -0.5205  0.2594 -0.0150
13011TIP3   OH260523   0.523   5.644   5.049  0.4825 -0.2164 -0.4628
13011TIP3    H160524   0.508   5.674   5.139 -1.2021 -0.7034 -0.5467
13011TIP3    H260525   0.586   5.573   5.058  0.6962  0.0514  0.2808
13012TIP3   OH260526   1.846   4.535   4.631 -0.4229  0.2590  0.0448
13012TIP3    H160527   1.869   4.447   4.602 -0.0283 -0.2349  1.7410
13012TIP3    H260528   1.929   4.582   4.637 -0.6643  0.9164 -1.2470
13013TIP3   OH260529   6.042   1.678  14.856  0.1788 -0.5499  0.4598
13013TIP3    H160530   6.070   1.632  14.777  1.4660 -0.4346  0.8281
13013TIP3    H260531   6.120   1.726  14.885  0.1056 -1.5719  2.5080
13014TIP3   OH260532   2.546   6.484   1.289  0.2913  0.5523  0.4507
13014TIP3    H160533   2.637   6.516   1.285  0.5819 -0.3551 -0.6150
13014TIP3    H260534   2.525   6.459   1.199 -1.2376  1.2953  0.5719
13015TIP3   OH260535   1.068   1.445  14.621 -0.0123  0.5274 -0.4296
13015TIP3    H160536   1.047   1.498  14.698  0.3464  0.2431 -0.1321
13015TIP3    H260537   1.026   1.361  14.637 -3.4499  1.6910 -2.4071
13016TIP3   OH260538   4.969   0.666  14.059 -0.3449  0.0024 -0.2776
13016TIP3    H160539   5.008   0.734  14.114 -0.0362 -0.0980 -0.3712
13016TIP3    H260540   4.922   0.715  13.992  0.6134  0.1329 -0.8736
13017TIP3   OH260541   5.791   0.865  12.553 -0.1413  0.2773 -0.1245
13017TIP3    H160542   5.883   0.862  12.581 -0.8438 -0.2451  2.3904
13017TIP3    H260543   5.757   0.778  12.573 -1.3154  0.6217 -0.5441
13018TIP3   OH260544   2.303   0.889  13.166 -0.6605 -0.1767  0.0518
13018TIP3    H160545   2.249   0.899  13.244  0.2960  1.0156  0.5927
13018TIP3    H260546   2.384   0.851  13.198 -1.9506 -4.3988 -1.0968
13019TIP3   OH260547   5.591   3.978   5.631 -0.3981  0.1443  0.0127
13019TIP3    H160548   5.673   4.022   5.655 -0.1484 -1.2083  1.8362
13019TIP3    H260549   5.617   3.892   5.601 -1.1339 -0.2935  0.5930
13020TIP3   OH260550   6.554   2.970  15.812 -0.1384 -0.1170 -0.1571
13020TIP3    H160551   6.611   3.009  15.746 -0.3024 -0.3437 -0.4351
13020TIP3    H260552   6.552   2.877  15.790 -1.8640  0.0917 -1.1197
13021TIP3   OH260553   4.754   4.537   5.792  0.0011  0.0279 -0.4900
13021TIP3    H160554   4.842   4.502   5.786 -0.7511 -1.7863 -1.8993
13021TIP3    H260555   4.729   4.523   5.884  0.8169 -0.3444 -0.3187
13022TIP3   OH260556   3.329   6.709  16.656  0.3802 -0.0106 -0.0251
13022TIP3    H160557   3.325   6.624  16.614 -2.3285 -0.5552  1.1135
13022TIP3    H260558   3.257   6.759  16.617 -2.5321 -0.6612  3.8921
13023TIP3   OH260559   4.365   5.758   2.538  0.7621  0.5216 -0.1294
13023TIP3    H160560   4.303   5.691   2.511 -0.7407  1.8057 -0.0024
13023TIP3    H260561   4.326   5.841   2.509  0.4670  1.7459  3.2023
13024TIP3   OH260562   2.625   2.954   2.241  0.9834 -0.2741 -0.3793
13024TIP3    H160563   2.586   2.995   2.318  2.2628  0.2633  0.0179
13024TIP3    H260564   2.621   2.860   2.258 -2.7559 -0.4961 -1.6670
13025TIP3   OH260565   5.223   6.395   1.027  0.1292  0.2497 -0.5333
13025TIP3    H160566   5.129   6.384   1.015 -0.2882  1.1359  1.4642
13025TIP3    H260567   5.231   6.463   1.094  2.1897  0.1143 -0.5714
13026TIP3   OH260568   2.092   2.530  14.734  0.2475  0.1570 -0.2988
13026TIP3    H160569   2.066   2.562  14.820 -2.0353  0.3508 -0.9907
13026TIP3    H260570   2.055   2.594  14.673 -1.7613 -2.0450 -1.5789
13027TIP3   OH260571   5.110   0.420  11.926  0.1028 -0.2424  0.3844
13027TIP3    H160572   5.065   0.486  11.978 -0.2740 -0.8444  0.8442
13027TIP3    H260573   5.201   0.423  11.956 -0.0239 -0.2930  0.7686
13028TIP3   OH260574   6.240   5.267   5.248 -0.1196 -0.1011 -0.0731
13028TIP3    H160575   6.201   5.303   5.328  1.1849  1.0031  0.1029
13028TIP3    H260576   6.253   5.175   5.267 -3.8527 -0.9135 -0.6418
13029TIP3   OH260577   4.373   0.311  16.871 -0.2025  0.2685  0.3557
13029TIP3    H160578   4.306   0.287  16.807  0.1466  1.2881 -0.4106
13029TIP3    H260579   4.345   0.268  16.952 -0.7498 -0.8764 -0.4291
13030TIP3   OH260580   5.427   2.674  14.048 -0.3912 -0.1094  0.3421
13030TIP3    H160581   5.462   2.650  13.962  0.0641  2.3622 -0.2358
13030TIP3    H260582   5.502   2.702  14.098 -0.6494 -1.6007  1.6464
13031TIP3   OH260583   1.353   3.983   2.940  1.1323 -0.5959  0.1227
13031TIP3    H160584   1.394   3.921   2.880  1.4395  1.5236 -2.0077
13031TIP3    H260585   1.319   4.052   2.884 -1.7994 -0.2215  2.1565
13032TIP3   OH260586   2.573   0.486  14.369 -0.0190  0.0528 -0.5617
13032TIP3    H160587   2.619   0.498  14.286  0.1760 -0.9762 -0.6132
13032TIP3    H260588   2.642   0.492  14.436 -0.2892  1.7237 -0.3831
13033TIP3   OH260589   2.347   5.327   4.480 -0.1276 -0.0838  0.0415
13033TIP3    H160590   2.347   5.422   4.467 -1.5153  0.4197  2.9463
13033TIP3    H260591   2.256   5.301   4.467  0.1921 -0.9810 -0.4398
13034TIP3   OH260592   2.194   3.613  14.548 -0.3909 -0.5811  0.2998
13034TIP3    H160593   2.257   3.673  14.509 -1.3869  0.7618  0.6794
13034TIP3    H260594   2.199   3.631  14.642 -0.5292 -1.2722  0.4446
13035TIP3   OH260595   4.478   5.956  10.863 -0.5761  0.1049 -0.0387
13035TIP3    H160596   4.451   5.966  10.772 -0.9840  0.6518  0.1380
13035TIP3    H260597   4.526   5.872  10.865 -1.8903 -0.6829 -0.4492
13036TIP3   OH260598   6.768   6.072   5.583 -0.7159  0.3370  0.0546
13036TIP3    H160599   6.800   6.152   5.625 -1.5943  0.9718 -0.4535
13036TIP3    H260600   6.673   6.077   5.590 -0.8028 -2.2052  2.8000
13037TIP3   OH260601   3.195   6.755  13.514 -0.2912 -0.3579  0.5587
13037TIP3    H160602   3.107   6.765  13.550 -0.5924  0.4930 -0.3704
13037TIP3    H260603   3.182   6.709  13.431  0.1620 -0.4289  0.5242
13038TIP3   OH260604   4.950   4.805  15.407  0.7557 -0.5146 -0.0784
13038TIP3    H160605   5.013   4.750  15.360  0.3383 -1.0759  0.0128
13038TIP3    H260606   4.874   4.749  15.419  1.5145 -1.0742  2.9311
13039TIP3   OH260607   6.099   2.209  15.820 -0.0278 -0.3731  0.2858
13039TIP3    H160608   6.115   2.144  15.751  0.1494 -0.4445  0.3938
13039TIP3    H260609   6.142   2.172  15.897  0.3278  0.0163  0.2741
13040TIP3   OH260610   2.027   2.295   4.619  0.0739 -0.3160  0.0532
13040TIP3    H160611   2.038   2.316   4.526 -0.2091  2.6499  0.6102
13040TIP3    H260612   1.932   2.286   4.630  0.1656 -1.6407 -0.0926
13041TIP3   OH260613   2.037   6.549  16.051 -0.5058 -0.3720 -0.5812
13041TIP3    H160614   2.053   6.635  16.010  2.0717  0.2201  1.4230
13041TIP3    H260615   2.118   6.501  16.038 -0.7213 -1.2716  1.1267
13042TIP3   OH260616   6.823   0.904   2.367 -0.5893  0.5210 -0.8525
13042TIP3    H160617   6.781   0.945   2.291 -2.6895  0.5938  0.2713
13042TIP3    H260618   6.862   0.977   2.415  1.2583  0.4147 -2.0935
13043TIP3   OH260619   2.982   3.698   4.828  0.2190 -0.2084  0.4028
13043TIP3    H160620   3.023   3.759   4.889  0.3684  1.7932 -1.6041
13043TIP3    H260621   3.042   3.624   4.824  0.5620 -0.0489  2.0817
13044TIP3   OH260622   4.715   4.994   5.749  0.0244 -0.8002  0.5591
13044TIP3    H160623   4.732   4.927   5.815  1.6488 -2.0373 -1.0360
13044TIP3    H260624   4.628   4.973   5.715 -0.7289 -0.2948  2.0367
13045TIP3   OH260625   3.510   6.199  16.132 -0.8980 -0.1550 -0.4456
13045TIP3    H160626   3.591   6.148  16.136  0.2639  1.4213 -2.3041
13045TIP3    H260627   3.509   6.247  16.215  1.2055  1.3497 -1.2121
13046TIP3   OH260628   6.737   6.819   1.418 -0.0244  0.2917  0.2593
13046TIP3    H160629   6.671   6.809   1.487  0.0423  0.3083  0.3259
13046TIP3    H260630   6.726   6.910   1.389  0.7731  0.6756  1.1061
13047TIP3   OH260631   2.822   4.342   1.782  0.0910  0.2790  0.6882
13047TIP3    H160632   2.900   4.390   1.808 -0.2090  0.2399  1.7140
13047TIP3    H260633   2.750   4.383   1.831 -0.2798 -0.7039  1.0073
13048TIP3   OH260634   6.496   1.172  13.050  0.3964 -0.1857 -0.4364
13048TIP3    H160635   6.491   1.212  13.137  2.0241  1.1074 -0.8565
13048TIP3    H260636   6.563   1.104  13.059 -0.3679 -0.9432 -0.3885
13049TIP3   OH260637   0.885   0.524  13.721 -0.3846 -0.1065  0.2632
13049TIP3    H160638   0.944   0.483  13.784 -0.6432 -1.6050 -0.4177
13049TIP3    H260639   0.805   0.542  13.772 -0.8864 -2.0191  0.2569
13050TIP3   OH260640   0.496   2.503   1.628 -0.3448  0.3294  0.4390
13050TIP3    H160641   0.566   2.530   1.688  0.6687  1.4122 -1.1687
13050TIP3    H260642   0.431   2.573   1.635  0.2237  0.9638 -0.4064
13051TIP3   OH260643   1.534   5.842   5.238  0.2428  0.0054  0.3921
13051TIP3    H160644   1.516   5.895   5.316  0.2170  0.2161  0.2422
13051TIP3    H260645   1.486   5.760   5.254  0.8690 -0.2590  0.9529
13052TIP3   OH260646   2.310   4.375   0.019  0.1132  0.5332  0.0656
13052TIP3    H160647   2.228   4.328   0.003  0.1190  0.6190 -0.2310
13052TIP3    H260648   2.370   4.308   0.050  0.3859  0.1549 -1.2253
13053TIP3   OH260649   5.578   6.072  12.188 -0.2350 -0.0453 -0.3093
13053TIP3    H160650   5.535   5.986  12.191  0.1095 -0.1973  1.9269
13053TIP3    H260651   5.656   6.062  12.243  1.5740  0.8435 -2.5413
13054TIP3   OH260652   2.487   6.346  12.952  0.7406 -0.7109  0.2594
13054TIP3    H160653   2.432   6.356  12.874  1.8983  1.0476 -0.3742
13054TIP3    H260654   2.454   6.266  12.994 -1.2822 -0.5425 -0.8917
13055TIP3   OH260655   2.348   5.029  11.413 -0.1225  0.0675 -0.1164
13055TIP3    H160656   2.368   5.055  11.323 -1.0071  0.9733 -0.0766
13055TIP3    H260657   2.404   5.084  11.467 -0.8881  0.8402 -0.0794
13056TIP3   OH260658   4.774   4.660   0.770 -0.1113  0.2974  0.6866
13056TIP3    H160659   4.793   4.622   0.684  0.4097  1.4895  0.2661
13056TIP3    H260660   4.690   4.704   0.759  0.0846  0.6766  0.7228
13057TIP3   OH260661   4.647   4.242   2.540 -0.1752  0.1062  0.2599
13057TIP3    H160662   4.649   4.151   2.512  0.8826  0.5133 -1.0742
13057TIP3    H260663   4.727   4.254   2.591 -0.8253  0.0424  1.3318
13058TIP3   OH260664   4.482   1.976  13.991  1.0054 -0.7473  0.6579
13058TIP3    H160665   4.457   1.922  14.066 -0.4215 -1.4099 -0.2626
13058TIP3    H260666   4.511   1.913  13.925 -0.9199 -0.4486 -0.5230
13059TIP3   OH260667   5.313   6.358   4.900 -0.1979  0.2152 -0.5026
13059TIP3    H160668   5.366   6.436   4.914 -0.5336  0.5553 -1.0764
13059TIP3    H260669   5.325   6.336   4.808 -0.1007 -0.4207 -0.3474
13060TIP3   OH260670   6.271   3.349   5.140  0.2344  0.0330  0.0868
13060TIP3    H160671   6.256   3.327   5.232 -0.4059 -0.9947 -0.2500
13060TIP3    H260672   6.346   3.296   5.115  1.4358  1.4866  0.4127
13061TIP3   OH260673   4.336   5.219  13.560 -0.0222  0.0324 -0.0561
13061TIP3    H160674   4.419   5.206  13.513  0.9654 -0.0314  1.6251
13061TIP3    H260675   4.284   5.276  13.502  0.7917 -0.7299 -1.5827
13062TIP3   OH260676   2.957   0.294   1.637  0.5694 -0.2552  0.6075
13062TIP3    H160677   2.956   0.370   1.579 -1.6825 -0.5136  0.2051
13062TIP3    H260678   2.905   0.322   1.713 -2.0667 -1.9392 -0.4384
13063TIP3   OH260679   0.278   1.116  15.337 -0.0889 -0.5633 -0.1369
13063TIP3    H160680   0.273   1.125  15.433  1.7439 -2.4989  0.2267
13063TIP3    H260681   0.230   1.036  15.318 -1.6800  0.5692 -1.0689
13064TIP3   OH260682   4.123   1.742  13.280 -0.3141 -0.5238  0.8830
13064TIP3    H160683   4.077   1.699  13.208  0.3142  1.1383 -0.5539
13064TIP3    H260684   4.203   1.690  13.292 -0.6159 -1.0434  0.6593
13065TIP3   OH260685   5.803   0.641  16.751 -0.3404  0.0914  0.1379
13065TIP3    H160686   5.883   0.668  16.795 -0.4790  1.0129 -0.1641
13065TIP3    H260687   5.770   0.567  16.803 -0.7963  1.4918  1.9039
13066TIP3   OH260688   2.231   3.737  13.589  0.3581 -0.5775 -0.2414
13066TIP3    H160689   2.277   3.809  13.632 -0.3100 -0.2619 -0.0423
13066TIP3    H260690   2.138   3.761  13.594  0.2691 -0.3779 -2.1098
13067TIP3   OH260691   1.982   3.634   4.635  0.1025  0.2239  0.0860
13067TIP3    H160692   1.955   3.667   4.721 -0.2755 -0.8998  0.4166
13067TIP3    H260693   2.060   3.685   4.613 -0.8073  1.7863  0.2675
13068TIP3   OH260694   4.213   0.945   3.127 -0.2009  0.3612  0.2230
13068TIP3    H160695   4.248   0.864   3.090  0.5010  1.0578 -0.6769
13068TIP3    H260696   4.127   0.954   3.086  0.2930  0.7735 -0.7691
13069TIP3   OH260697   3.839   5.930   0.491 -0.2130  0.1957  0.3745
13069TIP3    H160698   3.772   5.996   0.473 -1.6705 -1.3542 -0.0399
13069TIP3    H260699   3.908   5.978   0.538 -0.9534  2.1215 -0.4267
13070TIP3   OH260700   6.483   5.431   1.325  0.4509  0.3541 -0.3818
13070TIP3    H160701   6.446   5.356   1.278  1.4467 -1.9662  2.2294
13070TIP3    H260702   6.415   5.458   1.385 -0.3576  2.4777 -2.1431
13071TIP3   OH260703   4.989   0.739   1.689 -0.0429 -0.1354  0.3171
13071TIP3    H160704   4.900   0.772   1.697  0.6466  1.6042  1.4409
13071TIP3    H260705   5.033   0.801   1.631  1.2316  0.9679  2.3207
13072TIP3   OH260706   2.697   4.616   3.411 -0.2335 -0.0456  0.1607
13072TIP3    H160707   2.640   4.665   3.469 -0.8992 -1.3993  0.6972
13072TIP3    H260708   2.684   4.656   3.325 -0.8106  0.6470  0.5559
13073TIP3   OH260709   5.635   6.088  15.679  0.5345 -0.0113 -0.4133
13073TIP3    H160710   5.569   6.128  15.623 -0.4293 -1.9499 -0.7529
13073TIP3    H260711   5.625   6.134  15.763 -1.8202 -0.7349 -0.2150
13074TIP3   OH260712   6.219   5.528  15.822 -0.0650 -0.1606 -0.2371
13074TIP3    H160713   6.163   5.470  15.873  1.6845  0.0111  2.0381
13074TIP3    H260714   6.194   5.616  15.850 -0.3886  0.0546 -1.1574
13075TIP3   OH260715   6.123   5.893  11.850  0.1824 -0.3001  0.2128
13075TIP3    H160716   6.177   5.965  11.881  0.5839 -0.3862 -0.2745
13075TIP3    H260717   6.165   5.814  11.884 -0.4246 -0.3040  0.9988
13076TIP3   OH260718   2.820   5.224   0.508 -0.0084  0.2827 -0.2878
13076TIP3    H160719   2.914   5.241   0.501 -0.0905  1.3683  0.8134
13076TIP3    H260720   2.814   5.144   0.560  0.3168  0.6551  0.3428
13077TIP3   OH260721   4.763   0.824  13.886 -0.0564 -0.2864 -0.0859
13077TIP3    H160722   4.688   0.879  13.866 -0.4151 -1.0451 -0.9262
13077TIP3    H260723   4.730   0.761  13.950  0.7150  1.2639  1.9358
13078TIP3   OH260724   2.861   4.141   0.138 -0.5906  0.5004 -0.2317
13078TIP3    H160725   2.843   4.047   0.134  1.5558  0.0328  0.2764
13078TIP3    H260726   2.913   4.152   0.217 -0.9219  2.1674 -0.2162
13079TIP3   OH260727   1.603   0.838   2.277 -0.0553 -0.2806 -0.4474
13079TIP3    H160728   1.678   0.865   2.224  0.1683 -0.5371 -0.2639
13079TIP3    H260729   1.536   0.813   2.213 -0.4513  1.1653 -0.6347
13080TIP3   OH260730   6.001   0.413  13.869  0.2286  0.2028  0.3334
13080TIP3    H160731   6.000   0.366  13.785 -0.7697 -1.6665  1.3309
13080TIP3    H260732   6.094   0.418  13.893  0.3599 -1.3021  0.1986
13081TIP3   OH260733   1.174   3.954  12.964  0.0652  0.2286  0.4914
13081TIP3    H160734   1.162   3.888  13.032 -1.8295  0.3786  0.3423
13081TIP3    H260735   1.154   4.037  13.006  0.2196  0.4707  0.0958
13082TIP3   OH260736   5.806   3.933  13.575  0.0213 -0.2768 -0.3989
13082TIP3    H160737   5.847   3.878  13.509  0.1016 -0.1854 -0.4252
13082TIP3    H260738   5.747   3.990  13.526 -3.7342 -3.4638 -0.0334
13083TIP3   OH260739   0.866   0.901   0.584  0.6290 -0.0652 -0.3484
13083TIP3    H160740   0.865   0.991   0.616  3.8260  0.3105 -0.9077
13083TIP3    H260741   0.907   0.851   0.654  0.4348 -0.7506 -0.7146
13084TIP3   OH260742   4.330   4.183  13.456 -0.1353  0.4357  0.1274
13084TIP3    H160743   4.335   4.272  13.491 -1.2634  2.3252 -3.9031
13084TIP3    H260744   4.420   4.150  13.461  1.0613  3.1593 -1.1842
13085TIP3   OH260745   4.927   3.040  14.432 -0.2721 -0.4597 -0.5545
13085TIP3    H160746   5.006   3.050  14.380 -0.6329 -0.9793 -1.2132
13085TIP3    H260747   4.856   3.029  14.368 -0.5044 -2.8463  0.0028
13086TIP3   OH260748   3.910   3.184  15.024 -1.0756 -0.6053 -0.7129
13086TIP3    H160749   3.821   3.193  15.057 -0.0716  1.8041  1.7972
13086TIP3    H260750   3.936   3.273  15.001  0.8129 -1.1856 -0.9990
13087TIP3   OH260751   4.963   0.736   0.528  0.0497 -0.1235 -0.5036
13087TIP3    H160752   4.947   0.642   0.538  0.5672 -0.0132  1.7329
13087TIP3    H260753   4.900   0.764   0.461  1.4852 -2.4327 -3.0071
13088TIP3   OH260754   6.663   4.506   4.745  0.2595 -0.2490 -0.0402
13088TIP3    H160755   6.570   4.487   4.730  0.2182  0.8355 -1.2548
13088TIP3    H260756   6.687   4.449   4.818 -0.7564 -2.2848 -1.2139
13089TIP3   OH260757   4.348   1.396  10.459 -0.5761  0.7403  0.2586
13089TIP3    H160758   4.259   1.375  10.429 -0.6833  3.0598 -1.2826
13089TIP3    H260759   4.344   1.488  10.483  1.6021  1.0955 -0.5851
13090TIP3   OH260760   3.917   0.413  13.364  0.2902 -0.2793  0.1983
13090TIP3    H160761   3.908   0.321  13.341 -0.4774  0.0838 -1.0376
13090TIP3    H260762   3.846   0.457  13.317 -0.9897  0.6217  2.7728
13091TIP3   OH260763   6.479   1.389   2.024  0.5501  0.1710  0.3306
13091TIP3    H160764   6.532   1.414   2.100  0.3961  1.0774  0.1461
13091TIP3    H260765   6.422   1.464   2.008  0.2233 -0.2129 -0.3771
13092TIP3   OH260766   2.519   5.711  16.811  0.2486 -0.1621  0.3998
13092TIP3    H160767   2.527   5.802  16.782 -0.0281 -0.5140 -0.8337
13092TIP3    H260768   2.425   5.701  16.831  0.1195 -0.3977 -0.2858
13093TIP3   OH260769   0.071   5.678   6.592  0.5439  0.2368 -0.7418
13093TIP3    H160770   0.145   5.629   6.627  1.0891  0.0961 -2.0677
13093TIP3    H260771   0.107   5.764   6.571  0.8776 -0.4795 -3.3510
13094TIP3   OH260772   0.064   1.614  12.850  0.6132 -0.3376  0.5821
13094TIP3    H160773   0.115   1.656  12.919  0.8971  0.2214  0.0370
13094TIP3    H260774  -0.018   1.588  12.893  1.4488 -1.5142  1.5499
13095TIP3   OH260775   4.205   6.311   5.266 -0.0538 -0.5430 -0.2611
13095TIP3    H160776   4.238   6.396   5.235 -0.6227 -0.0684  0.4032
13095TIP3    H260777   4.227   6.309   5.359 -0.7735 -0.7619 -0.0859
13096TIP3   OH260778   0.096   2.743  11.301 -0.2369 -0.3635 -0.0054
13096TIP3    H160779   0.188   2.718  11.303 -0.1224  0.0276  1.6541
13096TIP3    H260780   0.054   2.684  11.364 -1.8753 -3.0259 -3.2883
13097TIP3   OH260781   0.667   1.276   0.887 -1.1412  0.2417  0.0685
13097TIP3    H160782   0.725   1.341   0.847 -0.6290 -0.8950 -1.1040
13097TIP3    H260783   0.592   1.327   0.917 -1.9259  1.1308 -2.9977
13098TIP3   OH260784   6.494   0.309   3.201  0.1653  0.6623  0.2357
13098TIP3    H160785   6.556   0.298   3.274 -1.6499 -0.5691  1.6909
13098TIP3    H260786   6.418   0.351   3.241 -0.6730  0.4375 -1.0871
13099TIP3   OH260787   5.556   0.179  17.187  0.0677 -0.2101 -0.4655
13099TIP3    H160788   5.498   0.254  17.172  0.7354 -0.1023 -2.8937
13099TIP3    H260789   5.504   0.103  17.164  0.2759 -0.2517 -0.8123
13100TIP3   OH260790   0.329   0.444   2.566 -0.1467 -0.4423 -0.3593
13100TIP3    H160791   0.270   0.374   2.537  0.0442 -0.4147 -0.8286
13100TIP3    H260792   0.357   0.486   2.485 -1.9750  1.6280 -0.0034
13101TIP3   OH260793   2.190   5.313  11.498 -0.2639  0.3778  0.3511
13101TIP3    H160794   2.217   5.402  11.476 -2.3237  1.5791  2.2699
13101TIP3    H260795   2.098   5.308  11.471  0.4940 -2.1836 -2.2627
13102TIP3   OH260796   4.933   6.509   1.078 -0.5066 -0.1185  0.1980
13102TIP3    H160797   4.879   6.474   1.149 -0.5061 -0.9035 -0.1703
13102TIP3    H260798   4.871   6.546   1.016 -0.4923  0.7758  0.7115
13103TIP3   OH260799   0.792   4.196  13.395  0.4015 -0.2200  0.2552
13103TIP3    H160800   0.752   4.283  13.393  1.1954  0.1528  0.1266
13103TIP3    H260801   0.812   4.176  13.304  0.4408 -0.4309  0.3089
13104TIP3   OH260802   6.812   3.290   1.917 -0.4759 -0.2827 -0.0066
13104TIP3    H160803   6.765   3.230   1.859 -0.9759 -1.8531  1.9059
13104TIP3    H260804   6.745   3.351   1.947 -0.2429  0.4545 -0.9529
13105TIP3   OH260805   4.676   0.425   1.256  0.4667 -0.4905  0.1918
13105TIP3    H160806   4.589   0.435   1.216  1.2747  0.1353 -1.4743
13105TIP3    H260807   4.712   0.347   1.215  1.2952  0.1337 -0.2810
13106TIP3   OH260808   1.315   5.750  11.384  0.2038 -0.0119 -0.4251
13106TIP3    H160809   1.261   5.715  11.454 -0.6979  0.9752 -0.5856
13106TIP3    H260810   1.325   5.843  11.406 -0.7597  0.5044 -1.9596
13107TIP3   OH260811   6.734   2.564   3.721  0.0074  0.2224 -0.8070
13107TIP3    H160812   6.784   2.491   3.759 -2.3148 -1.7148 -1.1940
13107TIP3    H260813   6.661   2.577   3.782 -0.5343  1.0689 -1.6089
13108TIP3   OH260814   2.618   5.549  11.739  0.0166 -0.1122 -0.4583
13108TIP3    H160815   2.612   5.633  11.785  0.9936  0.1141 -0.7332
13108TIP3    H260816   2.555   5.493  11.784  0.2148  0.4154  0.4987
13109TIP3   OH260817   0.190   5.590  13.394 -0.0252 -0.1826  0.0669
13109TIP3    H160818   0.138   5.526  13.346 -0.4783  0.7835 -0.7618
13109TIP3    H260819   0.140   5.605  13.475 -1.1102  0.8128 -0.7662
13110TIP3   OH260820   3.441   5.824  17.012 -0.4858 -0.5648 -0.1008
13110TIP3    H160821   3.505   5.895  17.009 -0.2968 -0.6302  1.4924
13110TIP3    H260822   3.365   5.861  17.055 -1.8396 -0.3070 -2.5428
13111TIP3   OH260823   1.844   1.032  11.348  0.3942  0.7077  0.1031
13111TIP3    H160824   1.832   0.983  11.429 -0.4591  1.9996  0.7880
13111TIP3    H260825   1.939   1.043  11.340  0.6992 -1.7893 -0.5668
13112TIP3   OH260826   3.763   5.725  12.977 -0.1638 -0.2918  0.1859
13112TIP3    H160827   3.808   5.698  13.057 -0.8691 -0.3227  0.5773
13112TIP3    H260828   3.672   5.700  12.991  0.0392 -2.1618 -1.4647
13113TIP3   OH260829   4.458   4.151  14.532 -0.0082 -0.1758 -0.5297
13113TIP3    H160830   4.520   4.210  14.576 -0.1785  0.0738 -0.6236
13113TIP3    H260831   4.373   4.194  14.541 -0.0468 -0.1098 -1.1095
13114TIP3   OH260832   5.117   3.655   3.990 -0.0459  0.1897  0.4346
13114TIP3    H160833   5.141   3.564   3.973 -1.9115 -0.2004 -0.3258
13114TIP3    H260834   5.115   3.696   3.904  0.3663  0.8472  0.7357
13115TIP3   OH260835   2.335   6.677  16.500  0.1230  0.4296 -0.3077
13115TIP3    H160836   2.261   6.738  16.506 -1.1424 -1.0034 -0.6812
13115TIP3    H260837   2.334   6.647  16.409 -0.6680 -1.7323  0.3489
13116TIP3   OH260838   6.519   0.351  12.319 -0.3984  0.4405 -0.1526
13116TIP3    H160839   6.425   0.367  12.326 -0.3208  0.9940 -0.3505
13116TIP3    H260840   6.537   0.352  12.225 -0.3668 -0.7227 -0.1732
13117TIP3   OH260841   0.765   1.145  15.056  0.2324 -0.2058 -0.1834
13117TIP3    H160842   0.678   1.123  15.088  0.6724  0.9673  2.0189
13117TIP3    H260843   0.763   1.124  14.962 -1.6677 -2.3306  0.2653
13118TIP3   OH260844   0.621   4.495  16.733 -0.4167  0.3596 -0.1291
13118TIP3    H160845   0.567   4.530  16.804 -0.5620 -0.5966  0.2574
13118TIP3    H260846   0.711   4.515  16.759 -0.3681 -1.2081  1.0707
13119TIP3   OH260847   5.884   4.792   1.340 -0.4338 -0.1745 -0.1468
13119TIP3    H160848   5.882   4.698   1.359  1.7563 -0.4092 -0.7430
13119TIP3    H260849   5.976   4.817   1.356 -1.2214  2.1446  1.2443
13120TIP3   OH260850   0.943   4.408   4.779 -0.6406 -0.1835  0.1326
13120TIP3    H160851   0.976   4.417   4.868 -0.6717  0.5274  0.0787
13120TIP3    H260852   1.013   4.363   4.732 -1.5761 -2.7843  1.0430
13121TIP3   OH260853   3.797   4.981  16.427 -0.3380  0.5681  0.0958
13121TIP3    H160854   3.766   4.964  16.516  2.4560 -0.2455  1.0155
13121TIP3    H260855   3.777   5.074  16.413 -0.9176  0.6886  1.5130
13122TIP3   OH260856   5.992   0.464   2.179 -0.0315  0.3403 -0.4344
13122TIP3    H160857   5.999   0.557   2.158 -0.8746  0.4535 -0.2117
13122TIP3    H260858   5.907   0.454   2.221 -0.2793 -0.6657 -1.1491
13123TIP3   OH260859   3.475   2.975   4.179 -0.3468  0.3849 -0.8939
13123TIP3    H160860   3.399   2.921   4.198 -1.0035  0.2661 -3.4709
13123TIP3    H260861   3.543   2.912   4.153  0.2543  0.5663  0.2079
13124TIP3   OH260862   3.181   3.490  15.790 -0.0556 -0.8001 -0.1998
13124TIP3    H160863   3.258   3.450  15.750 -0.5817 -0.5918 -1.4688
13124TIP3    H260864   3.203   3.496  15.883  1.9365  0.3130 -0.6701
13125TIP3   OH260865   4.018   2.187  14.148 -0.5572 -0.0293 -0.0920
13125TIP3    H160866   3.977   2.203  14.063  2.0647 -0.4148 -1.5455
13125TIP3    H260867   4.102   2.145  14.126  0.3067  0.0707  2.6806
13126TIP3   OH260868   3.411   4.102  14.572 -0.2153  0.3076  0.0172
13126TIP3    H160869   3.477   4.082  14.506 -1.2441  1.0076 -1.2717
13126TIP3    H260870   3.328   4.096  14.525 -0.9279  1.6519  1.0340
13127TIP3   OH260871   6.033   6.737  15.184  0.0787  0.2153 -0.1381
13127TIP3    H160872   6.088   6.803  15.141  0.3520 -0.5241 -0.9629
13127TIP3    H260873   6.095   6.679  15.228 -0.0488 -0.3955 -0.7457
13128TIP3   OH260874   3.744   6.435  12.275 -0.0851 -0.2870  0.7575
13128TIP3    H160875   3.681   6.417  12.206 -2.6319 -0.5911  2.9941
13128TIP3    H260876   3.778   6.522  12.255 -0.2268 -0.6347 -1.1756
13129TIP3   OH260877   5.562   0.917  15.591  0.5139 -0.1006  0.0059
13129TIP3    H160878   5.530   0.952  15.508  1.3394  0.2720 -0.1666
13129TIP3    H260879   5.513   0.965  15.658 -0.3726 -0.6181 -0.2646
13130TIP3   OH260880   2.372   0.742  12.314 -0.0683 -0.0133  0.5304
13130TIP3    H160881   2.293   0.774  12.271  0.7981  0.3918 -0.8180
13130TIP3    H260882   2.409   0.678  12.253  2.0529  1.7442 -0.1566
13131TIP3   OH260883   5.215   0.161   1.403  0.0330  0.0228 -0.3733
13131TIP3    H160884   5.168   0.087   1.363 -1.4384  0.7017  0.0590
13131TIP3    H260885   5.216   0.142   1.496 -0.5389  0.6427 -0.2353
13132TIP3   OH260886   2.022   4.188  14.812 -0.1680  0.4396 -0.0144
13132TIP3    H160887   1.937   4.218  14.780  0.2977  2.3313  0.4051
13132TIP3    H260888   2.042   4.111  14.759 -2.0831  0.0112 -0.1831
13133TIP3   OH260889   5.382   6.840  14.674  0.2338 -0.2749  0.4844
13133TIP3    H160890   5.436   6.828  14.596  1.7978 -0.6087  1.5848
13133TIP3    H260891   5.304   6.786  14.658  2.3880 -3.8291  0.8656
13134TIP3   OH260892   5.550   4.997   1.551  0.2446 -0.0214  0.2611
13134TIP3    H160893   5.481   4.933   1.569 -0.7917  1.2192  0.8930
13134TIP3    H260894   5.540   5.017   1.458  0.8042 -0.9915 -0.0303
13135TIP3   OH260895   6.020   3.941   0.977  0.1618  0.4707 -0.1968
13135TIP3    H160896   5.979   3.968   1.059  0.6308 -0.8021  0.4772
13135TIP3    H260897   6.055   3.854   0.995  2.1401  1.0158 -1.0783
13136TIP3   OH260898   4.807   6.784   3.238  0.0739  0.3687  0.7034
13136TIP3    H160899   4.730   6.822   3.195 -1.2710 -2.6268  0.1333
13136TIP3    H260900   4.833   6.849   3.303 -3.7444  1.1081  1.7921
13137TIP3   OH260901   4.083   6.591  14.425 -0.1881 -0.2669  0.9915
13137TIP3    H160902   4.143   6.620  14.357  0.7452 -1.1977  1.3784
13137TIP3    H260903   4.028   6.525  14.383  1.1482 -1.6913  1.3697
13138TIP3   OH260904   5.771   0.533   5.638  0.8826 -0.1745  0.1677
13138TIP3    H160905   5.836   0.555   5.571  1.5721  3.5034  1.7641
13138TIP3    H260906   5.821   0.532   5.720 -0.5708 -0.3512  1.0842
13139TIP3   OH260907   5.855   5.730   5.800  0.4790  0.6002  0.2601
13139TIP3    H160908   5.919   5.758   5.735  0.8688 -0.1609  0.2988
13139TIP3    H260909   5.847   5.635   5.787 -1.6121  0.8362 -0.5920
13140TIP3   OH260910   2.329   1.145  11.630  0.5049  0.2433 -0.2369
13140TIP3    H160911   2.417   1.170  11.659  0.1195  0.9615  0.3502
13140TIP3    H260912   2.310   1.202  11.556  0.2557  0.5742  0.0828
13141TIP3   OH260913   1.701   0.182  10.265 -0.5863  0.4747 -0.7094
13141TIP3    H160914   1.668   0.260  10.220  0.0149  2.5213  2.0847
13141TIP3    H260915   1.784   0.210  10.303 -0.8920 -1.1699  1.3394
13142TIP3   OH260916   6.084   1.871  12.596  0.0890 -0.2828  0.2320
13142TIP3    H160917   6.154   1.815  12.630  0.8766  0.4397 -0.1649
13142TIP3    H260918   6.004   1.820  12.609  0.7740 -1.4398 -0.0094
13143TIP3   OH260919   1.775   2.965   0.634 -0.3253  0.2428  0.0935
13143TIP3    H160920   1.808   2.988   0.548  0.6488 -0.3626  0.2965
13143TIP3    H260921   1.683   2.943   0.619 -0.3199  0.7201 -0.6847
13144TIP3   OH260922   6.637   4.686   6.377  0.2871  0.2682 -0.1272
13144TIP3    H160923   6.666   4.760   6.324  0.8865  0.2797  0.2046
13144TIP3    H260924   6.707   4.674   6.441 -0.3767  0.1914  0.5965
13145TIP3   OH260925   6.097   5.360  16.009  0.0941  0.1095  0.0177
13145TIP3    H160926   6.002   5.367  16.004  0.0361  0.7096  1.6201
13145TIP3    H260927   6.117   5.275  15.971 -1.2333 -0.7367  1.1434
13146TIP3   OH260928   0.470   1.158   5.609  0.1124  0.3748  0.4044
13146TIP3    H160929   0.383   1.178   5.573 -1.2574 -2.9031  1.4909
13146TIP3    H260930   0.487   1.229   5.671 -2.9041  0.0247  1.8264
13147TIP3   OH260931   4.197   4.804  12.450  0.2143  0.8016 -0.3854
13147TIP3    H160932   4.214   4.824  12.358  0.5960  1.0782 -0.2573
13147TIP3    H260933   4.105   4.827  12.463 -0.3297 -0.7939 -1.1081
13148TIP3   OH260934   6.275   3.689  11.112 -0.0072 -0.2080  0.1455
13148TIP3    H160935   6.271   3.664  11.020 -0.6117  2.3885 -0.6328
13148TIP3    H260936   6.337   3.762  11.114 -2.3092  1.8791  1.1491
13149TIP3   OH260937   6.392   5.409   3.186 -0.2589 -0.6254  0.1392
13149TIP3    H160938   6.326   5.444   3.246  0.0224  0.4309 -0.1324
13149TIP3    H260939   6.347   5.405   3.101 -0.6011 -1.9381  0.3650
13150TIP3   OH260940   3.442   6.622  12.335  0.3660 -0.3629  0.4773
13150TIP3    H160941   3.353   6.595  12.311 -0.1232  0.7974  0.9181
13150TIP3    H260942   3.479   6.657  12.254 -0.1894  0.7103  0.6749
13151TIP3   OH260943   4.034   3.717  15.176  0.5912 -0.1305 -0.4057
13151TIP3    H160944   3.966   3.735  15.241 -0.1725 -0.2273 -1.1632
13151TIP3    H260945   4.099   3.664  15.223 -0.0622 -0.3908  0.2144
13152TIP3   OH260946   4.254   2.237   4.954 -0.2831  0.2562  0.4576
13152TIP3    H160947   4.251   2.291   5.033 -0.3752  1.6955 -0.4993
13152TIP3    H260948   4.188   2.169   4.970 -1.1657  1.2367  1.1170
13153TIP3   OH260949   6.670   3.185  12.670 -0.0154  0.0880 -0.1127
13153TIP3    H160950   6.737   3.207  12.735  0.0862  3.3868 -1.1178
13153TIP3    H260951   6.705   3.220  12.588 -2.4811  0.9640 -0.8691
13154TIP3   OH260952   1.129   6.599  14.661  0.1589  1.3409  0.4481
13154TIP3    H160953   1.085   6.645  14.590 -2.0984 -1.1757  0.0325
13154TIP3    H260954   1.156   6.515  14.623  0.6774  0.7178  2.0708
13155TIP3   OH260955   5.113   4.515   2.992  0.0485 -0.0204 -0.2538
13155TIP3    H160956   5.138   4.437   2.943 -1.0145 -0.5438  0.0127
13155TIP3    H260957   5.120   4.490   3.084  1.0021  0.6258 -0.1436
13156TIP3   OH260958   6.600   6.614   0.307 -0.1529  0.7588  0.6537
13156TIP3    H160959   6.528   6.675   0.289  0.5026  1.1632 -0.7687
13156TIP3    H260960   6.574   6.534   0.262  0.3306  0.9472  0.0282
13157TIP3   OH260961   5.567   3.167  15.779  0.0666  0.0893  0.3909
13157TIP3    H160962   5.571   3.153  15.684 -1.2252  0.9607  0.1806
13157TIP3    H260963   5.473   3.170  15.798  0.3173  0.0340  1.6868
13158TIP3   OH260964   5.614   6.739   2.745 -0.4962 -0.6677 -0.1384
13158TIP3    H160965   5.525   6.764   2.720  0.2693  1.5004 -0.8772
13158TIP3    H260966   5.661   6.734   2.662  0.6632  0.7616  0.3917
13159TIP3   OH260967   2.227   0.767   2.229 -0.1364 -0.0996  0.4754
13159TIP3    H160968   2.193   0.724   2.308 -0.6878 -0.4559  0.0528
13159TIP3    H260969   2.245   0.695   2.169 -2.5126  0.2721 -0.8265
13160TIP3   OH260970   6.477   4.846   3.298  0.0631 -0.0489  0.1540
13160TIP3    H160971   6.420   4.836   3.222 -1.5212  1.5726  1.0569
13160TIP3    H260972   6.503   4.938   3.297  0.3059 -0.0861  1.3807
13161TIP3   OH260973   6.590   5.123   2.436  0.2148  0.6264 -0.2702
13161TIP3    H160974   6.587   5.057   2.505  0.6280 -0.5609 -1.3691
13161TIP3    H260975   6.677   5.162   2.444  0.3373  0.3467 -0.2576
13162TIP3   OH260976   0.626   1.822   5.439 -0.0121 -0.2528 -0.1637
13162TIP3    H160977   0.695   1.884   5.415  0.3453  0.8708  3.2293
13162TIP3    H260978   0.550   1.877   5.456 -0.0264 -0.7816  1.7358
13163TIP3   OH260979   1.967   4.532  15.246 -0.0611  0.0990  0.7997
13163TIP3    H160980   1.885   4.549  15.292 -0.3493 -0.2459  0.4222
13163TIP3    H260981   1.942   4.521  15.155  0.0720 -2.2484  0.9753
13164TIP3   OH260982   3.686   1.455  11.584  0.5804  0.6935 -0.2034
13164TIP3    H160983   3.770   1.410  11.574  1.4313  2.3530 -0.9205
13164TIP3    H260984   3.630   1.391  11.628  1.8227 -0.9252 -0.8494
13165TIP3   OH260985   3.472   2.611  13.521  0.9883  0.6493  0.0781
13165TIP3    H160986   3.486   2.583  13.611  0.8193  0.8119  0.1577
13165TIP3    H260987   3.463   2.530  13.471  1.1560  0.5591  0.1951
13166TIP3   OH260988   6.445   5.522   5.508 -0.8718  0.5343  0.2516
13166TIP3    H160989   6.458   5.507   5.602 -0.4508  1.4279  0.3476
13166TIP3    H260990   6.351   5.538   5.499 -1.0475 -0.4064  0.3941
13167TIP3   OH260991   4.960   0.918  12.107 -0.0407  0.1034  0.2646
13167TIP3    H160992   4.872   0.889  12.132 -0.4549  2.2874  1.5874
13167TIP3    H260993   5.013   0.906  12.186  0.7481 -0.6140 -0.3415
13168TIP3   OH260994   5.326   4.030  11.739  0.2664 -0.3805 -0.4648
13168TIP3    H160995   5.321   3.937  11.764 -0.4144 -0.1502  0.2777
13168TIP3    H260996   5.331   4.077  11.822 -2.3169  0.4210 -0.6852
13169TIP3   OH260997   4.468   0.510  11.605 -0.1576  0.5565 -0.1188
13169TIP3    H160998   4.550   0.462  11.613  0.6187  1.8566 -0.0016
13169TIP3    H260999   4.456   0.520  11.510 -0.6018 -0.3047 -0.1630
13170TIP3   OH261000   1.000   5.127   0.184  0.5157 -0.1083  0.1076
13170TIP3    H161001   1.079   5.163   0.225 -0.7191  1.3325  1.3663
13170TIP3    H261002   0.935   5.196   0.193 -1.7688 -2.2868  1.8763
13171TIP3   OH261003   1.721   0.800   1.081  0.4256  0.1266  0.0651
13171TIP3    H161004   1.810   0.813   1.047  0.2083  0.1435 -0.5169
13171TIP3    H261005   1.704   0.877   1.135  1.2549 -0.5038  1.2669
13172TIP3   OH261006   4.254   4.340  17.181  0.7342 -0.3966  0.1755
13172TIP3    H161007   4.186   4.298  17.234  0.9807 -1.3699 -0.2495
13172TIP3    H261008   4.215   4.348  17.094  0.8088 -0.0268  0.1744
13173TIP3   OH261009   2.350   6.797   6.252  0.0608 -0.1933  0.0772
13173TIP3    H161010   2.293   6.741   6.201  1.4111 -0.5609 -1.0940
13173TIP3    H261011   2.349   6.760   6.340 -0.0369 -1.3138 -0.3846
13174TIP3   OH261012   4.867   0.260  11.619 -0.0862  0.1356  0.2384
13174TIP3    H161013   4.846   0.339  11.669  1.4071  0.3943  0.5139
13174TIP3    H261014   4.960   0.269  11.598  0.0998 -1.4988  0.2006
13175TIP3   OH261015   4.552   4.106   4.102  0.2867 -0.1305  0.7113
13175TIP3    H161016   4.561   4.117   4.008 -0.7806 -0.0201  0.6124
13175TIP3    H261017   4.623   4.046   4.126  0.9129  0.2892 -0.0661
13176TIP3   OH261018   4.190   1.653   3.890 -0.0538  0.0594 -0.0671
13176TIP3    H161019   4.234   1.617   3.967 -0.8619  2.3082  1.5570
13176TIP3    H261020   4.257   1.708   3.848 -0.1737  0.3981  0.1796
13177TIP3   OH261021   5.697   2.301   5.573  0.4464 -0.2078 -0.2662
13177TIP3    H161022   5.623   2.361   5.565  0.7245  0.1574 -0.1358
13177TIP3    H261023   5.688   2.263   5.660  0.4732 -0.0797 -0.2074
13178TIP3   OH261024   1.309   6.495   1.184  0.1830 -0.1582 -0.9839
13178TIP3    H161025   1.256   6.438   1.127  1.1371 -0.3462 -1.7091
13178TIP3    H261026   1.399   6.468   1.167  0.4976 -0.3287  0.7539
13179TIP3   OH261027   5.057   1.084  14.387  0.1290  0.1956 -0.2645
13179TIP3    H161028   4.975   1.043  14.415  0.5348  0.0008  0.6948
13179TIP3    H261029   5.082   1.140  14.461 -0.1025  1.7203 -1.3030
13180TIP3   OH261030   3.198   5.737   4.429 -0.3517 -0.2611  0.0211
13180TIP3    H161031   3.162   5.820   4.459  1.3174  1.1155 -1.5039
13180TIP3    H261032   3.266   5.715   4.492  1.5932  1.4379 -1.3428
13181TIP3   OH261033   4.829   2.124  15.722 -0.2995  0.0553 -0.4789
13181TIP3    H161034   4.813   2.091  15.810  0.4103 -0.0140 -0.3676
13181TIP3    H261035   4.816   2.048  15.665 -0.8426  0.1204 -0.4498
13182TIP3   OH261036   0.443   4.542  16.928 -0.0548  0.9102 -0.0831
13182TIP3    H161037   0.395   4.624  16.925 -0.8746  0.4781  0.7825
13182TIP3    H261038   0.410   4.497  17.006  0.6084 -0.0955 -0.3586
13183TIP3   OH261039   4.591   3.933   4.908 -0.7473  0.2124  0.3249
13183TIP3    H161040   4.659   3.938   4.841  0.4625 -0.2610  1.4650
13183TIP3    H261041   4.575   3.839   4.919 -0.6965  0.2688  0.9170
13184TIP3   OH261042   2.798   3.684   1.034  0.3496 -0.4207 -0.4403
13184TIP3    H161043   2.842   3.750   0.980 -0.0729  1.8324  1.7681
13184TIP3    H261044   2.722   3.730   1.071 -1.1259 -2.7756 -0.3695
13185TIP3   OH261045   1.560   6.083  15.376  0.1797 -0.6589  0.4662
13185TIP3    H161046   1.626   6.043  15.433  0.1040 -0.2135  0.8741
13185TIP3    H261047   1.552   6.172  15.408 -0.3564 -0.5998  0.1795
13186TIP3   OH261048   1.067   1.523   1.840 -0.0466  0.5659  0.4443
13186TIP3    H161049   1.102   1.513   1.752  0.1123  0.2786  0.5381
13186TIP3    H261050   1.144   1.523   1.897 -0.1761  0.2354  0.6243
13187TIP3   OH261051   4.557   6.311   3.145 -0.0957  0.5365 -0.3555
13187TIP3    H161052   4.645   6.343   3.164  0.4351 -1.1848  0.2558
13187TIP3    H261053   4.505   6.337   3.221  0.4207 -0.3780  0.3237
13188TIP3   OH261054   5.604   5.051   0.074  0.2007  0.0447  0.3849
13188TIP3    H161055   5.649   5.119   0.124  0.1149 -0.0038  0.5277
13188TIP3    H261056   5.604   5.084  -0.016  1.5912 -0.5028  0.1640
13189TIP3   OH261057   2.783   2.693   1.724 -0.4856 -0.8405  0.6397
13189TIP3    H161058   2.861   2.746   1.737 -1.5148  0.6321  0.9709
13189TIP3    H261059   2.815   2.614   1.679  1.0652  0.0695  0.0876
13190TIP3   OH261060   5.884   0.558   1.328  0.5919 -0.0358  0.1280
13190TIP3    H161061   5.934   0.481   1.354  0.0121 -0.6194 -0.4360
13190TIP3    H261062   5.936   0.632   1.358  1.3322 -0.6420  0.3664
13191TIP3   OH261063   4.215   4.506   2.073  0.3742 -0.4453 -0.3329
13191TIP3    H161064   4.273   4.536   2.143  0.9152  0.3840 -1.1055
13191TIP3    H261065   4.154   4.578   2.060  0.9545 -0.1267 -1.4253
13192TIP3   OH261066   4.125   3.026  17.049  0.2267 -0.4195  0.0462
13192TIP3    H161067   4.086   2.983  17.125  0.1862  0.9068  0.8019
13192TIP3    H261068   4.133   2.956  16.984 -0.0616 -1.5079  1.1346
13193TIP3   OH261069   3.002   3.692   3.590  0.5489  0.0605 -0.4132
13193TIP3    H161070   3.045   3.774   3.565 -1.2411  1.8505  1.9321
13193TIP3    H261071   3.038   3.672   3.677 -0.2911 -0.6856 -0.2281
13194TIP3   OH261072   4.996   6.055   4.231 -0.0900  0.1698  0.1790
13194TIP3    H161073   4.949   5.972   4.224 -2.3449  1.0677  2.8094
13194TIP3    H261074   4.945   6.117   4.180 -1.5021  0.9719  2.3939
13195TIP3   OH261075   6.622   5.064  13.539 -0.1869 -0.2948  0.4016
13195TIP3    H161076   6.653   5.153  13.555 -0.0605 -0.5404  1.6515
13195TIP3    H261077   6.665   5.037  13.458  0.1077  0.6235  0.2438
13196TIP3   OH261078   3.984   0.418   3.207  0.5668  0.3620  0.2540
13196TIP3    H161079   4.061   0.367   3.232 -0.2559 -1.0660  0.0176
13196TIP3    H261080   3.910   0.370   3.246 -0.2776  1.1349 -0.3508
13197TIP3   OH261081   0.582   3.132   2.984 -0.1146  0.6351 -0.1540
13197TIP3    H161082   0.561   3.212   3.031 -4.5654 -0.2710 -0.1329
13197TIP3    H261083   0.627   3.161   2.905 -1.1775  3.1303  0.0731
13198TIP3   OH261084   1.851   4.560  12.733  0.4659  0.1847  0.0431
13198TIP3    H161085   1.877   4.642  12.775  1.5200  0.6263 -1.3756
13198TIP3    H261086   1.932   4.510  12.724  0.2028 -0.0907 -1.0108
13199TIP3   OH261087   4.101   0.316   0.577 -0.6029  0.2903 -0.0070
13199TIP3    H161088   4.083   0.238   0.525  1.8331 -0.2639 -0.1275
13199TIP3    H261089   4.151   0.284   0.652 -0.9518  1.5569  0.8014
13200TIP3   OH261090   5.869   6.001   2.271  0.0114 -0.1896  0.2773
13200TIP3    H161091   5.937   5.933   2.270  0.5105  0.2720 -2.0657
13200TIP3    H261092   5.908   6.072   2.323  2.1884  0.7607 -2.3506
13201TIP3   OH261093   6.492   5.428  16.914  0.0396 -0.1580  0.0098
13201TIP3    H161094   6.576   5.469  16.936  0.0094 -0.9894  1.8350
13201TIP3    H261095   6.426   5.484  16.955 -0.3143  0.4381 -1.3359
13202TIP3   OH261096   1.399   5.230   3.108  0.0621  0.3562  0.2311
13202TIP3    H161097   1.430   5.284   3.035  0.4471 -0.1332  0.0251
13202TIP3    H261098   1.410   5.140   3.078  0.6328  0.1397  1.0535
13203TIP3   OH261099   0.559   1.699  11.702 -0.4438 -0.3993  0.6583
13203TIP3    H161100   0.486   1.740  11.655  0.1179  0.0948  0.1938
13203TIP3    H261101   0.599   1.771  11.752 -0.0998 -0.5976  0.6724
13204TIP3   OH261102   1.138   1.946  12.000 -0.3241  0.3768  0.0598
13204TIP3    H161103   1.106   1.864  11.962  1.6488  0.3599 -1.6904
13204TIP3    H261104   1.219   1.921  12.044 -0.6313  1.1106  1.0716
13205TIP3   OH261105   0.848   4.789  14.113 -0.3450 -0.1213  0.0741
13205TIP3    H161106   0.849   4.883  14.133 -1.1100  0.3364 -1.8061
13205TIP3    H261107   0.931   4.773  14.068 -1.1996  0.1948 -1.6798
13206TIP3   OH261108   3.523   0.577   1.385  0.1857  0.0456 -1.0935
13206TIP3    H161109   3.579   0.654   1.379  0.7215 -0.2895 -0.5680
13206TIP3    H261110   3.493   0.577   1.476 -0.3943  0.0317 -1.2825
13207TIP3   OH261111   3.561   6.478   5.169 -0.4020 -0.3651  0.3247
13207TIP3    H161112   3.578   6.391   5.133 -1.7375 -1.2383  1.6387
13207TIP3    H261113   3.636   6.496   5.226 -0.2516 -0.7828  0.2568
13208TIP3   OH261114   4.140   2.595  13.644  0.5352  0.5320  0.0854
13208TIP3    H161115   4.127   2.512  13.597 -0.4285  1.1707 -0.8431
13208TIP3    H261116   4.113   2.576  13.734 -2.0925  0.4128 -0.6309
13209TIP3   OH261117   6.825   6.286   0.248 -0.1809  0.0110  0.1131
13209TIP3    H161118   6.737   6.249   0.258  0.3801 -1.0170  1.5001
13209TIP3    H261119   6.875   6.218   0.203 -0.2049  0.8377 -1.2512
13210TIP3   OH261120   3.383   2.375  12.091  0.5549  0.1886 -0.1137
13210TIP3    H161121   3.438   2.324  12.032  1.5353 -0.4214  1.2914
13210TIP3    H261122   3.377   2.461  12.049 -2.2443 -1.2842 -3.2274
13211TIP3   OH261123   2.871   6.190   1.020 -0.0912  0.4857 -0.2364
13211TIP3    H161124   2.845   6.100   0.997  0.2722  0.3242 -0.0213
13211TIP3    H261125   2.921   6.180   1.102 -1.8282  1.1057  0.9526
13212TIP3   OH261126   6.046   1.508  14.655 -0.1664 -0.4796 -0.3552
13212TIP3    H161127   5.992   1.429  14.653  0.3988 -0.9357  0.8877
13212TIP3    H261128   6.096   1.505  14.573 -2.3053  0.2022 -1.7486
13213TIP3   OH261129   0.188   6.217  15.159 -0.4937 -0.2367  0.6923
13213TIP3    H161130   0.149   6.225  15.246  0.6227  0.0498  1.1820
13213TIP3    H261131   0.270   6.266  15.164  0.3478 -1.4981 -0.0455
13214TIP3   OH261132   5.525   1.408  10.837  0.1756 -0.6572  0.4648
13214TIP3    H161133   5.585   1.333  10.832  1.6468  0.4226  1.0046
13214TIP3    H261134   5.477   1.395  10.918  1.0871 -0.5626  1.0302
13215TIP3   OH261135   4.956   1.850   0.099  0.6878  0.3421  0.8068
13215TIP3    H161136   5.018   1.778   0.112  1.5800  1.4164  3.0483
13215TIP3    H261137   5.010   1.922   0.065 -0.2082  0.0176 -1.4937
13216TIP3   OH261138   3.035   6.434  13.713 -0.1811 -0.2579 -0.3593
13216TIP3    H161139   3.130   6.428  13.703  0.1498  2.0206  0.7868
13216TIP3    H261140   3.020   6.426  13.808 -1.0759 -0.2177 -0.4884
13217TIP3   OH261141   6.311   0.154   2.272  0.5390 -0.0789  0.1794
13217TIP3    H161142   6.369   0.166   2.348 -1.5155 -0.5372  1.9083
13217TIP3    H261143   6.303   0.242   2.235  1.8810  0.0879  0.2146
13218TIP3   OH261144   3.757   2.494  10.421 -0.1550  0.3618  0.0274
13218TIP3    H161145   3.680   2.441  10.400  1.0077 -0.9302 -1.2614
13218TIP3    H261146   3.724   2.583  10.427 -2.0121 -0.3343  1.1621
13219TIP3   OH261147   5.824   0.910  11.805 -0.3345 -0.4837  0.3373
13219TIP3    H161148   5.791   0.934  11.891  1.0873 -0.2002  0.8364
13219TIP3    H261149   5.840   0.816  11.811  0.1597 -0.3893  0.5277
13220TIP3   OH261150   0.970   4.037  14.155  0.4206 -0.5812  0.4136
13220TIP3    H161151   0.882   3.999  14.154  0.4983 -0.7603 -0.3965
13220TIP3    H261152   1.027   3.965  14.180  0.5522 -1.0114 -0.9932
13221TIP3   OH261153   1.309   4.672  15.178  0.5505  0.2102  0.2494
13221TIP3    H161154   1.358   4.722  15.113  0.8703  1.4104  1.3760
13221TIP3    H261155   1.223   4.659  15.138  0.8753  0.5498 -0.5795
13222TIP3   OH261156   2.672   6.407  15.055  0.3034 -0.2653  0.2953
13222TIP3    H161157   2.655   6.486  15.107 -0.1714 -1.6746  2.4260
13222TIP3    H261158   2.764   6.415  15.028  0.8579  0.1420  2.1580
13223TIP3   OH261159   0.138   2.638  16.108 -0.0733  0.0803  0.0098
13223TIP3    H161160   0.168   2.548  16.121 -0.5274  0.0127  0.6584
13223TIP3    H261161   0.127   2.673  16.196 -0.2294  0.6601 -0.2303
13224TIP3   OH261162   3.445   6.152   1.082 -0.9550  0.2100  0.2435
13224TIP3    H161163   3.425   6.230   1.134  1.7177  0.6382  0.7733
13224TIP3    H261164   3.363   6.102   1.081 -2.2114  2.1198  1.4637
13225TIP3   OH261165   2.839   6.601  15.942  0.0498 -0.1331 -0.2724
13225TIP3    H161166   2.922   6.572  15.905  0.2988  0.4216 -0.1555
13225TIP3    H261167   2.864   6.660  16.013 -0.4124 -1.1120  0.7426
13226TIP3   OH261168   5.116   0.241  11.302 -0.0688 -0.0979  0.4093
13226TIP3    H161169   5.157   0.303  11.362 -3.1551  1.8544  0.7001
13226TIP3    H261170   5.129   0.278  11.215 -2.9961  1.8869  0.6648
13227TIP3   OH261171   6.542   2.397  15.901 -0.3671 -1.1213  0.4503
13227TIP3    H161172   6.630   2.382  15.868 -0.0422 -0.3454  0.9207
13227TIP3    H261173   6.555   2.451  15.979 -1.3588  1.0307 -0.7638
13228TIP3   OH261174   4.628   6.320  14.860  0.2260  0.1506 -0.1070
13228TIP3    H161175   4.630   6.319  14.956 -1.3730 -0.4608 -0.0405
13228TIP3    H261176   4.578   6.241  14.837  0.7081  0.2196 -1.4515
13229TIP3   OH261177   4.722   1.818  13.001 -0.0562 -0.6022  0.6778
13229TIP3    H161178   4.663   1.752  12.966 -0.4745 -0.9414  1.9691
13229TIP3    H261179   4.805   1.802  12.957 -1.1787  0.6960 -2.1441
13230TIP3   OH261180   5.654   5.873  17.093  0.0176  0.2186  0.2058
13230TIP3    H161181   5.587   5.830  17.039 -0.9162 -0.0079  1.5044
13230TIP3    H261182   5.656   5.822  17.174 -1.0411  2.4857  1.7692
13231TIP3   OH261183   3.927   1.937   3.322 -0.1082  0.2377  0.4964
13231TIP3    H161184   3.887   1.964   3.239  0.6464  0.4507  0.1911
13231TIP3    H261185   4.015   1.975   3.319  0.2606 -0.5729  0.9694
13232TIP3   OH261186   3.786   1.483   0.130 -0.3401  0.6730  0.3713
13232TIP3    H161187   3.723   1.513   0.064 -0.6825  0.8817  0.7914
13232TIP3    H261188   3.805   1.561   0.182  1.2824  0.9537 -0.5469
13233TIP3   OH261189   5.521   2.618   5.807  0.1671  0.1912 -0.3672
13233TIP3    H161190   5.598   2.646   5.758  0.2404  2.0995  0.7358
13233TIP3    H261191   5.491   2.539   5.762  2.6996 -0.5720 -0.8676
13234TIP3   OH261192   0.325   2.277   1.527  0.1660  0.1633 -0.0605
13234TIP3    H161193   0.384   2.349   1.550  0.8068 -0.3076 -0.2104
13234TIP3    H261194   0.374   2.198   1.548  0.6593 -0.3020 -2.6226
13235TIP3   OH261195   5.646   3.136  13.388 -0.0930 -0.4422  0.4727
13235TIP3    H161196   5.737   3.124  13.416  0.6232 -0.3644 -1.6504
13235TIP3    H261197   5.606   3.187  13.458  1.0829 -1.7346  2.1551
13236TIP3   OH261198   0.908   0.561  14.753 -0.1520  0.6776  0.0150
13236TIP3    H161199   0.982   0.507  14.778 -0.5410  0.8519  1.6907
13236TIP3    H261200   0.831   0.507  14.771 -0.4778  0.4346 -1.8494
13237TIP3   OH261201   4.074   5.335  16.262 -0.0435  0.5573 -0.1608
13237TIP3    H161202   4.059   5.288  16.344 -0.1601 -1.6196 -1.3458
13237TIP3    H261203   4.065   5.268  16.195  0.7994  2.1276 -1.9164
13238TIP3   OH261204   2.802   2.322   2.753 -0.1380 -0.2814 -0.1031
13238TIP3    H161205   2.746   2.300   2.827 -0.3914 -0.9902 -0.4999
13238TIP3    H261206   2.891   2.324   2.789  0.0250 -2.7835 -0.1864
13239TIP3   OH261207   5.316   1.654   3.755 -0.4075  0.5547  0.0627
13239TIP3    H161208   5.384   1.616   3.699  0.7013  1.6989  0.5755
13239TIP3    H261209   5.244   1.674   3.695  0.5991  1.3814 -0.9159
13240TIP3   OH261210   0.091   5.012   1.360  0.0621  0.0488  0.3838
13240TIP3    H161211   0.146   5.085   1.331 -0.9718  0.8106  0.2796
13240TIP3    H261212   0.031   5.051   1.423 -1.9463 -0.2017 -1.2570
13241TIP3   OH261213   0.506   6.455  15.554 -0.2384 -0.2716  0.3121
13241TIP3    H161214   0.557   6.532  15.578 -1.4820  0.2669  1.3936
13241TIP3    H261215   0.538   6.431  15.467  2.1583 -0.2818  1.1434
13242TIP3   OH261216   4.401   4.307   0.203  0.4790 -0.3501  0.5170
13242TIP3    H161217   4.381   4.380   0.262 -0.6441 -1.1001  1.0840
13242TIP3    H261218   4.351   4.326   0.123  2.2381  0.8255 -0.3834
13243TIP3   OH261219   5.451   3.468   5.238 -0.6945 -0.3547  0.4616
13243TIP3    H161220   5.524   3.526   5.215 -0.7465 -0.8241 -0.9725
13243TIP3    H261221   5.401   3.517   5.303  0.5926  0.1973  1.0853
13244TIP3   OH261222   3.010   6.241   3.976  0.2158  0.2339 -0.6027
13244TIP3    H161223   2.945   6.215   4.041  0.8548 -1.7148 -0.6916
13244TIP3    H261224   2.960   6.252   3.895 -0.0750 -0.8350 -0.5769
13245TIP3   OH261225   6.470   1.174   1.015  0.3576 -0.0932 -0.9979
13245TIP3    H161226   6.452   1.099   0.959 -0.0507  1.3752 -2.9317
13245TIP3    H261227   6.414   1.162   1.091 -0.6894 -1.0650 -1.9020
13246TIP3   OH261228   1.145   0.727   2.119 -0.1894  0.2273 -0.1851
13246TIP3    H161229   1.124   0.792   2.187 -0.8115  0.3523 -0.4939
13246TIP3    H261230   1.073   0.734   2.056 -0.4216 -0.9638 -0.0747
13247TIP3   OH261231   0.824   1.401  14.936 -0.0755 -0.4692  0.3042
13247TIP3    H161232   0.769   1.478  14.949  0.6989  0.6937 -2.4861
13247TIP3    H261233   0.788   1.336  14.995 -3.1773  0.8657  0.1038
13248TIP3   OH261234   1.120   0.892  16.618  0.1215  0.2975  0.2385
13248TIP3    H161235   1.171   0.931  16.547  1.0307  1.4501  1.4798
13248TIP3    H261236   1.175   0.821  16.651  1.1713  1.7639  1.8090
13249TIP3   OH261237   6.332   1.380   3.607  0.7243  0.0120 -0.1951
13249TIP3    H161238   6.396   1.317   3.574  0.9252  0.9181 -1.5909
13249TIP3    H261239   6.374   1.418   3.684  1.0529 -0.7447  0.0168
13250TIP3   OH261240   5.064   1.900  14.720 -0.6127 -0.0515  0.0306
13250TIP3    H161241   5.019   1.939  14.795  0.8230  0.8615  0.4660
13250TIP3    H261242   5.150   1.877  14.754 -0.8343 -2.0923 -0.6805
13251TIP3   OH261243   2.459   3.188   5.289 -0.5236 -0.5044 -0.0738
13251TIP3    H161244   2.489   3.166   5.377  1.5802 -0.9101 -0.8424
13251TIP3    H261245   2.397   3.259   5.302  0.1573 -0.1879  1.6941
13252TIP3   OH261246   4.642   3.306   0.727 -0.2523  0.4208  0.1868
13252TIP3    H161247   4.605   3.294   0.814  0.1193  0.4258  0.3453
13252TIP3    H261248   4.651   3.217   0.692  0.9204  0.3241  0.7051
13253TIP3   OH261249   0.256   5.924   1.913  0.7076  0.6537  0.0068
13253TIP3    H161250   0.222   5.892   1.997 -1.4172  0.3536 -0.8945
13253TIP3    H261251   0.248   6.019   1.918 -0.9651  0.5728 -0.3966
13254TIP3   OH261252   4.258   0.382  10.457 -0.1042 -0.2520 -0.0573
13254TIP3    H161253   4.350   0.393  10.431  0.2265 -2.8715 -0.2674
13254TIP3    H261254   4.257   0.302  10.508 -2.4714 -0.9624 -1.0903
13255TIP3   OH261255   5.270   1.166  11.236 -0.4363 -0.3407 -0.1856
13255TIP3    H161256   5.253   1.118  11.317 -0.2775 -2.8313 -1.5477
13255TIP3    H261257   5.191   1.152  11.182  0.2877 -0.4487 -1.2504
13256TIP3   OH261258   4.785   5.732  15.968 -0.8015  0.1307  0.5007
13256TIP3    H161259   4.830   5.746  15.885 -1.0888 -0.0078  0.3182
13256TIP3    H261260   4.838   5.779  16.032 -0.1760 -0.3635  0.3602
13257TIP3   OH261261   2.351   1.610  16.051 -0.6645  0.2124 -0.0920
13257TIP3    H161262   2.328   1.700  16.030 -2.8151 -0.1885  0.2545
13257TIP3    H261263   2.444   1.612  16.070 -0.4305  2.1378 -1.2261
13258TIP3   OH261264   1.679   0.598   4.993  0.2662 -0.2254 -0.1486
13258TIP3    H161265   1.614   0.572   4.927  0.2441  1.5820 -0.8879
13258TIP3    H261266   1.685   0.693   4.985  1.5086 -0.1416  1.3298
13259TIP3   OH261267   5.043   2.085  13.737  0.0298  0.4256  0.1585
13259TIP3    H161268   5.078   2.037  13.662  0.2253  0.6632  0.0944
13259TIP3    H261269   5.056   2.026  13.811 -0.8475 -0.1086 -0.1084
13260TIP3   OH261270   1.200   2.582   4.785 -0.1537  0.3923  0.3166
13260TIP3    H161271   1.206   2.490   4.808 -1.0590  0.6399  1.6883
13260TIP3    H261272   1.123   2.614   4.832 -1.6586  1.1932 -2.4860
13261TIP3   OH261273   5.216   4.952  12.022  0.0922 -0.1109  0.2404
13261TIP3    H161274   5.309   4.958  11.997  0.3655  1.3283  1.4915
13261TIP3    H261275   5.170   4.995  11.950  0.6099  1.1472  0.6184
13262TIP3   OH261276   4.953   4.496  15.415 -0.1315 -0.1102 -0.5993
13262TIP3    H161277   4.893   4.500  15.489  1.0036  0.8122  0.3174
13262TIP3    H261278   5.009   4.421  15.432  0.0310  0.0084 -0.6076
13263TIP3   OH261279   0.759   1.445  10.721 -0.3918  0.3890 -0.4752
13263TIP3    H161280   0.685   1.463  10.664 -1.4108  1.7585  1.1631
13263TIP3    H261281   0.739   1.359  10.759 -0.1227 -0.1464 -1.5235
13264TIP3   OH261282   5.624   6.691  14.809  0.1573 -0.6027  0.7432
13264TIP3    H161283   5.637   6.602  14.843 -0.7156 -1.3110 -0.6798
13264TIP3    H261284   5.667   6.691  14.724 -1.4344 -0.2732 -0.0979
13265TIP3   OH261285   5.917   2.593  13.728  0.0770  0.3186  0.1588
13265TIP3    H161286   5.987   2.633  13.676  2.3781 -0.9595  2.0653
13265TIP3    H261287   5.860   2.666  13.752  1.4317  1.6349 -0.4394
13266TIP3   OH261288   1.383   2.398  12.635 -0.8210  0.5796  0.2161
13266TIP3    H161289   1.318   2.465  12.612  0.1217  1.7160  0.7279
13266TIP3    H261290   1.375   2.390  12.730 -0.1522  0.7978  0.2915
13267TIP3   OH261291   5.789   6.688  13.965  0.1382  0.6700  0.6573
13267TIP3    H161292   5.780   6.620  13.898 -1.9646 -0.0081  1.5641
13267TIP3    H261293   5.841   6.757  13.922  1.1297 -0.8748 -0.7465
13268TIP3   OH261294   6.777   4.666   2.947  0.5763 -0.4022 -0.0524
13268TIP3    H161295   6.802   4.758   2.938  0.7855 -0.0136  3.2811
13268TIP3    H261296   6.686   4.663   2.919  0.4725  0.8935  0.0872
13269TIP3   OH261297   3.764   1.134   4.401  0.1861 -0.5475 -0.1047
13269TIP3    H161298   3.849   1.169   4.375  0.8331 -2.1765 -0.3117
13269TIP3    H261299   3.780   1.093   4.486 -0.8478  0.7079  0.7501
13270TIP3   OH261300   0.852   2.366   2.453 -0.1096 -0.1410 -0.6467
13270TIP3    H161301   0.772   2.415   2.437  0.9778  1.7454 -0.7134
13270TIP3    H261302   0.850   2.346   2.546  0.3996  2.0743 -0.0879
13271TIP3   OH261303   4.846   4.764  13.679 -0.1596 -1.4553 -0.7396
13271TIP3    H161304   4.826   4.827  13.610 -2.9226 -2.1272 -0.6765
13271TIP3    H261305   4.937   4.739  13.664 -0.1362 -0.2282 -3.0150
13272TIP3   OH261306   0.252   6.022  15.452  0.2690 -0.1958 -0.0075
13272TIP3    H161307   0.308   6.090  15.490  0.6996 -0.3272 -0.3905
13272TIP3    H261308   0.171   6.068  15.430  0.5296  0.1823 -0.1936
13273TIP3   OH261309   6.267   5.824   0.668  0.3375 -0.6710  0.1890
13273TIP3    H161310   6.176   5.823   0.637  0.3471  1.8671 -0.1049
13273TIP3    H261311   6.315   5.774   0.602 -0.2460  1.4054 -1.9332
13274TIP3   OH261312   1.171   4.633  13.984 -0.5796 -0.5779  0.3907
13274TIP3    H161313   1.162   4.726  13.964 -3.0921 -1.0893 -1.3758
13274TIP3    H261314   1.205   4.594  13.903 -0.1345 -1.2790  0.9022
13275TIP3   OH261315   5.021   4.302   5.183 -0.0459 -0.6308 -0.1389
13275TIP3    H161316   4.994   4.217   5.148 -1.0254  0.1860 -1.4768
13275TIP3    H261317   4.939   4.351   5.194  0.3654 -0.3600  2.0827
13276TIP3   OH261318   1.458   5.835   0.691  0.3065  0.2773  0.2327
13276TIP3    H161319   1.404   5.758   0.709  1.0752 -0.7790 -1.6154
13276TIP3    H261320   1.490   5.862   0.777  0.5535 -1.9015  0.9074
13277TIP3   OH261321   6.433   1.441   3.860  0.4472 -0.3106 -0.3682
13277TIP3    H161322   6.356   1.454   3.916  1.3934 -1.3267  1.2189
13277TIP3    H261323   6.483   1.522   3.869  0.3092 -0.2412 -0.2183
13278TIP3   OH261324   0.352   5.475   1.559 -0.5578 -0.5701  0.0399
13278TIP3    H161325   0.338   5.561   1.598  0.5173  0.2842 -1.3815
13278TIP3    H261326   0.338   5.413   1.631  0.1962  0.8650  1.4583
13279TIP3   OH261327   6.192   4.189   3.965  0.2844  0.2789  0.7211
13279TIP3    H161328   6.131   4.124   4.000  0.2020  1.2300  2.4652
13279TIP3    H261329   6.204   4.251   4.037 -0.7766  3.0495 -1.3175
13280TIP3   OH261330   0.708   2.373   3.049  0.1054 -0.6973  0.6978
13280TIP3    H161331   0.624   2.416   3.032  0.5822  0.1876  0.4981
13280TIP3    H261332   0.758   2.387   2.968  0.6194 -0.8006  0.9959
13281TIP3   OH261333   4.776   5.975  13.207 -0.2387 -0.1997  0.4407
13281TIP3    H161334   4.835   6.037  13.249 -1.8363  1.6762  0.0707
13281TIP3    H261335   4.778   5.898  13.264  2.6042 -0.2875  0.3349
13282TIP3   OH261336   6.523   0.377   1.908  0.1409  0.0568  0.2056
13282TIP3    H161337   6.464   0.369   1.983 -0.0521  1.7889  0.2912
13282TIP3    H261338   6.505   0.465   1.874  0.8803 -0.3623 -1.3151
13283TIP3   OH261339   0.595   4.237  16.864  0.5833  0.5126 -0.2525
13283TIP3    H161340   0.604   4.321  16.818  2.1419 -0.6982 -2.3173
13283TIP3    H261341   0.505   4.211  16.849  0.3466  1.3701 -0.3713
13284TIP3   OH261342   4.575   0.712  15.832  0.7484  0.6991  0.4132
13284TIP3    H161343   4.501   0.770  15.813  1.4806  1.5975  0.2198
13284TIP3    H261344   4.541   0.648  15.894 -0.3956  0.6347 -0.2612
13285TIP3   OH261345   0.914   6.017   0.310  0.1731  0.0039  0.0002
13285TIP3    H161346   0.997   6.060   0.331  0.7059 -1.1061  0.2426
13285TIP3    H261347   0.935   5.956   0.240 -0.2217 -1.0062  0.7435
13286TIP3   OH261348   0.338   6.557   5.318 -0.1883 -0.0415  0.2051
13286TIP3    H161349   0.380   6.642   5.307 -0.5404  0.3338  1.5306
13286TIP3    H261350   0.349   6.513   5.234  1.8406  0.4900  0.1513
13287TIP3   OH261351   3.347   4.369  17.017  0.0019  0.0254  0.1232
13287TIP3    H161352   3.302   4.451  16.998 -0.2367 -0.3982 -1.2269
13287TIP3    H261353   3.322   4.348  17.107  1.0200  2.0157  0.9488
13288TIP3   OH261354   1.529   1.421  14.845 -0.4558  0.4350 -0.4311
13288TIP3    H161355   1.520   1.331  14.814 -1.4872  0.6308 -0.7456
13288TIP3    H261356   1.492   1.474  14.774  1.0557  1.1805 -0.6912
13289TIP3   OH261357   1.551   2.319   2.773  0.2439  0.2402  0.5113
13289TIP3    H161358   1.478   2.380   2.777  1.1613  1.3530  0.5932
13289TIP3    H261359   1.628   2.373   2.757  1.2230 -0.7745  1.5172
13290TIP3   OH261360   1.196   0.867  17.069 -0.6214  0.2363  0.3265
13290TIP3    H161361   1.252   0.942  17.089 -1.5607  0.9013  0.5190
13290TIP3    H261362   1.174   0.830  17.154  0.1797 -0.5256  0.2159
13291TIP3   OH261363   4.040   1.300   3.144  0.3866  0.5242 -0.2119
13291TIP3    H161364   4.044   1.206   3.124  1.1803  0.6163 -0.5500
13291TIP3    H261365   3.999   1.305   3.230 -0.6754 -0.0580 -0.6659
13292TIP3   OH261366   6.377   0.889  15.448  0.0738  0.2393 -0.7258
13292TIP3    H161367   6.322   0.967  15.449  0.7809  0.8540  2.7294
13292TIP3    H261368   6.316   0.816  15.449 -0.5983  0.7230 -2.7743
13293TIP3   OH261369   0.218   4.081  15.459  0.0420 -0.3643 -0.2004
13293TIP3    H161370   0.302   4.038  15.477 -0.3123 -2.5327 -3.1264
13293TIP3    H261371   0.219   4.099  15.365 -2.6658 -0.2063 -0.2708
13294TIP3   OH261372   5.134   2.483  15.559  0.3518  0.2707  0.2020
13294TIP3    H161373   5.077   2.406  15.552 -0.6321  0.7133  2.6279
13294TIP3    H261374   5.203   2.456  15.620  2.0017  0.2337 -1.5815
13295TIP3   OH261375   2.432   5.041  15.618 -0.7540 -0.0055 -0.9573
13295TIP3    H161376   2.417   5.024  15.525 -2.0500 -0.3690 -0.6971
13295TIP3    H261377   2.368   5.109  15.640 -0.7202 -0.2005 -0.2448
13296TIP3   OH261378   0.577   3.439  15.832  0.8115  0.2706 -0.2422
13296TIP3    H161379   0.603   3.531  15.825  1.0354  0.2489  0.2818
13296TIP3    H261380   0.592   3.404  15.744 -0.2612  0.9767 -0.7391
13297TIP3   OH261381   0.842   4.714   0.438  0.3583 -0.1436  0.1795
13297TIP3    H161382   0.915   4.773   0.422 -0.0454  0.6384  1.1246
13297TIP3    H261383   0.877   4.647   0.497  0.6947 -0.6134 -0.5384
13298TIP3   OH261384   5.393   2.599   4.569  0.0438  0.0417  0.2810
13298TIP3    H161385   5.310   2.553   4.557  0.4601 -0.5103 -0.5704
13298TIP3    H261386   5.379   2.683   4.525 -0.0680 -0.0481  0.1406
13299TIP3   OH261387   5.438   4.161   3.091 -0.0262 -0.0373 -0.1835
13299TIP3    H161388   5.485   4.081   3.067  1.5380 -0.0268  2.4909
13299TIP3    H261389   5.446   4.166   3.186 -1.8583  2.2583 -0.0673
13300TIP3   OH261390   4.161   3.820  16.792 -0.7943 -0.2680  0.0486
13300TIP3    H161391   4.132   3.894  16.845  0.1371 -0.4995  0.9263
13300TIP3    H261392   4.238   3.852  16.745  0.6440 -1.1145  1.7161
13301TIP3   OH261393   4.942   4.165  15.245  0.8010  0.2769 -0.2872
13301TIP3    H161394   4.947   4.173  15.150  1.9671 -2.9235 -0.6181
13301TIP3    H261395   4.879   4.094  15.259 -1.5038  2.4690  1.5632
13302TIP3   OH261396   5.220   2.988   3.746  0.0746  0.0778  0.1742
13302TIP3    H161397   5.172   2.921   3.793 -1.5352  0.6373 -0.5837
13302TIP3    H261398   5.162   3.013   3.674  0.0958  3.0311  1.0272
13303TIP3   OH261399   3.367   0.840   3.263  0.1496  0.7238  0.2488
13303TIP3    H161400   3.457   0.809   3.274  0.3379  0.7099 -1.1515
13303TIP3    H261401   3.376   0.926   3.221 -0.4973  0.6695 -0.0138
13304TIP3   OH261402   6.236   3.323   1.295  0.4860  0.6436 -0.4677
13304TIP3    H161403   6.162   3.382   1.309 -0.1045 -0.1115 -0.3171
13304TIP3    H261404   6.197   3.236   1.296  1.2235  0.2849 -1.5114
13305TIP3   OH261405   3.896   2.313   4.188  0.0394 -0.2539  0.2198
13305TIP3    H161406   3.913   2.256   4.263 -0.2522 -2.1272 -1.0529
13305TIP3    H261407   3.975   2.367   4.180  1.0601 -1.6537  0.4992
13306TIP3   OH261408   6.190   1.099   3.791 -0.2136  0.1650  0.0683
13306TIP3    H161409   6.160   1.137   3.709 -0.8886  0.2724  0.3577
13306TIP3    H261410   6.273   1.056   3.769 -1.3614 -1.6047 -1.1412
13307TIP3   OH261411   4.594   4.862  12.964  0.5151  0.5391 -0.4452
13307TIP3    H161412   4.514   4.897  12.924 -0.4752 -0.7244  0.3298
13307TIP3    H261413   4.567   4.778  13.003  2.1621  0.2020  0.0772
13308TIP3   OH261414   1.763   4.013  13.144 -0.0515  0.1546  0.8283
13308TIP3    H161415   1.725   3.926  13.153 -0.0047  0.0627  0.1941
13308TIP3    H261416   1.708   4.057  13.079  1.3662 -0.2521 -0.7149
13309TIP3   OH261417   3.067   0.297   4.227 -0.1614  0.0935 -0.0799
13309TIP3    H161418   3.138   0.265   4.283 -0.1619  1.1989  0.5914
13309TIP3    H261419   3.106   0.301   4.139  0.6934  0.8989  0.3215
13310TIP3   OH261420   0.683   5.744  14.012  0.5706  0.1628  0.2107
13310TIP3    H161421   0.630   5.757  14.090  0.9078  0.1892  0.4372
13310TIP3    H261422   0.642   5.670  13.967 -0.5121  1.0698 -0.3624
13311TIP3   OH261423   5.212   1.704   1.255  0.5923 -0.3757 -0.4952
13311TIP3    H161424   5.176   1.707   1.344  0.2923  0.4702 -0.6290
13311TIP3    H261425   5.302   1.673   1.266  0.8297  0.5109  0.2038
13312TIP3   OH261426   1.995   0.192  14.631 -0.3169  0.8838  0.1400
13312TIP3    H161427   1.919   0.209  14.687  0.1138  0.8328  0.7441
13312TIP3    H261428   2.047   0.128  14.680 -1.4343 -1.5725 -1.6416
13313TIP3   OH261429   3.839   6.007  16.971 -0.1052  0.2856 -0.1506
13313TIP3    H161430   3.860   6.055  16.890 -0.8049  0.8303 -0.0181
13313TIP3    H261431   3.866   5.917  16.953  0.7068  0.6107 -0.6115
13314TIP3   OH261432   3.755   6.139   2.877  0.1321  0.2639 -0.1549
13314TIP3    H161433   3.808   6.120   2.800  1.7358  1.2987  0.6415
13314TIP3    H261434   3.807   6.202   2.927 -0.1468 -1.5060  2.5441
13315TIP3   OH261435   4.836   6.588   2.526  0.4524 -0.2543  0.0442
13315TIP3    H161436   4.881   6.518   2.479 -1.5976 -0.9456 -0.9897
13315TIP3    H261437   4.831   6.660   2.463 -0.9886 -0.6472 -0.3182
13316TIP3   OH261438   0.808   3.712  15.277  0.3466 -0.1646 -0.2957
13316TIP3    H161439   0.894   3.731  15.314  0.4537  0.5195 -0.8881
13316TIP3    H261440   0.791   3.620  15.301  1.4827 -0.4807 -0.6539
13317TIP3   OH261441   6.594   4.641  15.693  0.2482 -0.7793 -0.5835
13317TIP3    H161442   6.605   4.660  15.600 -1.2426  2.4265 -0.2373
13317TIP3    H261443   6.528   4.572  15.696 -1.7524  0.9497 -1.9466
13318TIP3   OH261444   3.004   5.437  10.634  0.3155 -0.1150 -0.3017
13318TIP3    H161445   2.924   5.401  10.674  0.3807 -0.0053 -0.0707
13318TIP3    H261446   3.055   5.360  10.608  0.3207 -0.1884 -0.0737
13319TIP3   OH261447   4.576   3.405  15.898 -0.7491  0.0564 -0.0902
13319TIP3    H161448   4.549   3.493  15.871  0.8855  0.2139 -1.3677
13319TIP3    H261449   4.664   3.417  15.933 -0.4133 -1.0864 -0.4906
13320TIP3   OH261450   3.223   4.423  12.739 -0.6470 -0.4476  0.2808
13320TIP3    H161451   3.280   4.408  12.664 -0.6104 -0.3287  0.2829
13320TIP3    H261452   3.192   4.513  12.728 -2.9554 -1.3158 -1.1501
13321TIP3   OH261453   0.283   4.783  13.948  0.5276  0.5588  0.0539
13321TIP3    H161454   0.312   4.847  14.012  0.3228  1.0357 -0.3188
13321TIP3    H261455   0.288   4.828  13.864  3.0051 -0.7761 -0.5967
13322TIP3   OH261456   0.086   0.712  11.382  0.9710  0.1466 -0.3393
13322TIP3    H161457   0.035   0.793  11.377 -1.0671 -0.9732  0.8374
13322TIP3    H261458   0.134   0.718  11.464  1.2252  0.3589 -0.5005
13323TIP3   OH261459   1.153   1.634   3.027  0.1988  0.1127  0.2626
13323TIP3    H161460   1.062   1.647   2.999  0.2089  0.2331  0.2865
13323TIP3    H261461   1.151   1.645   3.122 -0.0099 -1.2485  0.4374
13324TIP3   OH261462   4.983   1.632  14.695 -0.0110  0.1936  0.0119
13324TIP3    H161463   5.044   1.705  14.696  0.4793 -0.2007  0.8830
13324TIP3    H261464   4.913   1.658  14.755 -0.2680  0.2940 -0.3284
13325TIP3   OH261465   1.401   4.254   3.331 -0.3872 -0.2293  0.4277
13325TIP3    H161466   1.470   4.212   3.280 -0.4636  1.3685 -1.0829
13325TIP3    H261467   1.447   4.320   3.382 -0.6769  0.1896  0.1475
13326TIP3   OH261468   5.228   0.377   4.233  0.3697 -0.3188 -0.5470
13326TIP3    H161469   5.150   0.322   4.246  1.2553 -1.6909 -0.7354
13326TIP3    H261470   5.282   0.326   4.172  0.5767  1.4879 -1.9441
13327TIP3   OH261471   5.875   5.001   3.137 -0.4557  0.0471 -0.1063
13327TIP3    H161472   5.952   4.945   3.133  1.4017  2.2464  1.9306
13327TIP3    H261473   5.810   4.950   3.185  0.3881 -1.1103 -0.1573
13328TIP3   OH261474   0.703   2.794   3.373 -0.1564 -0.1794  0.0272
13328TIP3    H161475   0.677   2.856   3.441  1.8686  1.1093 -0.2709
13328TIP3    H261476   0.667   2.830   3.292 -0.6306 -0.4698  0.1059
13329TIP3   OH261477   4.611   6.547  15.634 -0.5715 -0.3051  0.1795
13329TIP3    H161478   4.672   6.554  15.708  0.3205 -2.2223 -0.3108
13329TIP3    H261479   4.635   6.620  15.577  1.4399 -1.1092 -0.0871
13330TIP3   OH261480   4.637   0.127   5.899  0.9876  0.6939  0.3670
13330TIP3    H161481   4.711   0.067   5.913  0.3603  0.1250  1.3578
13330TIP3    H261482   4.595   0.094   5.819  0.1486 -0.7495  1.3674
13331TIP3   OH261483   3.946   5.277   1.651 -0.0064 -0.3914  0.0124
13331TIP3    H161484   4.031   5.283   1.694 -0.1709 -2.3352  0.7335
13331TIP3    H261485   3.967   5.256   1.560  0.3256 -2.2244  0.4704
13332TIP3   OH261486   2.248   1.176   1.898  0.0244  0.1826 -0.3183
13332TIP3    H161487   2.336   1.139   1.894 -0.3637 -0.6527 -1.8127
13332TIP3    H261488   2.196   1.108   1.941 -0.0758  0.2908 -0.2672
13333TIP3   OH261489   4.338   1.629  11.728 -0.0572 -0.5785 -0.1428
13333TIP3    H161490   4.367   1.684  11.656 -0.7032 -0.3711 -0.2477
13333TIP3    H261491   4.364   1.677  11.807 -0.5096 -0.1886 -0.2340
13334TIP3   OH261492   0.285   2.827   4.234 -0.0307 -0.0331  0.2684
13334TIP3    H161493   0.289   2.751   4.176 -1.1111 -0.8575  1.2410
13334TIP3    H261494   0.354   2.812   4.298  0.9670  0.7332 -0.5892
13335TIP3   OH261495   1.813   3.952  10.464 -0.3642  0.8203  1.4235
13335TIP3    H161496   1.895   3.902  10.467  0.5333  2.1986  0.7956
13335TIP3    H261497   1.755   3.899  10.409  1.1957  1.2656 -0.8077
13336TIP3   OH261498   3.036   3.996   5.288  0.3399 -0.6261  0.6333
13336TIP3    H161499   2.963   4.011   5.228  1.1133 -0.8721 -0.3961
13336TIP3    H261500   3.024   4.061   5.357  0.9104  1.5094 -1.1882
13337TIP3   OH261501   5.724   0.127  10.643  0.4882  0.2814 -0.5634
13337TIP3    H161502   5.705   0.208  10.691 -1.3887 -0.3952 -0.0904
13337TIP3    H261503   5.656   0.122  10.576  0.6945 -0.8072 -0.7133
13338TIP3   OH261504   0.337   3.369   5.688 -0.7504  0.7044 -0.1435
13338TIP3    H161505   0.385   3.451   5.699 -0.2519  0.4185 -0.1336
13338TIP3    H261506   0.258   3.393   5.640 -1.4094  1.4553  1.2677
13339TIP3   OH261507   5.267   5.693   4.097  0.2177 -0.5835  0.1032
13339TIP3    H161508   5.304   5.745   4.168  1.4345  0.0292 -0.9309
13339TIP3    H261509   5.262   5.604   4.132  0.4285 -0.2260  1.0776
13340TIP3   OH261510   6.284   2.633   6.538 -0.3820  0.1073  0.5023
13340TIP3    H161511   6.217   2.700   6.545 -1.9200 -1.3303  0.2069
13340TIP3    H261512   6.283   2.608   6.445  1.3491  0.8026  0.2586
13341TIP3   OH261513   0.341   1.890   1.471  0.0877 -0.5760 -0.2233
13341TIP3    H161514   0.383   1.868   1.389 -0.3335  0.1694 -0.6551
13341TIP3    H261515   0.253   1.919   1.447 -0.0784 -0.4457  0.4903
13342TIP3   OH261516   6.166   4.362  16.564 -0.6853  0.2542  0.1825
13342TIP3    H161517   6.199   4.296  16.503 -2.0580 -0.2225 -0.0883
13342TIP3    H261518   6.213   4.442  16.541 -0.4937 -0.1476 -0.8706
13343TIP3   OH261519   4.153   5.171   5.587 -0.0688 -0.4654 -0.4848
13343TIP3    H161520   4.059   5.184   5.575 -0.4982 -0.7725  1.9744
13343TIP3    H261521   4.194   5.234   5.528 -1.7877 -0.5682 -1.8657
13344TIP3   OH261522   4.615   2.136  15.196 -0.1637  0.0102 -0.3801
13344TIP3    H161523   4.679   2.075  15.159  1.9135  1.1808  1.0644
13344TIP3    H261524   4.668   2.204  15.238 -2.3798  0.8418  1.2758
13345TIP3   OH261525   3.211   0.595   5.285 -0.0403  0.4306  0.0115
13345TIP3    H161526   3.140   0.548   5.328 -1.3116  2.6228  0.4225
13345TIP3    H261527   3.205   0.567   5.193 -1.3888  0.5125  0.0566
13346TIP3   OH261528   3.179   1.410   3.346 -0.0771 -0.0496 -0.4078
13346TIP3    H161529   3.140   1.399   3.260 -0.6247  1.0028 -0.3125
13346TIP3    H261530   3.141   1.340   3.399 -1.2807  0.4921 -0.5165
13347TIP3   OH261531   3.558   0.854   4.549  0.1814  0.4202  0.7293
13347TIP3    H161532   3.627   0.846   4.483 -1.0055  2.1962 -0.8556
13347TIP3    H261533   3.587   0.927   4.604 -0.4691  1.3098 -0.0680
13348TIP3   OH261534   1.076   6.411   1.987  0.1937  0.5517  0.2318
13348TIP3    H161535   1.013   6.469   2.030 -0.5320  3.0732 -3.7334
13348TIP3    H261536   1.023   6.345   1.944  0.2432  1.7050 -1.7339
13349TIP3   OH261537   6.569   5.890   3.937 -0.1813 -0.0900 -0.3485
13349TIP3    H161538   6.646   5.937   3.906  0.3630 -1.5446 -1.3274
13349TIP3    H261539   6.558   5.919   4.027  0.3258  1.6002 -0.7819
13350TIP3   OH261540   4.892   4.286   2.663  0.2789 -0.1988  0.5668
13350TIP3    H161541   4.915   4.205   2.709  1.7034 -0.8610 -1.1851
13350TIP3    H261542   4.974   4.335   2.658 -0.3212  0.8358  0.5801
13351TIP3   OH261543   1.367   3.618  14.846 -0.2103  0.5996 -0.5463
13351TIP3    H161544   1.279   3.584  14.828 -0.7645  1.1713  0.9340
13351TIP3    H261545   1.426   3.554  14.806 -1.2836 -0.3750 -0.6177
13352TIP3   OH261546   0.256   2.279   3.986  0.0588 -0.0250 -0.3315
13352TIP3    H161547   0.247   2.196   3.941 -0.8742  0.8359 -1.8367
13352TIP3    H261548   0.344   2.309   3.965 -0.2935  0.2695 -1.5095
13353TIP3   OH261549   1.347   3.167   3.427  0.3123 -0.6791  0.0064
13353TIP3    H161550   1.432   3.144   3.465  0.7472 -0.1752 -0.6345
13353TIP3    H261551   1.339   3.261   3.443 -0.2369 -0.7698  0.2710
13354TIP3   OH261552   4.434   1.088   3.068  0.1850 -0.2131  0.1898
13354TIP3    H161553   4.417   1.183   3.065  0.5459 -0.1822 -1.5751
13354TIP3    H261554   4.351   1.051   3.098 -0.5228  0.5334 -0.7803
13355TIP3   OH261555   6.535   0.077  13.483  0.4055 -0.3209 -0.1118
13355TIP3    H161556   6.544   0.100  13.391  0.1191 -0.3848 -0.1544
13355TIP3    H261557   6.482   0.148  13.520  0.8270 -0.0973  0.0850
13356TIP3   OH261558   0.303   2.897   2.184  0.2870  0.0989  0.0896
13356TIP3    H161559   0.340   2.985   2.183 -2.0764  1.1581  0.1319
13356TIP3    H261560   0.289   2.878   2.277 -0.0349  0.0571  0.0333
13357TIP3   OH261561   6.772   6.825  10.920 -0.1051  0.1567 -0.0427
13357TIP3    H161562   6.863   6.854  10.930 -0.4999  2.3695 -2.0313
13357TIP3    H261563   6.772   6.735  10.953  3.1197 -0.4128 -1.2297
13358TIP3   OH261564   1.876   6.790   6.072  0.3551 -0.2654  0.1662
13358TIP3    H161565   1.935   6.862   6.051  1.4944 -0.8998  1.0808
13358TIP3    H261566   1.865   6.796   6.167 -3.4537  1.6286 -0.1881
13359TIP3   OH261567   0.280   3.184   5.968  1.4242 -0.0030 -0.1218
13359TIP3    H161568   0.191   3.214   5.949  0.3805 -3.0652 -0.8160
13359TIP3    H261569   0.285   3.183   6.064  0.6177  0.0659 -0.0669
13360TIP3   OH261570   3.320   5.755   0.178  0.0426  0.5640  0.3416
13360TIP3    H161571   3.344   5.848   0.172 -0.7370  0.7768  0.3928
13360TIP3    H261572   3.227   5.756   0.200  0.0034 -0.2384  0.2339
13361TIP3   OH261573   0.249   4.265   2.657  0.1938 -0.2455 -0.6702
13361TIP3    H161574   0.212   4.333   2.713  1.3897 -0.4307  0.3952
13361TIP3    H261575   0.220   4.288   2.569 -1.8253 -0.0020  0.0127
13362TIP3   OH261576   3.833   1.859   3.823  0.5523 -0.4779  0.0638
13362TIP3    H161577   3.841   1.909   3.742  1.6058 -0.4909  0.1427
13362TIP3    H261578   3.830   1.925   3.892  1.5893 -0.4925  0.1416
13363TIP3   OH261579   0.241   3.541  14.107 -0.1281 -0.0296  0.2822
13363TIP3    H161580   0.275   3.565  14.193  0.9879  1.0663 -0.4302
13363TIP3    H261581   0.308   3.484  14.069  0.5455  1.3876 -0.7603
13364TIP3   OH261582   0.781   0.193   4.457  0.6060  0.0844  0.4742
13364TIP3    H161583   0.799   0.287   4.452 -0.7136  0.6029  3.4044
13364TIP3    H261584   0.753   0.169   4.369  1.8576  2.2053 -0.5704
13365TIP3   OH261585   3.248   4.882  15.776 -0.0503  0.1455  0.0658
13365TIP3    H161586   3.343   4.890  15.773 -0.1444  1.7022 -2.2847
13365TIP3    H261587   3.228   4.809  15.717 -0.3046 -1.4739  2.0461
13366TIP3   OH261588   0.251   4.032   3.276 -0.5715 -0.2184 -0.7865
13366TIP3    H161589   0.345   4.011   3.279 -0.7594 -0.9805  1.5234
13366TIP3    H261590   0.211   3.955   3.237 -0.2060  0.3871 -2.4269
13367TIP3   OH261591   0.477   3.782   0.183  0.1932 -0.3105 -1.2336
13367TIP3    H161592   0.408   3.781   0.249  0.4135 -0.3740 -1.0042
13367TIP3    H261593   0.542   3.844   0.216  0.9592 -1.3533 -0.7066
13368TIP3   OH261594   3.025   4.224   1.474  0.5502 -0.0407  0.2241
13368TIP3    H161595   2.938   4.247   1.506  0.3302 -0.9025  0.2578
13368TIP3    H261596   3.034   4.131   1.494  1.6619  0.1389  0.6474
13369TIP3   OH261597   5.826   2.178   4.118  0.3825  0.0728 -0.4758
13369TIP3    H161598   5.814   2.195   4.025 -0.1796  2.2363 -0.0646
13369TIP3    H261599   5.745   2.137   4.146 -1.3512  3.4135 -0.1473
13370TIP3   OH261600   4.256   3.850  16.169  0.1953 -0.8566 -0.5401
13370TIP3    H161601   4.179   3.806  16.135  0.4867 -0.3529 -1.9271
13370TIP3    H261602   4.234   3.943  16.168 -0.0532 -0.8418  1.4176
13371TIP3   OH261603   0.908   2.774  15.231 -0.6149  0.2416  0.2877
13371TIP3    H161604   0.878   2.751  15.320 -3.0647  1.0881 -0.2386
13371TIP3    H261605   1.003   2.775  15.237 -0.6327 -1.8097  2.3776
13372TIP3   OH261606   0.675   5.263   2.547  0.4767 -0.6286 -0.2949
13372TIP3    H161607   0.721   5.323   2.605  2.1910 -1.8298 -0.3379
13372TIP3    H261608   0.739   5.240   2.480 -0.0219 -2.6848 -0.1395
13373TIP3   OH261609   2.091   3.216  15.441 -0.1791 -0.1841  0.1823
13373TIP3    H161610   2.120   3.126  15.452 -1.5797 -0.8477 -1.1944
13373TIP3    H261611   2.136   3.247  15.363  0.6633  0.5055  0.9159
13374TIP3   OH261612   2.370   3.610  14.765  0.3194 -0.2781 -0.5116
13374TIP3    H161613   2.463   3.589  14.760 -0.0615 -1.8752 -2.8697
13374TIP3    H261614   2.329   3.527  14.791 -0.5181  0.1734 -0.3673
13375TIP3   OH261615   2.315   2.268  16.818  0.1754 -0.1658 -0.0784
13375TIP3    H161616   2.325   2.270  16.913  0.7561 -1.1967 -0.1034
13375TIP3    H261617   2.401   2.245  16.785 -0.3114 -1.0278 -0.7819
13376TIP3   OH261618   2.766   5.335  16.570  0.1790  0.0255  0.3085
13376TIP3    H161619   2.728   5.414  16.608 -0.5799  1.0252 -2.3422
13376TIP3    H261620   2.805   5.364  16.488  2.0338 -1.9561  0.4086
13377TIP3   OH261621   0.559   1.512  11.446 -0.2912 -0.0548  0.0505
13377TIP3    H161622   0.627   1.520  11.513 -1.1453 -0.8179  1.0563
13377TIP3    H261623   0.561   1.595  11.398 -0.0096  0.7243  1.3697
13378TIP3   OH261624   3.993   5.680   1.151 -0.5053  0.1827 -0.3113
13378TIP3    H161625   4.040   5.707   1.230 -1.6990 -1.2440  0.9557
13378TIP3    H261626   4.057   5.627   1.103  0.4951  1.7211 -0.7600
13379TIP3   OH261627   1.977   0.577  13.084  0.9271  0.5200  0.5775
13379TIP3    H161628   1.922   0.645  13.045  0.4829 -0.0273  0.2416
13379TIP3    H261629   1.915   0.515  13.123  1.2988 -0.0652  0.2558
13380TIP3   OH261630   5.992   6.056  12.526 -0.0830  0.2781 -0.0082
13380TIP3    H161631   5.941   6.111  12.466 -0.8390  0.9508  1.2052
13380TIP3    H261632   5.954   5.969  12.517 -1.0248  0.6359  0.3836
13381TIP3   OH261633   2.833   0.067  15.661  0.2266  0.1586 -0.5892
13381TIP3    H161634   2.896   0.135  15.686  0.2729 -0.4237  0.9901
13381TIP3    H261635   2.819   0.081  15.567  1.0536  1.6593 -0.5283
13382TIP3   OH261636   6.101   3.615   1.990  0.6593 -0.2693 -0.1243
13382TIP3    H161637   6.156   3.619   1.911 -1.0105  1.3433 -1.2899
13382TIP3    H261638   6.014   3.596   1.957  0.4483 -3.1577  1.7250
13383TIP3   OH261639   0.277   5.341   5.697 -0.0378 -0.0975  0.1641
13383TIP3    H161640   0.209   5.389   5.743 -1.4238 -2.3217  0.5790
13383TIP3    H261641   0.321   5.289   5.764  1.1258  0.2257 -0.3198
13384TIP3   OH261642   3.152   5.002  15.308  0.3416 -0.2155 -0.1182
13384TIP3    H161643   3.222   5.039  15.361 -0.7871  3.5496 -1.0005
13384TIP3    H261644   3.196   4.971  15.229  1.4253 -1.6839  0.9869
13385TIP3   OH261645   5.589   1.835  15.085  0.2479  0.2965 -0.2568
13385TIP3    H161646   5.556   1.922  15.063 -0.3909  0.0368 -0.3418
13385TIP3    H261647   5.516   1.793  15.130  0.9703  0.2411  0.9141
13386TIP3   OH261648   6.289   5.440  11.716 -0.1659  0.0594 -0.0167
13386TIP3    H161649   6.226   5.406  11.652 -1.7015  1.4588  0.6776
13386TIP3    H261650   6.357   5.481  11.664 -1.6816  1.6916 -0.8041
13387TIP3   OH261651   5.691   4.282  12.781 -0.4908 -0.2394  0.2952
13387TIP3    H161652   5.715   4.267  12.872 -0.7247 -1.1440  0.2197
13387TIP3    H261653   5.755   4.232  12.731 -1.7643 -1.7420  0.0579
13388TIP3   OH261654   1.675   1.298   2.870 -0.1036 -0.2283  0.2913
13388TIP3    H161655   1.666   1.211   2.910 -1.1140 -0.0314  0.5362
13388TIP3    H261656   1.606   1.301   2.804 -0.6460  0.6952  0.8763
13389TIP3   OH261657   0.766   2.194  16.026 -0.0246 -0.1986  0.3321
13389TIP3    H161658   0.749   2.288  16.016 -0.8816 -0.3328  0.5413
13389TIP3    H261659   0.686   2.158  16.062  0.4625 -0.9472  0.6863
13390TIP3   OH261660   2.059   4.946  11.466 -0.4195  0.0342 -0.7059
13390TIP3    H161661   2.145   4.981  11.444 -0.7379  0.5466 -1.1666
13390TIP3    H261662   2.072   4.902  11.550 -0.2424  2.2874  0.5300
13391TIP3   OH261663   2.384   2.004  15.812  0.7154 -0.2927 -0.2430
13391TIP3    H161664   2.370   1.970  15.901  1.2438  0.3391  0.0963
13391TIP3    H261665   2.391   2.099  15.824 -1.6911  0.0947 -1.2847
13392TIP3   OH261666   4.153   6.787   0.496 -0.3435 -0.2896  0.2223
13392TIP3    H161667   4.148   6.702   0.539 -4.5626  0.4224  1.6545
13392TIP3    H261668   4.166   6.767   0.403  3.7720 -2.0868  0.9630
13393TIP3   OH261669   4.581   2.102  17.128  0.1257 -0.3910  0.2366
13393TIP3    H161670   4.571   2.043  17.053 -1.3018 -0.6480  0.6035
13393TIP3    H261671   4.532   2.060  17.198 -0.4379  0.9314  0.6708
13394TIP3   OH261672   2.603   4.849   5.274  0.0024 -0.9731 -0.2176
13394TIP3    H161673   2.610   4.804   5.358 -0.2743 -0.4606  0.0891
13394TIP3    H261674   2.575   4.938   5.297  0.9352 -0.5227 -0.7793
13395TIP3   OH261675   4.111   1.312  11.525 -0.3820  0.0951 -0.2922
13395TIP3    H161676   4.115   1.314  11.429  1.6272 -2.7390 -0.3928
13395TIP3    H261677   4.200   1.332  11.553 -1.1674  1.8641  1.0863
13396TIP3   OH261678   2.436   5.236  14.836  0.1228  0.0610  0.1711
13396TIP3    H161679   2.410   5.280  14.917 -1.8133  2.2613 -1.5412
13396TIP3    H261680   2.354   5.205  14.798  1.0124 -1.0387 -0.9116
13397TIP3   OH261681   3.868   1.974   2.579  0.0052  0.2766  0.0998
13397TIP3    H161682   3.945   1.923   2.601 -1.4333 -1.9603  0.3055
13397TIP3    H261683   3.900   2.063   2.568  2.4515 -0.4275  0.9456
13398TIP3   OH261684   0.131   0.679   3.409 -0.5732 -0.1096 -0.2753
13398TIP3    H161685   0.157   0.745   3.474 -0.1313 -1.2392  0.7287
13398TIP3    H261686   0.046   0.711   3.377 -0.5372  0.7726  0.4434
13399TIP3   OH261687   1.364   2.738  16.748  0.1824  0.0184 -0.6144
13399TIP3    H161688   1.357   2.643  16.735  0.4526  0.0337 -0.8650
13399TIP3    H261689   1.302   2.756  16.819  2.7619 -0.8711  2.0596
13400TIP3   OH261690   5.929   2.189  11.918  0.2873 -0.4162  0.0470
13400TIP3    H161691   5.891   2.103  11.903  0.9605 -0.7952  0.4687
13400TIP3    H261692   5.924   2.232  11.833 -3.0306  0.3861  0.4783
13401TIP3   OH261693   4.567   2.610   3.841 -0.2112 -0.0709  0.6203
13401TIP3    H161694   4.592   2.663   3.765  0.3048 -0.9081  0.1875
13401TIP3    H261695   4.585   2.520   3.814  1.3043 -0.3146  2.2168
13402TIP3   OH261696   6.587   5.798   2.365  0.2423  0.2313 -0.0896
13402TIP3    H161697   6.545   5.797   2.278  0.1586  0.1780 -0.0489
13402TIP3    H261698   6.550   5.875   2.408 -0.3249 -0.1929  0.1952
13403TIP3   OH261699   4.692   5.978   0.583 -0.5003  0.3358 -0.2894
13403TIP3    H161700   4.761   5.945   0.641 -0.3603  1.1758  0.0297
13403TIP3    H261701   4.693   5.918   0.509 -0.6219 -0.7139  0.5334
13404TIP3   OH261702   4.547   1.202  14.125  0.4668  0.4958  0.2553
13404TIP3    H161703   4.506   1.224  14.042 -0.7790  0.1801  0.7613
13404TIP3    H261704   4.568   1.109  14.118  0.5492  0.5183  0.2104
13405TIP3   OH261705   4.075   1.626   1.275  0.1119 -0.2160  0.3547
13405TIP3    H161706   4.122   1.698   1.317  1.0652 -1.0604  0.7631
13405TIP3    H261707   4.030   1.667   1.201 -0.6365  1.0778  1.4803
13406TIP3   OH261708   3.655   5.760  16.434 -0.1052 -0.4459 -0.6226
13406TIP3    H161709   3.733   5.791  16.387 -1.1847  0.5636 -1.8695
13406TIP3    H261710   3.661   5.801  16.520  0.4522  0.1269 -0.9218
13407TIP3   OH261711   5.736   5.143  11.357  0.2590 -0.9241  0.3937
13407TIP3    H161712   5.675   5.131  11.429 -1.3485 -1.0599 -0.9405
13407TIP3    H261713   5.726   5.065  11.303 -1.8157  0.9811 -2.2482
13408TIP3   OH261714   6.092   5.551   0.364  0.3789  0.1266  0.0732
13408TIP3    H161715   6.021   5.535   0.427  1.4100 -0.2930  1.1738
13408TIP3    H261716   6.171   5.555   0.418  1.2665  0.0432 -1.1792
13409TIP3   OH261717   1.530   5.926  12.570  0.5007  0.4160  0.1797
13409TIP3    H161718   1.554   5.850  12.622  0.8232  0.0418 -0.5158
13409TIP3    H261719   1.459   5.896  12.514  0.7442  0.5737 -0.2198
13410TIP3   OH261720   0.030   4.982  15.933  0.2604  0.6961 -0.2064
13410TIP3    H161721  -0.025   4.997  16.010 -0.6645 -2.4593 -0.0870
13410TIP3    H261722  -0.033   4.971  15.861  0.8473 -0.4228 -0.5715
13411TIP3   OH261723   4.384   2.840  17.186  0.1355  0.1156  0.0783
13411TIP3    H161724   4.303   2.872  17.147  0.0783  1.8213  1.4636
13411TIP3    H261725   4.356   2.780  17.256  0.1404 -0.4608 -0.4032
13412TIP3   OH261726   1.726   4.747  15.046 -0.1650  0.3123 -0.4027
13412TIP3    H161727   1.706   4.812  15.114  0.6160 -1.3277  1.4798
13412TIP3    H261728   1.795   4.788  14.994 -0.0973  1.2264  0.3637
13413TIP3   OH261729   4.704   5.954   3.328  0.3759  0.7965  0.7287
13413TIP3    H161730   4.719   5.998   3.412 -0.9148  1.2208  0.7603
13413TIP3    H261731   4.612   5.928   3.331  1.0229 -1.8028  0.6355
13414TIP3   OH261732   6.783   1.267  16.317  0.0555  0.8187 -0.4900
13414TIP3    H161733   6.729   1.320  16.258 -0.4769  1.9519  0.9507
13414TIP3    H261734   6.720   1.220  16.371  0.5081  1.2361  0.4142
13415TIP3   OH261735   3.695   2.381  12.002 -0.8529 -0.5680  0.0832
13415TIP3    H161736   3.632   2.334  11.947  1.4225 -1.9276 -1.5557
13415TIP3    H261737   3.725   2.454  11.948 -1.3239  0.3095  1.0014
13416TIP3   OH261738   1.493   5.193   2.361 -0.1706 -0.0698  0.3219
13416TIP3    H161739   1.457   5.122   2.414 -0.4163 -1.1916 -1.2981
13416TIP3    H261740   1.493   5.269   2.420 -0.8693 -1.1463  1.7651
13417TIP3   OH261741   5.693   3.866  11.636  0.2915  0.0752 -0.1298
13417TIP3    H161742   5.729   3.943  11.592 -1.7130  1.9304  1.3015
13417TIP3    H261743   5.763   3.837  11.695  1.8587 -0.5987 -2.1795
13418TIP3   OH261744   4.057   3.590  13.210  0.4334 -0.5427  0.0524
13418TIP3    H161745   4.117   3.629  13.275  1.3637  1.1973 -1.7344
13418TIP3    H261746   3.975   3.638  13.222  0.9346  0.5567 -0.7266
13419TIP3   OH261747   0.860   6.497  15.290 -0.1243  0.0734 -0.3224
13419TIP3    H161748   0.900   6.529  15.209  0.9766  0.1934  0.2552
13419TIP3    H261749   0.833   6.576  15.337 -0.5178  0.0114 -0.4358
13420TIP3   OH261750   1.371   3.477  12.110 -0.5904  0.0733  0.1888
13420TIP3    H161751   1.328   3.456  12.028 -0.2738  1.7652 -0.4494
13420TIP3    H261752   1.391   3.392  12.150  0.1060 -0.8172 -1.9366
13421TIP3   OH261753   1.157   2.843   2.846 -0.4511 -0.2739 -0.7064
13421TIP3    H161754   1.238   2.793   2.853 -0.1935  0.3420  1.2655
13421TIP3    H261755   1.089   2.785   2.880 -0.1183  0.6685  1.7994
13422TIP3   OH261756   1.096   4.688   2.493 -0.1068  0.1204 -0.3411
13422TIP3    H161757   1.151   4.750   2.444 -0.3890 -0.0792 -0.9071
13422TIP3    H261758   1.018   4.738   2.515 -0.6871 -0.2664 -1.4905
13423TIP3   OH261759   2.705   1.879  12.639 -0.0614  0.4364  0.1838
13423TIP3    H161760   2.644   1.940  12.680  0.1959  2.0098 -1.6352
13423TIP3    H261761   2.661   1.794  12.644 -1.2757  1.0907  1.0989
13424TIP3   OH261762   6.732   2.922  14.042  0.0873  0.5317  0.0646
13424TIP3    H161763   6.712   3.006  14.084 -0.8094  0.5925 -0.4669
13424TIP3    H261764   6.699   2.931  13.953 -0.5110 -0.5697  0.1611
13425TIP3   OH261765   0.883   3.639   4.985 -0.1820  0.0848 -0.1529
13425TIP3    H161766   0.843   3.563   4.943 -0.2484 -0.2018  0.4167
13425TIP3    H261767   0.971   3.609   5.009 -0.3431  0.0576  0.4198
13426TIP3   OH261768   0.548   4.386   0.240  0.0885  0.2399 -0.3163
13426TIP3    H161769   0.540   4.431   0.156 -0.7037  0.0710 -0.3393
13426TIP3    H261770   0.641   4.390   0.261  0.0109  2.1897 -0.1551
13427TIP3   OH261771   6.798   1.099   0.324 -0.0416 -0.5262 -0.1657
13427TIP3    H161772   6.887   1.071   0.305 -0.6350 -1.7313 -1.3503
13427TIP3    H261773   6.808   1.166   0.392  1.8537  0.4263 -1.2803
13428TIP3   OH261774   2.947   0.254  16.253  0.7734 -0.2445 -0.2767
13428TIP3    H161775   2.923   0.179  16.199  1.8586 -1.6512  1.1035
13428TIP3    H261776   2.928   0.330  16.198 -2.4069 -1.3740 -0.9254
13429TIP3   OH261777   6.811   6.778  16.618 -0.0471  0.7607  0.5630
13429TIP3    H161778   6.883   6.726  16.584  0.0259  1.6180 -0.6777
13429TIP3    H261779   6.735   6.750  16.567 -0.6403 -0.2121  1.9291
13430TIP3   OH261780   0.563   4.924  12.841 -0.7157  0.4457  0.2157
13430TIP3    H161781   0.535   4.910  12.750 -0.3780 -0.6505  0.2672
13430TIP3    H261782   0.490   4.971  12.882 -1.2908  0.0728 -0.3632
13431TIP3   OH261783   2.466   3.156  15.886  0.2345  0.0563 -0.8336
13431TIP3    H161784   2.440   3.077  15.838  1.5629 -1.4843  0.8598
13431TIP3    H261785   2.411   3.154  15.965 -1.0503  1.8906 -1.6154
13432TIP3   OH261786   5.242   3.923  16.732 -0.6722  0.0632 -0.0608
13432TIP3    H161787   5.305   3.902  16.801  0.9238  1.9399 -0.8242
13432TIP3    H261788   5.259   3.859  16.663 -0.6806 -0.3983  0.3597
13433TIP3   OH261789   0.952   6.600   4.899  0.2993 -0.0031  0.7035
13433TIP3    H161790   0.951   6.610   4.994 -0.7669  0.8766  0.6252
13433TIP3    H261791   0.878   6.653   4.869 -2.0728 -3.4948 -0.2729
13434TIP3   OH261792   1.923   3.535   5.000  0.3008  0.3099 -0.1296
13434TIP3    H161793   1.975   3.458   5.023  0.4206  0.5136  0.3046
13434TIP3    H261794   1.987   3.597   4.965  0.4650  0.7810  0.9469
13435TIP3   OH261795   2.464   4.428  13.019 -0.8319  0.2934 -0.3846
13435TIP3    H161796   2.452   4.349  12.966  2.0909 -1.2432  0.9768
13435TIP3    H261797   2.545   4.467  12.986  0.4012 -0.0468  1.9503
13436TIP3   OH261798   0.358   5.421  13.140  0.0571 -0.0884  0.4100
13436TIP3    H161799   0.422   5.408  13.071  0.1963 -1.8011  0.8332
13436TIP3    H261800   0.293   5.480  13.101  1.5817  1.2694 -0.1904
13437TIP3   OH261801   4.465   3.779  13.433 -0.2159  0.3052 -0.0014
13437TIP3    H161802   4.524   3.852  13.452 -1.5229  1.4073 -0.0131
13437TIP3    H261803   4.454   3.736  13.517  0.5647  0.1023  0.0081
13438TIP3   OH261804   6.122   5.636  16.272  0.3059 -0.0681  0.6240
13438TIP3    H161805   6.173   5.652  16.352 -0.8290 -0.9972  1.5883
13438TIP3    H261806   6.153   5.551  16.241  1.4694  0.7557 -0.5397
13439TIP3   OH261807   1.839   3.057   0.060  0.5208 -0.1940 -0.1312
13439TIP3    H161808   1.902   3.054  -0.012  0.4576  0.1936 -0.2071
13439TIP3    H261809   1.754   3.063   0.017  0.5724  2.2171 -0.0736
13440TIP3   OH261810   0.315   0.068  11.653  0.3808  0.2461 -0.2855
13440TIP3    H161811   0.333   0.109  11.569 -0.6950 -1.0564 -1.1857
13440TIP3    H261812   0.399   0.034  11.683  0.7044  0.4160 -0.9932
13441TIP3   OH261813   1.476   6.609  17.160  0.0103  0.1944  0.3142
13441TIP3    H161814   1.528   6.555  17.220 -1.6487 -0.4930  1.1909
13441TIP3    H261815   1.389   6.612  17.200 -0.3757  2.1933 -0.5568
13442TIP3   OH261816   1.387   3.648   4.478  0.4458 -1.0405 -0.6766
13442TIP3    H161817   1.331   3.573   4.498  0.4491 -1.0621 -0.7492
13442TIP3    H261818   1.330   3.708   4.429 -0.3176  0.1400  1.5274
13443TIP3   OH261819   0.864   1.744   5.191 -0.5480  0.0984 -0.7004
13443TIP3    H161820   0.818   1.828   5.194  0.7090  1.0549 -3.8945
13443TIP3    H261821   0.796   1.681   5.164 -1.0876  0.4497 -0.1879
13444TIP3   OH261822   4.941   4.762  14.786  0.0020 -0.1794  0.3226
13444TIP3    H161823   4.876   4.781  14.853  0.2676  0.8357  0.2998
13444TIP3    H261824   4.924   4.671  14.762 -0.6805 -0.2728  1.1136
13445TIP3   OH261825   2.183   6.569   3.211 -0.3653  0.0173  0.0021
13445TIP3    H161826   2.170   6.476   3.191 -1.9704 -0.1218  1.4641
13445TIP3    H261827   2.226   6.570   3.296 -0.5038  0.6172  0.0686
13446TIP3   OH261828   0.511   5.912   0.514 -0.5930  0.0820 -0.4180
13446TIP3    H161829   0.574   5.939   0.580 -0.9193 -2.2287  0.9417
13446TIP3    H261830   0.459   5.991   0.497  0.2853  1.0497  1.1810
13447TIP3   OH261831   6.084   3.436   3.880 -0.5187 -0.0820 -0.1357
13447TIP3    H161832   6.019   3.494   3.919  1.1503  1.3218  0.6574
13447TIP3    H261833   6.083   3.358   3.936 -1.9305 -0.3757 -0.5159
13448TIP3   OH261834   2.057   3.188   4.738 -0.2160  0.6455  0.3425
13448TIP3    H161835   2.024   3.262   4.687  0.1512 -0.2482 -1.2748
13448TIP3    H261836   1.978   3.138   4.761 -0.6996  2.5145  3.2129
13449TIP3   OH261837   1.062   5.660  12.233 -0.2146  0.5679  0.4558
13449TIP3    H161838   0.968   5.646  12.243  0.0366 -1.2587  0.7175
13449TIP3    H261839   1.075   5.753  12.246 -2.2656  1.2619 -1.7644
13450TIP3   OH261840   6.824   3.422   0.341 -0.0209  0.0696 -0.5922
13450TIP3    H161841   6.867   3.495   0.386  1.3802 -0.2661 -1.2938
13450TIP3    H261842   6.862   3.424   0.253  0.2017 -1.6219 -0.5618
13451TIP3   OH261843   1.530   1.326   0.346  0.1168  0.2338 -0.4612
13451TIP3    H161844   1.441   1.295   0.359  0.2539  0.6083  1.8246
13451TIP3    H261845   1.556   1.291   0.261 -1.8200 -0.7727 -0.6909
13452TIP3   OH261846   0.457   6.782  17.173 -0.1266  0.1307  0.4928
13452TIP3    H161847   0.401   6.821  17.106  2.0079  1.7644 -0.4600
13452TIP3    H261848   0.491   6.702  17.133 -1.6726 -0.8697  1.0761
13453TIP3   OH261849   6.766   6.476  12.344 -0.9429  0.0162  0.2445
13453TIP3    H161850   6.836   6.434  12.393 -1.2266  0.5694  1.1469
13453TIP3    H261851   6.688   6.424  12.363 -0.7510 -0.7552 -0.9677
13454TIP3   OH261852   4.157   2.195  15.948  0.5535  0.2043 -0.4058
13454TIP3    H161853   4.227   2.206  16.011  0.8880 -0.4514 -0.6475
13454TIP3    H261854   4.199   2.157  15.871 -0.3056 -1.8436  0.0533
13455TIP3   OH261855   2.154   1.799  15.016 -0.0353  0.2266 -0.3927
13455TIP3    H161856   2.081   1.739  15.028  1.3794 -1.4966  0.0827
13455TIP3    H261857   2.168   1.838  15.102 -1.4235  1.8738 -0.8681
13456TIP3   OH261858   6.069   6.503   2.395 -1.1020  0.0254  0.0670
13456TIP3    H161859   6.039   6.518   2.306  0.7951  0.3506 -0.5722
13456TIP3    H261860   6.035   6.577   2.445 -0.7316  0.7827 -0.7698
13457TIP3   OH261861   1.038   4.821   3.790  0.1865 -0.1333 -0.0704
13457TIP3    H161862   1.012   4.881   3.860 -0.2049 -3.1145  2.5526
13457TIP3    H261863   0.957   4.798   3.746 -0.0790 -0.8358  0.7627
13458TIP3   OH261864   1.595   3.687  16.598  0.0084  0.0465 -0.2639
13458TIP3    H161865   1.594   3.782  16.604  0.8847  0.1770 -1.6698
13458TIP3    H261866   1.575   3.657  16.686 -1.5198  1.5199 -0.0566
13459TIP3   OH261867   0.282   4.888   3.254  0.2042  0.3896 -0.2349
13459TIP3    H161868   0.366   4.907   3.296  0.7906  0.0488 -1.2364
13459TIP3    H261869   0.305   4.845   3.172 -0.9718 -0.4233 -0.1686
13460TIP3   OH261870   5.326   1.147   1.437 -0.2259  0.3523 -0.5082
13460TIP3    H161871   5.387   1.131   1.366 -0.2058  0.7857 -0.5893
13460TIP3    H261872   5.298   1.059   1.465  1.5091  0.0769  0.4847
13461TIP3   OH261873   4.960   1.121  15.426  0.1233  0.4526 -0.1107
13461TIP3    H161874   4.928   1.066  15.355  1.6127  0.7447 -1.0592
13461TIP3    H261875   4.989   1.059  15.493 -1.4873  0.1794  0.3755
13462TIP3   OH261876   1.689   3.261   2.084  0.8028 -0.5296 -0.3308
13462TIP3    H161877   1.700   3.167   2.071  2.0251 -0.6824  1.3632
13462TIP3    H261878   1.682   3.298   1.996  1.5971 -2.0629 -1.0685
13463TIP3   OH261879   2.118   0.721  15.085 -0.4882  0.0679 -0.6095
13463TIP3    H161880   2.173   0.736  15.007 -0.5145 -0.5971 -0.7612
13463TIP3    H261881   2.073   0.804  15.098  0.2696  0.5116 -0.7085
13464TIP3   OH261882   0.029   5.914   3.822 -0.2033  0.0406  0.1098
13464TIP3    H161883   0.093   5.856   3.862  0.4453  0.0375 -0.9073
13464TIP3    H261884   0.009   5.873   3.738 -1.5047  0.0671  0.3827
13465TIP3   OH261885   1.258   0.271   0.028  0.2762 -0.6320 -0.3312
13465TIP3    H161886   1.313   0.348   0.009  1.0672 -1.2531 -0.6142
13465TIP3    H261887   1.203   0.299   0.101  0.6360  0.1677 -0.3486
13466TIP3   OH261888   4.367   3.395  14.150  0.9624 -0.3337  0.0484
13466TIP3    H161889   4.330   3.317  14.192 -0.8548  0.4749  0.0292
13466TIP3    H261890   4.295   3.457  14.147  2.0570  0.9426 -1.0028
13467TIP3   OH261891   5.973   4.519  12.385  0.0479  0.0065  0.3705
13467TIP3    H161892   6.004   4.445  12.438 -0.4248  0.6106  1.5330
13467TIP3    H261893   6.036   4.525  12.313  0.9536 -0.5938  1.0828
13468TIP3   OH261894   3.072   3.228  12.941  0.2130 -0.1097 -0.6032
13468TIP3    H161895   3.034   3.297  12.886  0.1058 -0.2565 -0.7136
13468TIP3    H261896   3.012   3.154  12.931  1.1567 -0.7650 -1.7502
13469TIP3   OH261897   4.017   4.808  10.264 -0.4450  0.4281 -0.0214
13469TIP3    H161898   4.097   4.828  10.313  0.7380 -1.0936 -1.2059
13469TIP3    H261899   4.017   4.871  10.192 -0.9805  1.2141  0.6571
13470TIP3   OH261900   2.214   1.100  14.424 -0.1283  0.5994  0.4698
13470TIP3    H161901   2.227   1.028  14.486  1.7529  1.2762  0.9368
13470TIP3    H261902   2.179   1.058  14.345  1.0327 -0.8559  0.6857
13471TIP3   OH261903   5.546   3.938  16.504 -0.1106 -0.5043  0.8098
13471TIP3    H161904   5.612   3.869  16.515  0.0867 -0.1904  1.7517
13471TIP3    H261905   5.499   3.939  16.587 -2.1931 -1.5927 -0.3009
13472TIP3   OH261906   5.771   3.275  13.744  0.1358 -0.4484 -0.0785
13472TIP3    H161907   5.830   3.343  13.777  1.0480 -0.8899 -0.7461
13472TIP3    H261908   5.764   3.293  13.650  1.6356 -2.1410 -0.5716
13473TIP3   OH261909   1.515   5.479   3.594  0.0820 -0.3252 -0.1271
13473TIP3    H161910   1.491   5.421   3.667  0.3146  2.9481  2.8416
13473TIP3    H261911   1.611   5.476   3.593  0.0730 -0.5415 -0.4912
13474TIP3   OH261912   5.264   3.726   5.038  0.0123 -0.0170 -0.3773
13474TIP3    H161913   5.350   3.761   5.012  1.3563 -1.5789  1.6248
13474TIP3    H261914   5.202   3.795   5.014  1.9541  1.6961 -0.8058
13475TIP3   OH261915   5.001   2.138  11.127  0.0249 -1.1930  0.4206
13475TIP3    H161916   4.970   2.048  11.115  1.8338 -1.7025 -0.9383
13475TIP3    H261917   4.950   2.190  11.065 -0.3150 -1.4683  0.4720
13476TIP3   OH261918   5.497   2.050   0.519  0.1286 -0.1493  0.0449
13476TIP3    H161919   5.445   1.970   0.521  0.5201 -0.4040 -0.0227
13476TIP3    H261920   5.499   2.075   0.426  0.0034 -0.0562  0.0664
13477TIP3   OH261921   2.856   1.420  14.269 -0.5703 -0.3615  0.0491
13477TIP3    H161922   2.910   1.499  14.263 -1.2369  0.1863  0.8525
13477TIP3    H261923   2.771   1.446  14.232 -0.4184 -1.0838 -0.8287
13478TIP3   OH261924   5.845   4.731   3.679 -0.4758  0.0472 -0.6761
13478TIP3    H161925   5.886   4.647   3.659  0.2327  0.3129 -0.3892
13478TIP3    H261926   5.913   4.796   3.661 -0.5226  0.4488  0.4925
13479TIP3   OH261927   1.824   1.355   3.968 -0.2122 -0.3112  0.2156
13479TIP3    H161928   1.731   1.377   3.968 -0.1003  0.2227  1.2566
13479TIP3    H261929   1.832   1.284   3.903 -0.8258  1.6515 -2.1358
13480TIP3   OH261930   4.206   5.237  16.874 -0.2599  0.0268  0.1956
13480TIP3    H161931   4.152   5.233  16.795 -0.5100  0.9922  0.3040
13480TIP3    H261932   4.165   5.305  16.928  0.6325  0.2544  0.6009
13481TIP3   OH261933   2.427   2.236  15.261  0.1369 -0.0694  0.4348
13481TIP3    H161934   2.356   2.299  15.273 -1.5838 -1.5417 -1.3932
13481TIP3    H261935   2.506   2.288  15.270 -1.1405  1.8444  1.5183
13482TIP3   OH261936   2.235   2.882   2.778  0.4222 -0.0016  0.3590
13482TIP3    H161937   2.160   2.822   2.782  0.2682  0.1365 -0.2678
13482TIP3    H261938   2.285   2.852   2.702  0.3893  0.6030  0.0922
13483TIP3   OH261939   1.818   1.400  16.407 -0.2330 -0.1650 -0.1988
13483TIP3    H161940   1.895   1.365  16.451 -0.5453 -1.3020 -0.5272
13483TIP3    H261941   1.745   1.379  16.465 -0.1270  2.8621  1.2290
13484TIP3   OH261942   6.579   1.614   1.806 -0.9236  0.1228  0.3207
13484TIP3    H161943   6.555   1.524   1.784 -1.8424  0.4533 -0.0981
13484TIP3    H261944   6.568   1.620   1.901  0.9135 -0.6959  0.6318
13485TIP3   OH261945   2.892   4.701   4.928 -0.0560  0.3754  0.0577
13485TIP3    H161946   2.920   4.620   4.885  1.5188  0.0209  1.6465
13485TIP3    H261947   2.973   4.742   4.957 -0.8687  2.2448 -0.1533
13486TIP3   OH261948   6.315   3.946   0.937 -0.0157  0.2373  0.5273
13486TIP3    H161949   6.289   3.857   0.959 -0.8313 -0.0945 -1.5535
13486TIP3    H261950   6.237   3.999   0.952  0.4737  0.6455  1.7789
13487TIP3   OH261951   2.287   0.726  16.700  0.4682  0.0695  0.1622
13487TIP3    H161952   2.334   0.694  16.777  0.3916  0.8004  0.5180
13487TIP3    H261953   2.348   0.713  16.628  0.8637  0.1573  0.4775
13488TIP3   OH261954   4.059   3.874  14.050 -0.0918 -0.5091  0.2651
13488TIP3    H161955   3.978   3.852  14.003  0.3420  1.1489 -1.3876
13488TIP3    H261956   4.066   3.969  14.043  1.4381 -0.5026  1.3639
13489TIP3   OH261957   4.863   1.111  13.125 -0.7657 -0.3655  0.0008
13489TIP3    H161958   4.958   1.100  13.123 -0.3724  2.3808  0.0140
13489TIP3    H261959   4.838   1.086  13.214  0.3376  1.0435  0.7658
13490TIP3   OH261960   6.300   6.316   4.901  0.5701  0.3964  0.3140
13490TIP3    H161961   6.292   6.236   4.848  0.5873 -0.9371  2.2131
13490TIP3    H261962   6.394   6.323   4.917  0.3874 -0.4246  1.8768
13491TIP3   OH261963   1.949   2.691   5.081  0.5906  0.0734  0.1428
13491TIP3    H161964   1.894   2.617   5.107 -0.1469 -1.6728 -5.1160
13491TIP3    H261965   2.038   2.663   5.102  0.2950 -2.3338 -1.3458
13492TIP3   OH261966   6.483   1.966   0.035 -0.4224 -0.0096  0.2784
13492TIP3    H161967   6.410   1.920   0.078  0.8234 -3.8011 -1.2637
13492TIP3    H261968   6.444   2.003  -0.044 -1.3042  0.8832  1.1090
13493TIP3   OH261969   0.269   3.380  13.704  0.1283  0.2935  0.0095
13493TIP3    H161970   0.294   3.388  13.796  0.8205  0.0372 -0.1500
13493TIP3    H261971   0.347   3.345  13.661 -0.8302 -1.5458 -0.3355
13494TIP3   OH261972   4.290   3.798  12.368  0.5578  0.0916  0.2159
13494TIP3    H161973   4.239   3.752  12.302 -0.9329  0.1013  1.2863
13494TIP3    H261974   4.367   3.744  12.382 -0.8436 -1.8209  1.0038
13495TIP3   OH261975   5.643   4.461   1.928 -0.3472  0.1095 -0.3807
13495TIP3    H161976   5.679   4.430   2.011  0.8120  2.2007 -0.0236
13495TIP3    H261977   5.712   4.444   1.864 -0.0344  1.0940 -0.3305
13496TIP3   OH261978   0.806   4.717   1.327 -0.0923  0.0965  0.0353
13496TIP3    H161979   0.804   4.705   1.422  0.3613  1.2101  0.2074
13496TIP3    H261980   0.798   4.629   1.291  0.2118 -0.3900  1.1143
13497TIP3   OH261981   5.035   2.706   5.124 -0.3636  0.1251 -0.3730
13497TIP3    H161982   5.128   2.728   5.114 -0.1254  0.3509  1.9319
13497TIP3    H261983   5.014   2.657   5.044  2.3368 -1.8488 -0.0386
13498TIP3   OH261984   1.965   0.205   0.471  0.0014 -0.3130  0.1095
13498TIP3    H161985   2.004   0.288   0.443  0.4986 -0.2153  1.0465
13498TIP3    H261986   2.010   0.138   0.420  1.6864 -0.2370  1.4054
13499TIP3   OH261987   6.181   0.218  12.931  0.5092  0.1051 -0.1372
13499TIP3    H161988   6.179   0.314  12.940 -3.3326  0.0019  2.5120
13499TIP3    H261989   6.135   0.200  12.849 -0.2580  0.5265  0.1932
13500TIP3   OH261990   6.032   1.204   3.540  0.0061 -0.0213 -0.5010
13500TIP3    H161991   5.988   1.241   3.463 -0.1780  1.9561  0.4752
13500TIP3    H261992   5.966   1.151   3.583 -0.4381  0.2969 -0.7806
13501TIP3   OH261993   5.152   2.692  15.047  0.5219 -0.1499 -0.1889
13501TIP3    H161994   5.232   2.678  14.996  1.7858  0.4905  1.5404
13501TIP3    H261995   5.156   2.627  15.117 -0.5074 -0.1358 -0.1103
13502TIP3   OH261996   5.698   3.071   4.459 -0.5949  0.1790 -0.0770
13502TIP3    H161997   5.771   3.045   4.403 -0.3186  0.4420  0.1576
13502TIP3    H261998   5.723   3.157   4.492  0.5729 -1.0940  2.6822
13503TIP3   OH261999   2.064   0.092   3.528 -0.0701 -0.0404  0.2564
13503TIP3    H162000   2.003   0.159   3.560 -0.2512  0.4695 -1.1037
13503TIP3    H262001   2.149   0.119   3.562 -0.5215 -0.5913  1.9183
13504TIP3   OH262002   3.816   4.479  14.566 -0.5894 -0.1265  0.2758
13504TIP3    H162003   3.910   4.496  14.574 -0.6083  0.1546 -0.0758
13504TIP3    H262004   3.775   4.565  14.576 -0.6621  0.1580 -1.9273
13505TIP3   OH262005   5.942   6.148   1.361 -0.1978 -0.8347  0.3652
13505TIP3    H162006   5.903   6.121   1.278  1.8137  0.6071 -1.1668
13505TIP3    H262007   5.881   6.212   1.398 -0.2428 -0.0818 -0.9715
13506TIP3   OH262008   6.429   0.261   4.216  0.5355 -0.1878 -0.0122
13506TIP3    H162009   6.415   0.349   4.252  1.2248 -0.8701  2.0668
13506TIP3    H262010   6.467   0.277   4.129 -3.2087  1.5608 -1.5475
13507TIP3   OH262011   0.862   5.277  11.529 -0.3410 -0.3341  0.5785
13507TIP3    H162012   0.857   5.195  11.480 -0.5373 -0.9384  1.5786
13507TIP3    H262013   0.874   5.249  11.620  0.3174  0.7626  0.8406
13508TIP3   OH262014   5.941   2.194   5.974  0.1668  0.5330 -0.4300
13508TIP3    H162015   5.988   2.164   6.051 -0.5231  2.0694  0.6288
13508TIP3    H262016   5.942   2.290   5.980 -0.7962  0.6644 -1.7781
13509TIP3   OH262017   3.664   4.600  15.735  0.5093 -0.6324 -0.7232
13509TIP3    H162018   3.736   4.559  15.685  0.0962 -2.0490 -0.2095
13509TIP3    H262019   3.666   4.556  15.820  0.7187  1.2235  0.2755
13510TIP3   OH262020   6.139   4.225   3.269 -0.0135  0.4602 -0.3858
13510TIP3    H162021   6.184   4.267   3.342 -1.4712  1.8685 -0.2549
13510TIP3    H262022   6.047   4.227   3.292 -0.2969 -1.4993 -1.0818
13511TIP3   OH262023   3.757   2.837  17.133  0.2881 -0.2983 -0.2931
13511TIP3    H162024   3.675   2.790  17.150 -1.3239  1.2499 -2.9541
13511TIP3    H262025   3.801   2.785  17.067  1.5617 -1.1541  1.1725
13512TIP3   OH262026   2.212   5.198  11.734 -0.0631 -0.1240  0.5874
13512TIP3    H162027   2.192   5.239  11.650 -1.4376  0.8307  1.3467
13512TIP3    H262028   2.145   5.129  11.743  0.7294 -0.9324  0.4361
13513TIP3   OH262029   6.133   3.530  12.831 -0.5248  0.3762 -0.1114
13513TIP3    H162030   6.090   3.466  12.775 -1.0997  1.9598 -1.5686
13513TIP3    H262031   6.162   3.599  12.771 -0.4918  1.7927  1.4519
13514TIP3   OH262032   2.079   6.522  15.726 -0.4723 -0.4460 -0.2409
13514TIP3    H162033   2.052   6.577  15.799  0.0476  0.0959 -0.4524
13514TIP3    H262034   2.161   6.561  15.696 -0.9838 -0.3176 -1.4965
13515TIP3   OH262035   6.699   1.860   2.536 -0.7441 -0.0519 -0.2769
13515TIP3    H162036   6.644   1.867   2.459  2.5446  3.6102 -2.6754
13515TIP3    H262037   6.769   1.800   2.511  0.3500  1.1593 -0.2512
13516TIP3   OH262038   5.676   4.141   3.671  0.0228  0.4267  0.8480
13516TIP3    H162039   5.726   4.182   3.600 -1.7978 -0.6846 -1.1915
13516TIP3    H262040   5.719   4.057   3.684 -1.1199 -0.4573 -0.7871
13517TIP3   OH262041   6.700   5.775  12.292 -0.1719 -0.5373 -0.2348
13517TIP3    H162042   6.683   5.699  12.349  1.7851 -2.4064 -1.9848
13517TIP3    H262043   6.794   5.773  12.278 -0.4565  0.5396 -2.6155
13518TIP3   OH262044   0.459   2.311  13.715 -0.6948  0.0330  0.0874
13518TIP3    H162045   0.529   2.375  13.727 -0.5388 -0.3824  1.6497
13518TIP3    H262046   0.505   2.228  13.701 -0.8956  0.2079 -1.8123
13519TIP3   OH262047   5.429   5.447  15.086 -0.0059  0.0572 -0.6696
13519TIP3    H162048   5.453   5.369  15.036 -0.3189  0.8434 -2.0986
13519TIP3    H262049   5.406   5.414  15.173  0.4943 -1.3553 -1.0521
13520TIP3   OH262050   1.583   6.094   3.925 -0.0953  0.0617 -0.4528
13520TIP3    H162051   1.584   6.017   3.869 -1.0812  0.0409 -0.4637
13520TIP3    H262052   1.498   6.091   3.968 -0.8022  1.9432 -1.5896
13521TIP3   OH262053   1.079   3.621  16.338  0.8346 -0.3982 -0.0593
13521TIP3    H162054   1.105   3.554  16.275  0.4431 -0.8430  0.2551
13521TIP3    H262055   1.149   3.622  16.403  1.5365  0.4617 -0.7886
13522TIP3   OH262056   1.206   2.527   1.591 -0.1338  0.6481 -0.3818
13522TIP3    H162057   1.254   2.444   1.588  0.0987  0.7944 -1.4263
13522TIP3    H262058   1.269   2.591   1.558 -0.0716  1.3744  1.1090
13523TIP3   OH262059   1.502   0.502   2.927  0.1958  0.4014  0.0367
13523TIP3    H162060   1.447   0.567   2.971 -3.0155 -1.3045 -1.0423
13523TIP3    H262061   1.509   0.430   2.989 -0.9351 -0.3731 -0.6940
13524TIP3   OH262062   6.511   2.080   4.796  0.2924  0.0427 -0.3958
13524TIP3    H162063   6.451   2.024   4.846  1.4478 -0.3781  0.5759
13524TIP3    H262064   6.473   2.167   4.802  0.9421  0.2329  2.2397
13525TIP3   OH262065   5.490   2.931  14.235  0.3650  0.0013  0.4557
13525TIP3    H162066   5.462   3.022  14.243  1.1319  0.3723 -0.7854
13525TIP3    H262067   5.415   2.885  14.200  1.3146  1.1030 -3.4741
13526TIP3   OH262068   1.097   0.007   1.419  0.1085  0.4011  0.0760
13526TIP3    H162069   1.065  -0.019   1.506 -2.3495  0.1205 -0.8293
13526TIP3    H262070   1.027   0.062   1.383  0.5247 -0.4243 -2.1754
13527TIP3   OH262071   6.245   4.098  11.212  0.9453 -0.8147  0.1075
13527TIP3    H162072   6.231   4.129  11.302 -2.5346 -0.9437 -0.2441
13527TIP3    H262073   6.234   4.176  11.158 -1.2556 -1.3681 -0.3695
13528TIP3   OH262074   3.677   4.977  13.964  0.0691  0.3505 -0.0498
13528TIP3    H162075   3.699   5.047  14.025  1.4262  0.6595 -0.8725
13528TIP3    H262076   3.641   4.908  14.020  2.8497 -0.0821  1.3922
13529TIP3   OH262077   4.787   3.390  12.095  0.5322  0.2339 -0.0923
13529TIP3    H162078   4.790   3.433  12.009  0.5477 -1.5436 -1.0455
13529TIP3    H262079   4.749   3.304  12.077 -1.8626  0.7158  2.1427
13530TIP3   OH262080   4.888   4.662   3.042  0.0244 -0.1859  0.1210
13530TIP3    H162081   4.962   4.601   3.043  0.6459  0.5692  0.7460
13530TIP3    H262082   4.847   4.646   2.957  1.3576 -0.0835 -0.5778
13531TIP3   OH262083   0.472   4.773  11.761 -0.0845 -0.1534 -0.3961
13531TIP3    H162084   0.534   4.803  11.694 -0.7521  0.8693 -0.5771
13531TIP3    H262085   0.520   4.781  11.843  0.1500  0.2836 -0.5712
13532TIP3   OH262086   1.473   4.661  15.395 -0.1677  0.2528  0.0405
13532TIP3    H162087   1.420   4.678  15.317  0.8627 -0.3429 -0.7975
13532TIP3    H262088   1.546   4.723  15.389 -0.4814  0.7350  0.9432
13533TIP3   OH262089   3.735   0.854   1.652  0.0283  0.2035  0.3940
13533TIP3    H162090   3.777   0.937   1.672 -0.3070  0.2043  1.1235
13533TIP3    H262091   3.793   0.788   1.689 -1.1404  0.2499  2.4709
13534TIP3   OH262092   3.717   4.191  15.785 -0.4166  0.1269  0.5796
13534TIP3    H162093   3.626   4.192  15.755 -1.2024 -1.2118  2.6828
13534TIP3    H262094   3.751   4.106  15.757  0.9191  1.3592 -1.9212
13535TIP3   OH262095   0.713   2.864  14.468  0.3611  0.1813 -0.0466
13535TIP3    H162096   0.723   2.769  14.475  2.6606  0.4594  1.6065
13535TIP3    H262097   0.771   2.888  14.395  1.5556  0.4990  0.9798
13536TIP3   OH262098   3.702   0.559   5.969 -0.0715  0.1681 -0.1921
13536TIP3    H162099   3.696   0.653   5.957  2.0554  0.3556 -0.1421
13536TIP3    H262100   3.787   0.535   5.933 -0.5901 -1.7568 -0.2675
13537TIP3   OH262101   2.261   4.713   3.699  0.4618  0.6166 -0.3930
13537TIP3    H162102   2.239   4.685   3.787  0.9382  0.3844 -0.3417
13537TIP3    H262103   2.231   4.641   3.643  0.0631  0.8122 -0.4284
13538TIP3   OH262104   2.427   0.758   1.928  0.1991  0.0406 -0.3807
13538TIP3    H162105   2.332   0.746   1.932  0.2327  0.1247  1.2515
13538TIP3    H262106   2.463   0.688   1.983  1.2802 -1.6717 -3.0854
13539TIP3   OH262107   3.766   6.185  14.569  0.6819 -0.2372 -0.4214
13539TIP3    H162108   3.825   6.172  14.495  0.6526 -2.7718 -0.0734
13539TIP3    H262109   3.691   6.230  14.531  1.7505  0.8197 -1.3699
13540TIP3   OH262110   1.099   0.377  16.961 -0.3874 -0.3221 -0.1786
13540TIP3    H162111   1.161   0.341  17.024 -1.2264 -1.2356  0.1396
13540TIP3    H262112   1.119   0.471  16.960  0.3152 -0.4436  0.6804
13541TIP3   OH262113   2.426   6.397  16.972 -0.0383 -0.3704 -0.8416
13541TIP3    H162114   2.345   6.448  16.966 -0.1167 -0.3931 -0.0124
13541TIP3    H262115   2.402   6.311  16.937 -0.8184 -0.8779  0.8582
13542TIP3   OH262116   4.652   3.725   3.083 -0.3268  0.1148  0.0260
13542TIP3    H162117   4.588   3.680   3.029  0.0882 -0.1108 -0.2768
13542TIP3    H262118   4.638   3.690   3.171 -0.7193  0.1782 -0.0095
13543TIP3   OH262119   2.007   2.477  11.962  0.2813  0.1444 -0.3631
13543TIP3    H162120   2.090   2.519  11.986 -1.8555  3.6299  1.8045
13543TIP3    H262121   2.004   2.398  12.016  2.7279 -0.9257 -1.6160
13544TIP3   OH262122   5.759   3.545   3.260  0.0842 -0.0370 -0.1970
13544TIP3    H162123   5.663   3.550   3.257 -0.0262 -0.8407  1.0657
13544TIP3    H262124   5.786   3.543   3.168 -1.0799  0.4939 -0.5790
13545TIP3   OH262125   6.109   6.268   6.294 -0.2302  0.1875  0.2760
13545TIP3    H162126   6.043   6.296   6.358 -1.6803 -1.8988 -0.1719
13545TIP3    H262127   6.064   6.272   6.210  0.9408  0.7794 -0.3461
13546TIP3   OH262128   2.498   3.760   2.885  0.2970  0.3263 -0.1413
13546TIP3    H162129   2.589   3.741   2.910  0.2740 -0.2860 -0.4873
13546TIP3    H262130   2.454   3.675   2.893  0.0909  0.2935 -1.3830
13547TIP3   OH262131   3.059   3.522  17.169  0.1226  1.1991 -0.5350
13547TIP3    H162132   2.968   3.522  17.198  0.3439 -1.6255  0.5573
13547TIP3    H262133   3.055   3.548  17.077 -2.1034 -0.8557 -1.1245
13548TIP3   OH262134   6.234   0.130   5.349  0.3310  0.5993  0.1009
13548TIP3    H162135   6.275   0.213   5.373  1.8990 -0.2649  0.5372
13548TIP3    H262136   6.140   0.150   5.344  0.5580  2.1442  1.2402
13549TIP3   OH262137   2.615   2.025  16.450 -0.4352 -0.1681 -0.0736
13549TIP3    H162138   2.662   2.096  16.495 -0.9890 -0.6370  1.2958
13549TIP3    H262139   2.526   2.059  16.439 -0.6799 -0.6117  0.5135
13550TIP3   OH262140   2.246   2.870  11.893 -0.1561  0.6461  0.2744
13550TIP3    H162141   2.306   2.861  11.967  0.7186  0.5513 -0.4291
13550TIP3    H262142   2.224   2.780  11.869  2.0381  0.5038 -1.5209
13551TIP3   OH262143   2.460   5.192  13.246 -0.3454 -0.5690  0.0918
13551TIP3    H162144   2.522   5.183  13.318 -0.9294 -0.2599  0.6485
13551TIP3    H262145   2.484   5.123  13.184  3.6618  2.4292 -2.1047
13552TIP3   OH262146   4.737   4.267   2.255 -0.6574  0.5870 -0.1315
13552TIP3    H162147   4.789   4.264   2.175 -1.7237  0.2765 -0.8388
13552TIP3    H262148   4.660   4.214   2.235 -1.8285  2.0002  0.4444
13553TIP3   OH262149   2.598   2.999  12.858  0.0470  0.2484 -0.4060
13553TIP3    H162150   2.581   2.924  12.915 -0.6684 -0.7967 -1.9303
13553TIP3    H262151   2.513   3.018  12.818  0.5582  0.8819 -1.2185
13554TIP3   OH262152   3.810   4.798   4.042  0.4805 -0.1386  0.3744
13554TIP3    H162153   3.721   4.831   4.056  0.9658  1.1104  0.6276
13554TIP3    H262154   3.798   4.704   4.026 -1.0012  0.2155 -0.8945
13555TIP3   OH262155   5.874   2.500  12.561  0.9268 -0.6546  0.0712
13555TIP3    H162156   5.916   2.431  12.510 -0.1697 -0.5975 -0.9283
13555TIP3    H262157   5.836   2.455  12.636  1.7845 -0.8619  0.3920
13556TIP3   OH262158   0.425   3.385  13.961 -0.2720 -0.4124  0.2767
13556TIP3    H162159   0.487   3.405  13.890 -0.9868  1.2566  0.0794
13556TIP3    H262160   0.472   3.405  14.041  0.1236 -1.1412  0.2379
13557TIP3   OH262161   0.434   4.051  16.435 -0.2402  0.1659 -0.1798
13557TIP3    H162162   0.377   4.128  16.431  1.2055  1.2901  0.1960
13557TIP3    H262163   0.472   4.045  16.347 -0.6106 -0.3412 -0.3109
13558TIP3   OH262164   6.827   4.020  13.263 -0.2816 -0.3238 -0.5069
13558TIP3    H162165   6.800   4.107  13.293 -0.5717 -0.6448  0.1884
13558TIP3    H262166   6.867   3.979  13.340 -0.1535 -0.8068 -0.8265
13559TIP3   OH262167   6.539   3.511   2.313 -0.1701 -0.4633 -0.0907
13559TIP3    H162168   6.496   3.582   2.360  2.1212  1.0852 -0.1526
13559TIP3    H262169   6.566   3.550   2.229 -0.1274 -1.8320 -0.7472
13560TIP3   OH262170   2.446   5.818  13.144  0.1907  0.1049 -0.0894
13560TIP3    H162171   2.509   5.775  13.201  0.2764 -0.0165 -0.2758
13560TIP3    H262172   2.442   5.762  13.066 -2.0429 -1.3418  0.9499
13561TIP3   OH262173   1.404   1.905   1.394 -0.0476 -0.6836 -0.0271
13561TIP3    H162174   1.366   1.827   1.353  0.9654 -2.1989  1.7377
13561TIP3    H262175   1.337   1.937   1.453  0.2707 -1.5351  0.8255
13562TIP3   OH262176   0.717   2.202  17.008 -0.4200  0.3298  0.0864
13562TIP3    H162177   0.633   2.196  16.963  1.4279 -1.0923 -3.5235
13562TIP3    H262178   0.726   2.118  17.052 -0.1200 -0.2735 -1.0961
13563TIP3   OH262179   4.269   2.048  11.408 -0.8459  0.2864 -0.2442
13563TIP3    H162180   4.220   2.121  11.446 -3.0840 -0.7766 -0.9204
13563TIP3    H262181   4.291   2.078  11.320  0.1021  0.9034  0.1811
13564TIP3   OH262182   3.669   4.407   5.235 -0.4363 -1.0179 -0.1398
13564TIP3    H162183   3.599   4.464   5.201 -0.6183 -0.5808  0.9302
13564TIP3    H262184   3.747   4.462   5.233 -0.2176 -1.3337 -0.8173
13565TIP3   OH262185   6.168   3.182   4.789  0.4613  0.2054 -0.0330
13565TIP3    H162186   6.079   3.146   4.796  0.9443 -0.7912  1.6855
13565TIP3    H262187   6.164   3.241   4.714 -1.2317 -1.0422 -1.0190
13566TIP3   OH262188   5.696   4.365   1.598  0.2355  0.0335  0.6831
13566TIP3    H162189   5.778   4.343   1.643  1.6500  2.4971 -0.5241
13566TIP3    H262190   5.696   4.309   1.520  1.0364  0.4080  0.4130
13567TIP3   OH262191   4.507   5.341  12.017 -0.1282  0.5733  0.6236
13567TIP3    H162192   4.587   5.374  11.977 -0.1726 -0.3867 -0.3151
13567TIP3    H262193   4.534   5.315  12.105  0.5319  0.5268  0.4180
13568TIP3   OH262194   2.471   2.036  14.751  0.1500  0.7930 -0.0029
13568TIP3    H162195   2.555   2.009  14.713 -0.4047  1.0214 -1.4839
13568TIP3    H262196   2.461   1.983  14.829  1.5059  0.5092 -0.0036
13569TIP3   OH262197   1.766   1.191  15.044 -0.6412  0.4295 -0.1679
13569TIP3    H162198   1.744   1.184  14.951  0.2023  1.1775 -0.4309
13569TIP3    H262199   1.684   1.173  15.089 -0.9234 -0.5667 -1.0361
13570TIP3   OH262200   1.947   6.290  14.580 -0.4973 -0.1647 -0.1039
13570TIP3    H162201   1.983   6.203  14.594 -0.6158 -0.1949  0.0220
13570TIP3    H262202   2.019   6.340  14.541 -0.5595 -0.4290 -0.5547
13571TIP3   OH262203   1.109   0.323   5.869 -0.1915 -0.1038 -0.3852
13571TIP3    H162204   1.148   0.374   5.940  0.0683 -0.5419 -0.2109
13571TIP3    H262205   1.157   0.351   5.791 -1.0514  1.0131 -0.5458
13572TIP3   OH262206   0.203   5.407  12.449 -0.6480 -0.0486 -0.0696
13572TIP3    H162207   0.296   5.417  12.470 -0.9169  0.1784  1.0178
13572TIP3    H262208   0.203   5.341  12.379  0.2184 -1.4954  1.2059
13573TIP3   OH262209   3.272   3.520  11.351  0.2350  0.0385  0.1456
13573TIP3    H162210   3.221   3.539  11.430 -1.4195 -1.1299 -0.5794
13573TIP3    H262211   3.320   3.440  11.374  0.2176  0.0336  0.1653
13574TIP3   OH262212   4.368   1.758  11.987  0.3719 -0.3501  0.3916
13574TIP3    H162213   4.327   1.695  12.046 -0.5307  0.7292  0.9552
13574TIP3    H262214   4.311   1.835  11.991  0.9726  0.1942 -0.9462
13575TIP3   OH262215   3.996   1.317   2.328 -0.2083  0.1224  0.5837
13575TIP3    H162216   3.934   1.364   2.384 -0.2326  0.1536  0.5319
13575TIP3    H262217   3.955   1.319   2.241 -0.8388 -1.1367  0.8308
13576TIP3   OH262218   5.425   3.382   5.671  0.6204 -0.6760 -0.0005
13576TIP3    H162219   5.517   3.409   5.674 -0.1142  2.2962 -0.9149
13576TIP3    H262220   5.396   3.406   5.583 -0.6118 -3.3687 -0.4332
13577TIP3   OH262221   0.682   4.416   3.206  0.7128 -0.5371 -0.0986
13577TIP3    H162222   0.732   4.336   3.187 -0.2643 -1.2475  0.2237
13577TIP3    H262223   0.591   4.389   3.199  0.3546  0.8658 -1.1843
13578TIP3   OH262224   4.967   5.510  11.622  0.3188  0.4251  0.4529
13578TIP3    H162225   5.050   5.473  11.594  0.3380  1.4339 -0.9142
13578TIP3    H262226   4.910   5.502  11.545 -0.6536  0.3281  1.1626
13579TIP3   OH262227   0.391   2.747  16.005 -0.6523 -0.0329  0.8495
13579TIP3    H162228   0.353   2.673  16.053 -3.0038  2.1470  2.6095
13579TIP3    H262229   0.396   2.818  16.069  2.1855  1.2311 -0.5727
13580TIP3   OH262230   6.655   3.993  12.744 -0.0133  0.2873  0.3251
13580TIP3    H162231   6.686   3.992  12.654 -1.2649 -2.4879 -0.1825
13580TIP3    H262232   6.659   3.902  12.772 -0.9438  0.8744  2.6213
13581TIP3   OH262233   4.235   1.876  11.623 -0.2021 -0.3469  0.5149
13581TIP3    H162234   4.288   1.925  11.685  1.2422 -2.2846  0.9005
13581TIP3    H262235   4.245   1.922  11.540  1.3615 -0.1654  0.7887
13582TIP3   OH262236   3.626   4.150   1.563 -0.0421  0.0563  0.2666
13582TIP3    H162237   3.650   4.223   1.620  1.9836 -0.9873  0.8547
13582TIP3    H262238   3.641   4.182   1.475  0.3094  0.5405  0.4988
13583TIP3   OH262239   6.845   0.021  11.542 -0.2428  0.3822 -0.2791
13583TIP3    H162240   6.763   0.068  11.558  0.0165  0.6766  0.2239
13583TIP3    H262241   6.913   0.089  11.542 -0.1216  0.2950 -1.8945
13584TIP3   OH262242   0.107   2.563   1.568  0.4998  0.8271 -0.2652
13584TIP3    H162243   0.031   2.528   1.617  1.5820 -0.3922  0.6187
13584TIP3    H262244   0.106   2.514   1.486  0.8096  0.1641  0.1125
13585TIP3   OH262245   1.912   6.353   5.445 -0.1528 -0.2988  0.2486
13585TIP3    H162246   1.880   6.424   5.500  0.1460 -0.0338  0.0824
13585TIP3    H262247   1.848   6.283   5.456 -0.5517  0.0693  0.2545
13586TIP3   OH262248   5.968   0.097  16.678  0.1407  0.0510  0.4285
13586TIP3    H162249   6.032   0.168  16.668  1.6668 -0.8826  2.5927
13586TIP3    H262250   5.885   0.141  16.692  0.8310  1.4017  0.4113
13587TIP3   OH262251   5.921   2.873   5.675 -0.1525  0.1877 -0.5540
13587TIP3    H162252   5.939   2.906   5.764 -2.3231  0.1882 -0.0586
13587TIP3    H262253   5.826   2.868   5.670 -0.0429 -1.0986 -2.4508
13588TIP3   OH262254   5.532   6.098  15.283  0.3245 -0.0133 -0.3782
13588TIP3    H162255   5.592   6.172  15.272 -2.4124  2.3792 -0.1616
13588TIP3    H262256   5.502   6.103  15.373  1.3417 -2.5158  0.1887
13589TIP3   OH262257   5.163   5.308   1.967 -0.1067 -0.0484  0.2368
13589TIP3    H162258   5.106   5.231   1.967  0.0629 -0.1759  0.3298
13589TIP3    H262259   5.252   5.272   1.963 -0.0541  0.1877 -1.8751
13590TIP3   OH262260   6.828   3.147  11.429  0.3567  0.5413 -0.5015
13590TIP3    H162261   6.761   3.079  11.419  1.1975 -1.1445  3.3457
13590TIP3    H262262   6.910   3.098  11.436  1.1538  1.9927  1.0900
13591TIP3   OH262263   4.624   5.000   5.141 -0.0948  0.2625 -0.4396
13591TIP3    H162264   4.701   4.951   5.169 -1.8486 -3.0809 -0.9441
13591TIP3    H262265   4.651   5.092   5.144  2.8802 -0.5249  2.3950
13592TIP3   OH262266   6.374   3.926  11.026  0.1432 -0.2694  0.2549
13592TIP3    H162267   6.336   3.965  10.947  0.8136 -1.9830 -0.9861
13592TIP3    H262268   6.346   3.983  11.097 -1.4142  0.7320 -1.0847
13593TIP3   OH262269   4.299   4.811   4.883  0.3972 -0.1043  0.2315
13593TIP3    H162270   4.306   4.905   4.904  0.0131 -0.0995  0.3520
13593TIP3    H262271   4.207   4.791   4.898 -0.1978  0.1513 -2.5869
13594TIP3   OH262272   5.630   4.864  15.921 -0.2053 -0.4465 -0.0880
13594TIP3    H162273   5.671   4.899  16.000  0.6424 -1.5499 -0.0070
13594TIP3    H262274   5.536   4.867  15.939 -0.0696  0.2366  0.5518
13595TIP3   OH262275   1.255   2.189  13.328  0.0850  0.8368  0.1673
13595TIP3    H162276   1.188   2.123  13.344  1.1261 -0.9195 -2.0930
13595TIP3    H262277   1.311   2.186  13.405 -0.6285  0.0078  0.6682
13596TIP3   OH262278   4.255   4.174   0.805  0.4950 -0.4576 -0.2924
13596TIP3    H162279   4.207   4.196   0.885  0.1315 -1.8659 -0.1067
13596TIP3    H262280   4.346   4.167   0.833  0.6050  0.6722 -0.3371
13597TIP3   OH262281   3.272   4.202   2.499 -0.9358 -0.2203 -0.1992
13597TIP3    H162282   3.338   4.271   2.494  1.1530 -1.9056  1.6447
13597TIP3    H262283   3.224   4.221   2.580 -0.8411 -0.4959 -0.0752
13598TIP3   OH262284   3.233   4.512   4.546 -0.2318 -0.1697 -0.0047
13598TIP3    H162285   3.210   4.521   4.454  1.4566  0.9308 -0.3704
13598TIP3    H262286   3.207   4.595   4.587  1.1613  0.3129 -0.0298
13599TIP3   OH262287   2.497   6.272   4.986  0.0170 -0.3135 -0.3221
13599TIP3    H162288   2.591   6.280   5.002  0.2821  0.1438 -1.9368
13599TIP3    H262289   2.464   6.361   4.994 -0.2202 -0.4206 -0.0997
13600TIP3   OH262290   6.451   3.332  16.653  0.0989 -0.2854 -0.0145
13600TIP3    H162291   6.535   3.367  16.624  0.6941 -1.4384  0.2487
13600TIP3    H262292   6.415   3.290  16.576  0.4256 -0.9905  0.2011
13601TIP3   OH262293   3.929   6.555  15.022 -0.1841  0.2803  0.2027
13601TIP3    H162294   3.844   6.513  15.034 -0.1076  0.8269  3.7189
13601TIP3    H262295   3.992   6.493  15.060  0.8303  0.4697 -1.1239
13602TIP3   OH262296   0.643   1.704   0.662  0.2819  0.4168  1.1429
13602TIP3    H162297   0.669   1.709   0.570  1.7599  1.0151  1.5641
13602TIP3    H262298   0.558   1.748   0.665  1.1326  2.2408  0.3689
13603TIP3   OH262299   1.646   1.013  16.149 -0.3364  0.7039 -0.6437
13603TIP3    H162300   1.642   0.962  16.230  0.2521  0.1710 -0.9450
13603TIP3    H262301   1.633   1.104  16.178  2.2398  0.8251  0.3832
13604TIP3   OH262302   1.981   2.740   4.427  0.1304 -0.5544  1.0230
13604TIP3    H162303   2.074   2.746   4.447  0.5121  2.0693 -0.9605
13604TIP3    H262304   1.943   2.819   4.466 -1.3232 -1.6044  1.8482
13605TIP3   OH262305   6.374   0.709   1.282  0.6049 -0.6763 -0.1813
13605TIP3    H162306   6.452   0.713   1.337  0.6146  0.5715 -0.2628
13605TIP3    H262307   6.402   0.745   1.198  0.0333 -0.5697 -0.3321
13606TIP3   OH262308   1.344   2.830  13.163  0.0879  0.2126  0.1338
13606TIP3    H162309   1.393   2.851  13.242  2.4257  0.4258 -1.2819
13606TIP3    H262310   1.285   2.760  13.189  0.4000  0.6499  2.1695
13607TIP3   OH262311   3.599   4.765   0.233  0.2164 -0.1665  0.1257
13607TIP3    H162312   3.628   4.676   0.213  0.1156 -0.6670  2.0041
13607TIP3    H262313   3.658   4.795   0.302 -0.0887  1.0313 -0.1014
13608TIP3   OH262314   0.264   3.922  11.603  0.4880  0.1792 -0.1654
13608TIP3    H162315   0.330   3.854  11.594 -0.2599 -0.4047 -1.5060
13608TIP3    H262316   0.201   3.904  11.533 -0.8559  0.9753  0.7921
13609TIP3   OH262317   6.727   1.056  13.653 -0.2284  0.3819  0.1760
13609TIP3    H162318   6.730   1.059  13.749  1.5230  1.7856  0.1359
13609TIP3    H262319   6.692   1.141  13.628 -0.1976  0.2168 -0.4430
13610TIP3   OH262320   5.301   0.164  13.621 -0.1066 -0.1956 -0.0783
13610TIP3    H162321   5.360   0.089  13.627  1.8456  1.2809  0.0428
13610TIP3    H262322   5.327   0.208  13.540 -0.2576  1.1117  0.5592
13611TIP3   OH262323   6.620   5.535  14.320 -0.1640 -0.1844 -0.2112
13611TIP3    H162324   6.709   5.571  14.321  0.2239 -1.1145  0.2255
13611TIP3    H262325   6.563   5.612  14.326  0.6262  0.3879  0.1679
13612TIP3   OH262326   6.461   5.727   5.963  0.0682  0.0653  0.3151
13612TIP3    H162327   6.401   5.801   5.957  0.0250 -0.0566 -0.9905
13612TIP3    H262328   6.408   5.655   5.997  0.3139  0.8192  2.4222
13613TIP3   OH262329   5.845   0.627  12.653 -0.1071 -0.4568  0.7013
13613TIP3    H162330   5.938   0.644  12.640 -0.4013  0.0722 -0.9644
13613TIP3    H262331   5.841   0.537  12.685  0.9578 -0.5494  0.5983
13614TIP3   OH262332   4.612   2.513   0.494 -0.3055  0.2960  0.2584
13614TIP3    H162333   4.641   2.439   0.440 -0.8410 -1.9229  2.8229
13614TIP3    H262334   4.586   2.473   0.577 -0.2968  3.4481  1.9020
13615TIP3   OH262335   2.885   4.780  15.480 -0.2333  0.2760 -0.4641
13615TIP3    H162336   2.905   4.815  15.393  2.0897  1.9980  0.6488
13615TIP3    H262337   2.848   4.855  15.527  0.5623  0.0008  0.6305
13616TIP3   OH262338   1.834   4.682   1.842  0.3387 -0.0179  0.0469
13616TIP3    H162339   1.853   4.652   1.931  3.1386 -0.2466 -0.5408
13616TIP3    H262340   1.826   4.602   1.791  1.8917  0.1093 -0.4399
13617TIP3   OH262341   5.724   2.443   2.297  0.0007 -0.4662 -0.3356
13617TIP3    H162342   5.814   2.477   2.294 -0.0976 -0.2783 -2.2092
13617TIP3    H262343   5.686   2.484   2.375  1.6783 -0.9493  0.7835
13618TIP3   OH262344   6.333   2.175  11.498  0.6071  0.6999 -0.3572
13618TIP3    H162345   6.243   2.194  11.472  0.7808  2.3673  0.1527
13618TIP3    H262346   6.385   2.197  11.420  0.6844  1.1179 -0.1943
13619TIP3   OH262347   4.309   2.364   0.372  0.7523  0.6275 -0.0259
13619TIP3    H162348   4.282   2.454   0.389  1.0570  0.9791 -1.2954
13619TIP3    H262349   4.227   2.314   0.375  0.6503  0.8279  1.2512
13620TIP3   OH262350   3.725   0.811  16.413 -0.1323  0.0135 -0.1530
13620TIP3    H162351   3.681   0.808  16.328  0.6559 -1.4782 -0.5482
13620TIP3    H262352   3.813   0.843  16.393 -0.2217  0.5229  0.2494
13621TIP3   OH262353   1.065   5.648  15.730  0.6469  0.6754  0.0986
13621TIP3    H162354   1.005   5.574  15.726 -1.1026  1.8368  2.5187
13621TIP3    H262355   1.151   5.608  15.740 -0.0704 -1.0148 -0.1007
13622TIP3   OH262356   2.113   5.635   4.003  0.5096  0.2316 -0.1173
13622TIP3    H162357   2.094   5.720   3.964 -1.5166 -0.1916 -0.1305
13622TIP3    H262358   2.097   5.572   3.933 -0.7715 -0.3499  0.6618
13623TIP3   OH262359   1.902   0.780   5.496  0.1961  0.4861 -0.3165
13623TIP3    H162360   1.958   0.717   5.450 -1.1783 -0.8799 -0.1710
13623TIP3    H262361   1.960   0.820   5.561  0.9669 -1.0592 -0.0038
13624TIP3   OH262362   1.005   6.450   5.388  0.1008 -0.5198  0.2994
13624TIP3    H162363   0.973   6.521   5.444  1.5227 -0.2359  0.8070
13624TIP3    H262364   1.100   6.452   5.401  0.1331 -2.9838  0.8802
13625TIP3   OH262365   2.477   3.121   6.451  0.2343  1.5802  0.0748
13625TIP3    H162366   2.564   3.134   6.489  0.9128 -0.8390 -0.4605
13625TIP3    H262367   2.437   3.054   6.506 -0.1424  0.5976 -1.3453
13626TIP3   OH262368   6.232   4.395  14.616  0.1409  0.2331 -0.7663
13626TIP3    H162369   6.209   4.450  14.691 -0.6094 -0.4920 -0.4443
13626TIP3    H262370   6.327   4.388  14.619  0.0267 -1.8015  1.6369
13627TIP3   OH262371   5.399   4.149  15.623 -0.0544 -0.4166 -0.1189
13627TIP3    H162372   5.443   4.230  15.650 -3.1905  1.4559 -0.1864
13627TIP3    H262373   5.433   4.082  15.683  0.8353  1.4394  1.5646
13628TIP3   OH262374   2.691   0.554  14.107  0.1778  0.3770  0.4131
13628TIP3    H162375   2.651   0.503  14.037 -0.2470  1.2027  0.0428
13628TIP3    H262376   2.709   0.639  14.068 -1.6708  1.4505  1.7498
13629TIP3   OH262377   3.150   3.912   3.502 -0.0511 -0.3737 -0.1044
13629TIP3    H162378   3.130   4.003   3.478  0.9451  0.0406  0.5628
13629TIP3    H262379   3.183   3.873   3.421  2.7047  0.8452  0.3180
13630TIP3   OH262380   3.989   0.757  12.920  0.6196  0.2449  0.0470
13630TIP3    H162381   4.016   0.675  12.962 -0.7621 -1.3315 -1.9228
13630TIP3    H262382   3.897   0.743  12.898  0.4963  2.1501 -0.8206
13631TIP3   OH262383   1.835   4.380  13.086 -0.1783 -0.1629 -0.0082
13631TIP3    H162384   1.898   4.448  13.065 -0.6325  0.4048  0.4322
13631TIP3    H262385   1.750   4.424  13.084 -1.0969 -1.6512 -4.3439
13632TIP3   OH262386   3.036   4.068  10.774  0.0485 -0.0218 -0.0166
13632TIP3    H162387   2.998   4.141  10.726  0.1313 -1.1829 -1.9474
13632TIP3    H262388   3.071   4.010  10.706  0.4667 -1.5980  1.4727
13633TIP3   OH262389   3.553   1.143   1.580 -0.2058  0.1451  0.1141
13633TIP3    H162390   3.580   1.103   1.497  1.4164  0.6978  0.3394
13633TIP3    H262391   3.608   1.221   1.587  0.4008 -0.4286  2.1888
13634TIP3   OH262392   5.844   5.611  15.681  0.8349 -0.2379  0.5266
13634TIP3    H162393   5.819   5.553  15.608  0.2846 -1.7667  1.8588
13634TIP3    H262394   5.765   5.661  15.699  0.5282 -0.8570  0.9454
13635TIP3   OH262395   4.633   2.908   0.089 -0.2205  0.4449 -0.1272
13635TIP3    H162396   4.577   2.858   0.030  0.4572  0.4481 -0.7911
13635TIP3    H262397   4.579   2.982   0.117 -0.0241  1.4131 -2.1150
13636TIP3   OH262398   4.828   1.112  11.761 -0.2584  0.3771 -0.3044
13636TIP3    H162399   4.825   1.197  11.717 -1.1887  0.0604 -0.8754
13636TIP3    H262400   4.738   1.096  11.788 -0.1952 -0.6795 -0.6858
13637TIP3   OH262401   0.042   5.719  16.771  0.1539  0.1114 -0.2179
13637TIP3    H162402   0.126   5.733  16.727 -0.1133 -0.3427 -0.8971
13637TIP3    H262403  -0.021   5.707  16.700 -0.1669 -1.4001  0.2710
13638TIP3   OH262404   4.015   4.683   1.071 -0.4501 -0.2533 -0.1537
13638TIP3    H162405   4.026   4.777   1.056  0.2399 -0.6272 -2.2233
13638TIP3    H262406   3.969   4.652   0.993  0.1893 -1.7912  0.0579
13639TIP3   OH262407   6.291   3.007   5.492  0.2380 -0.2937 -0.5819
13639TIP3    H162408   6.379   3.039   5.472  0.1645  0.6860  0.5465
13639TIP3    H262409   6.233   3.060   5.437  0.2102  0.6563  0.3341
13640TIP3   OH262410   6.519   1.430   3.151  0.6935 -0.1095  0.2921
13640TIP3    H162411   6.423   1.425   3.145  0.6987 -0.6388  0.6640
13640TIP3    H262412   6.537   1.446   3.243  1.0517 -2.4627  0.6780
13641TIP3   OH262413   3.807   2.102   4.943 -0.0760  0.2612 -0.1693
13641TIP3    H162414   3.712   2.102   4.957 -0.1559  3.2832 -0.1640
13641TIP3    H262415   3.818   2.127   4.852  0.7100  0.5777  0.0031
13642TIP3   OH262416   3.589   4.163  11.414  0.5462  0.2873 -0.4890
13642TIP3    H162417   3.592   4.069  11.394  1.5840  0.2567 -0.2902
13642TIP3    H262418   3.594   4.206  11.329 -0.2757  0.1652 -0.6026
13643TIP3   OH262419   6.445   6.223   4.494  0.2078  0.4576 -0.2841
13643TIP3    H162420   6.520   6.164   4.490 -1.3033 -1.4772 -1.0476
13643TIP3    H262421   6.485   6.311   4.496  2.5667 -0.5128  2.1561
13644TIP3   OH262422   2.303   0.255   1.422  0.3838  0.1109  0.4695
13644TIP3    H162423   2.380   0.208   1.390  1.9676  0.9157  2.8294
13644TIP3    H262424   2.257   0.284   1.343  2.9380  0.3299 -1.0191
13645TIP3   OH262425   2.372   5.395  11.834 -0.2237 -0.8152 -0.1600
13645TIP3    H162426   2.328   5.321  11.792 -0.9736 -0.5816  0.1912
13645TIP3    H262427   2.403   5.360  11.917 -1.1061 -0.6066  0.2791
13646TIP3   OH262428   3.643   0.887  10.471  0.3455 -0.1905  0.2574
13646TIP3    H162429   3.667   0.874  10.379 -1.9789  3.8156 -1.1556
13646TIP3    H262430   3.556   0.926  10.468 -0.1591 -0.6230  4.2655
13647TIP3   OH262431   3.811   3.002   6.367 -0.4263 -0.0204  0.1287
13647TIP3    H162432   3.807   2.970   6.458  1.4513 -0.2912  0.1597
13647TIP3    H262433   3.774   3.090   6.372 -0.2580  0.0146  1.1933
13648TIP3   OH262434   4.938   0.222   3.825  0.9890 -0.1704 -0.2642
13648TIP3    H162435   4.992   0.203   3.902 -3.5216  0.4648  3.5374
13648TIP3    H262436   4.939   0.140   3.775  3.7453 -0.7741  0.6115
13649TIP3   OH262437   1.423   2.515   4.624  0.4846 -0.0854 -0.0605
13649TIP3    H162438   1.340   2.557   4.603  0.5897  0.4057  0.4856
13649TIP3    H262439   1.399   2.424   4.645  0.0030  0.1907  0.6422
13650TIP3   OH262440   2.798   2.947  13.426  0.2713  0.1458  0.2889
13650TIP3    H162441   2.732   2.941  13.357  1.5787 -0.5468 -0.9579
13650TIP3    H262442   2.805   2.858  13.460 -1.7990  0.8171  2.8110
13651TIP3   OH262443   0.778   2.274  15.635  0.3765 -0.0790 -0.0257
13651TIP3    H162444   0.705   2.292  15.575  1.6123 -0.0204 -1.5557
13651TIP3    H262445   0.740   2.287  15.722 -1.6874 -0.9800 -0.7284
13652TIP3   OH262446   3.465   1.220  17.145  0.0104  0.0828  0.1511
13652TIP3    H162447   3.494   1.149  17.202  0.5263 -0.2837 -0.5530
13652TIP3    H262448   3.440   1.290  17.205  0.9612 -0.1316  0.8236
13653TIP3   OH262449   0.994   5.363   3.691 -0.1112 -0.8131 -0.0197
13653TIP3    H162450   0.914   5.356   3.744  0.0305  0.4526  0.4170
13653TIP3    H262451   0.981   5.302   3.619 -1.5006 -0.6098  0.0235
13654TIP3   OH262452   3.060   6.285   4.397  0.3414 -0.2901  0.4362
13654TIP3    H162453   3.107   6.288   4.314  0.3023  0.4807  0.4307
13654TIP3    H262454   3.118   6.236   4.455  1.7985  1.7131  0.8006
13655TIP3   OH262455   1.790   3.334   3.881  0.4266  0.0087  0.2729
13655TIP3    H162456   1.819   3.392   3.951  0.8043  1.7828 -1.2611
13655TIP3    H262457   1.764   3.253   3.925  2.7401  0.2190  2.2364
13656TIP3   OH262458   1.086   6.323  14.890  0.0414 -0.3929 -0.4227
13656TIP3    H162459   1.134   6.340  14.971  1.1993  0.7454 -1.3172
13656TIP3    H262460   1.067   6.410  14.854 -0.2767 -0.8835 -1.4799
13657TIP3   OH262461   3.106   6.680  11.372 -1.0814 -0.1435  0.1108
13657TIP3    H162462   3.036   6.728  11.327 -0.5927  0.0163 -0.4902
13657TIP3    H262463   3.163   6.747  11.407 -1.3585 -0.2720  0.8321
13658TIP3   OH262464   6.254   2.013   3.080  0.1188  0.5873  0.1622
13658TIP3    H162465   6.202   1.949   3.129  0.4096  0.3755  0.2036
13658TIP3    H262466   6.344   1.996   3.108  0.5216 -0.7563 -1.7724
13659TIP3   OH262467   6.295   5.648   2.299 -0.0236  0.4795  0.4041
13659TIP3    H162468   6.374   5.620   2.253 -0.2838 -0.8271  0.7103
13659TIP3    H262469   6.326   5.678   2.384  0.1279 -0.2937  0.6296
13660TIP3   OH262470   6.177   0.603   3.099 -0.0688 -0.0392  0.2711
13660TIP3    H162471   6.259   0.557   3.082 -0.4877 -1.1565  1.1304
13660TIP3    H262472   6.184   0.684   3.048  2.3565  0.7827  1.7172
13661TIP3   OH262473   0.468   1.138  11.711 -0.3588 -0.7663  0.1294
13661TIP3    H162474   0.482   1.080  11.636  0.5601  0.2082 -0.4842
13661TIP3    H262475   0.438   1.220  11.672 -1.0121 -0.6176  0.9359
13662TIP3   OH262476   0.618   5.619   4.523 -0.0845 -0.3398  0.4105
13662TIP3    H162477   0.638   5.542   4.576 -0.5775 -0.4388  0.4660
13662TIP3    H262478   0.544   5.660   4.569 -1.5825 -1.3037 -1.0392
13663TIP3   OH262479   4.081   4.049  16.899  0.0250  0.3455 -0.7000
13663TIP3    H162480   4.157   4.066  16.954 -0.1541 -0.6090 -0.1395
13663TIP3    H262481   4.005   4.062  16.956 -0.1498 -1.0333 -0.5861
13664TIP3   OH262482   6.157   3.654  14.962  0.1915  0.4967 -0.2713
13664TIP3    H162483   6.189   3.579  15.012  0.9718  1.0008 -0.0042
13664TIP3    H262484   6.235   3.695  14.926 -0.2788  0.8111 -0.9515
13665TIP3   OH262485   0.213   4.390   1.811  0.0548 -0.1688 -0.2687
13665TIP3    H162486   0.239   4.419   1.898 -0.3390  0.2911 -0.2952
13665TIP3    H262487   0.293   4.395   1.759  0.1664  0.1275 -0.0735
13666TIP3   OH262488   5.684   1.131   0.516 -0.0813 -0.1873 -0.7616
13666TIP3    H162489   5.665   1.139   0.610  0.7420 -1.2606 -0.4849
13666TIP3    H262490   5.628   1.060   0.486 -0.2721  0.0904 -1.0749
13667TIP3   OH262491   4.118   1.375  16.799 -0.4537 -0.4050  0.1914
13667TIP3    H162492   4.045   1.339  16.747 -1.8181  1.4944  0.6798
13667TIP3    H262493   4.077   1.440  16.855  1.4691 -0.2080  1.4489
13668TIP3   OH262494   1.125   2.432  11.784 -0.2099 -0.2793 -0.2534
13668TIP3    H162495   1.210   2.472  11.804 -1.1942  1.1971  1.2923
13668TIP3    H262496   1.126   2.349  11.831 -0.4783  0.8287  1.8801
13669TIP3   OH262497   2.140   2.744  12.257  0.2191 -0.0741 -0.0331
13669TIP3    H162498   2.091   2.730  12.338 -2.0370  2.5766 -0.8014
13669TIP3    H262499   2.229   2.715  12.278 -0.9457 -2.3202  2.3795
13670TIP3   OH262500   0.320   4.120   2.321  0.5070 -0.2835 -0.2937
13670TIP3    H162501   0.235   4.076   2.316  0.9515 -1.2329  0.3976
13670TIP3    H262502   0.373   4.066   2.380  0.8840  1.4806  1.0867
13671TIP3   OH262503   2.144   5.632  12.789  0.1395 -0.5532  0.2667
13671TIP3    H162504   2.151   5.594  12.877  1.8130 -3.3009 -0.9403
13671TIP3    H262505   2.056   5.611  12.760  0.1499 -1.1390  0.6533
13672TIP3   OH262506   2.765   4.853   6.498 -0.3088 -0.7677  0.2189
13672TIP3    H162507   2.855   4.825   6.480 -0.3584 -1.5645  1.1363
13672TIP3    H262508   2.712   4.804   6.435 -0.0442  0.4612 -1.0181
13673TIP3   OH262509   3.591   3.537  10.189 -0.0655  0.4110 -0.1318
13673TIP3    H162510   3.686   3.531  10.195 -0.1888 -0.3633  1.6940
13673TIP3    H262511   3.562   3.448  10.169 -0.5273  0.0110  2.0966
13674TIP3   OH262512   1.577   1.123  12.621 -0.2044  0.1036  0.8163
13674TIP3    H162513   1.612   1.084  12.701  0.6370 -0.5247  0.1576
13674TIP3    H262514   1.504   1.065  12.597 -0.6169  0.4342  1.2553
13675TIP3   OH262515   2.710   3.446   0.895  0.8741  0.1677 -0.2478
13675TIP3    H162516   2.734   3.536   0.916  1.2943  0.2401 -1.0014
13675TIP3    H262517   2.627   3.432   0.941  0.8230  0.9218 -0.0957
13676TIP3   OH262518   1.890   3.446   2.425  0.4629 -0.3814  0.1667
13676TIP3    H162519   1.859   3.357   2.441  1.8828 -1.1677 -1.1498
13676TIP3    H262520   1.863   3.465   2.335  0.8393  0.2205  0.1759
13677TIP3   OH262521   5.949   3.687  15.566  0.0980 -0.0827  0.3860
13677TIP3    H162522   5.859   3.653  15.562 -0.2723  0.9762 -0.9259
13677TIP3    H262523   5.991   3.654  15.487 -0.0028  1.6833 -0.4548
13678TIP3   OH262524   5.984   5.512  13.731  0.0871 -0.6173  0.0779
13678TIP3    H162525   5.996   5.552  13.645 -1.4104 -0.0009  0.1239
13678TIP3    H262526   5.893   5.483  13.732 -0.1799  0.1167  1.7359
13679TIP3   OH262527   4.893   2.393  10.920 -0.3072  0.2522  0.1861
13679TIP3    H162528   4.892   2.369  10.828  1.7487  0.5149  0.0350
13679TIP3    H262529   4.822   2.456  10.930  0.3117  1.2830 -1.5537
13680TIP3   OH262530   6.231   3.890   5.226 -0.5612 -0.5112  0.2054
13680TIP3    H162531   6.172   3.912   5.299  0.0089  2.4956 -0.1196
13680TIP3    H262532   6.173   3.886   5.150 -0.6033  1.1121  0.1079
13681TIP3   OH262533   1.357   0.808   5.731  0.5155  0.3096  0.0965
13681TIP3    H162534   1.399   0.829   5.647 -1.0044  0.3540 -0.6823
13681TIP3    H262535   1.309   0.887   5.755  0.6949  0.1944  0.8801
13682TIP3   OH262536   1.889   5.619  12.716 -0.1709  0.0226 -0.5101
13682TIP3    H162537   1.860   5.550  12.656  0.7581 -1.5132  0.7248
13682TIP3    H262538   1.808   5.659  12.747 -0.7186 -0.2529 -1.5433
13683TIP3   OH262539   4.409   5.632   6.237  0.6074 -0.1960  0.2465
13683TIP3    H162540   4.326   5.647   6.191 -0.8173 -0.1363  2.6663
13683TIP3    H262541   4.424   5.538   6.229  2.1148  0.1856 -2.9377
13684TIP3   OH262542   3.292   6.272  12.793  0.2750  0.4109 -0.2846
13684TIP3    H162543   3.286   6.322  12.712  0.7881 -0.0872 -0.6359
13684TIP3    H262544   3.356   6.321  12.846  1.9759 -0.6695 -1.2418
13685TIP3   OH262545   3.588   4.824   1.437  0.0929  0.2282  0.0889
13685TIP3    H162546   3.572   4.918   1.438 -2.1795 -0.0949 -0.3658
13685TIP3    H262547   3.617   4.805   1.347 -2.4987  0.1145 -0.7887
13686TIP3   OH262548   2.618   5.781   3.580 -0.1314 -0.3051 -0.5420
13686TIP3    H162549   2.529   5.807   3.557 -1.6290 -3.0555  1.6270
13686TIP3    H262550   2.664   5.778   3.497 -1.5943  2.4802 -1.5996
13687TIP3   OH262551   4.054   1.714   5.013 -0.0421 -0.4348  0.4025
13687TIP3    H162552   4.040   1.667   5.096  1.0293 -0.4025  0.6057
13687TIP3    H262553   3.977   1.691   4.960 -1.0049 -0.0521  1.5767
13688TIP3   OH262554   2.633   1.137   4.989  0.5881  0.5026  0.4162
13688TIP3    H162555   2.645   1.225   5.023  0.7238  0.2849  0.9361
13688TIP3    H262556   2.676   1.080   5.053  0.8379  0.0914 -0.1094
13689TIP3   OH262557   1.580   0.186   5.352 -1.0165  0.6931 -0.0343
13689TIP3    H162558   1.554   0.114   5.409  0.5979 -0.6018 -0.8577
13689TIP3    H262559   1.498   0.224   5.321 -1.9073 -1.2391 -0.1180
13690TIP3   OH262560   4.631   4.119   1.426 -0.3631  0.1654  0.1657
13690TIP3    H162561   4.712   4.071   1.442 -0.7578 -0.2821  0.8774
13690TIP3    H262562   4.654   4.211   1.439 -0.2446 -0.0461  1.6472
13691TIP3   OH262563   6.174   3.297  12.021 -0.4298  0.2661  0.4014
13691TIP3    H162564   6.207   3.259  12.102  0.0644  0.5439  0.3313
13691TIP3    H262565   6.110   3.363  12.049  0.5778  1.1711  0.6091
13692TIP3   OH262566   6.313   0.628  16.432 -0.7093  0.1976 -0.1487
13692TIP3    H162567   6.350   0.546  16.463  2.7666  1.1030 -1.5342
13692TIP3    H262568   6.238   0.643  16.490 -0.7653 -3.2826  0.9006
13693TIP3   OH262569   4.888   4.648  12.006  0.3584  0.0959  0.0615
13693TIP3    H162570   4.896   4.658  11.911  0.6303 -2.9917 -0.3226
13693TIP3    H262571   4.815   4.705  12.029 -2.7007 -2.3394 -2.7405
13694TIP3   OH262572   3.246   6.151   4.212 -0.0466 -0.6844 -0.1223
13694TIP3    H162573   3.212   6.127   4.126 -1.2302  3.0870 -0.8682
13694TIP3    H262574   3.337   6.177   4.196 -0.3349  0.2359 -0.3140
13695TIP3   OH262575   3.778   2.930   2.162  0.3551  0.5000  0.0075
13695TIP3    H162576   3.784   2.956   2.070  0.9562 -1.0068 -0.4217
13695TIP3    H262577   3.695   2.883   2.169 -0.0024  1.1725  0.4079
13696TIP3   OH262578   5.391   4.677  11.310  0.3016 -0.2325 -0.1207
13696TIP3    H162579   5.349   4.591  11.317 -0.8654  0.3728  0.5212
13696TIP3    H262580   5.352   4.717  11.232  0.6103 -0.1490 -0.2360
13697TIP3   OH262581   6.599   0.326   5.784  0.2788 -0.0404 -0.0310
13697TIP3    H162582   6.635   0.412   5.805  0.9581 -0.5452  0.9675
13697TIP3    H262583   6.532   0.311   5.850 -0.1432 -0.0997 -0.4687
13698TIP3   OH262584   1.110   0.349  11.340 -0.4338 -0.4621  0.3401
13698TIP3    H162585   1.092   0.260  11.371  1.9147 -0.9623  0.4444
13698TIP3    H262586   1.173   0.385  11.403 -0.6404  0.9373 -0.2165
13699TIP3   OH262587   4.481   4.916  17.085  0.6153  0.4933  0.4792
13699TIP3    H162588   4.549   4.972  17.123 -0.4086  1.4493  0.9963
13699TIP3    H262589   4.487   4.931  16.991  0.5513  1.2878  0.5875
13700TIP3   OH262590   3.468   2.031   5.136 -0.3384 -0.1055 -0.3889
13700TIP3    H162591   3.427   2.014   5.221  2.8509  1.2931  1.6173
13700TIP3    H262592   3.553   1.988   5.141  0.3988  0.9713 -2.4365
13701TIP3   OH262593   3.940   6.822   5.024 -0.2823 -0.5304 -0.4283
13701TIP3    H162594   4.001   6.881   5.067 -0.5310 -0.9029  0.4500
13701TIP3    H262595   3.946   6.845   4.931 -1.1588  1.6273 -0.0152
13702TIP3   OH262596   0.986   1.083   4.916 -0.3713  0.5627  0.3939
13702TIP3    H162597   0.979   1.169   4.874 -0.5021  0.5553  0.4027
13702TIP3    H262598   0.938   1.092   4.998 -0.4892  0.4445  0.3388
13703TIP3   OH262599   4.083   3.891  12.698 -0.3557 -0.3082  0.1279
13703TIP3    H162600   4.040   3.816  12.658 -0.8624  0.2557 -0.3989
13703TIP3    H262601   4.060   3.965  12.642 -0.4699  0.3705  1.0506
13704TIP3   OH262602   5.021   4.371   0.227 -0.3986 -0.4875 -0.0139
13704TIP3    H162603   5.003   4.410   0.312 -0.4382 -2.9740  1.1986
13704TIP3    H262604   4.937   4.337   0.197  0.1788 -2.6609  0.6346
13705TIP3   OH262605   0.272   6.324   2.722 -0.1397  0.3803  0.0505
13705TIP3    H162606   0.219   6.316   2.643 -0.7795  0.8969  0.4225
13705TIP3    H262607   0.222   6.277   2.789 -0.3681  1.2642  0.5147
13706TIP3   OH262608   1.595   6.769   4.573 -0.1702 -0.1914  0.1695
13706TIP3    H162609   1.538   6.839   4.543 -0.7549 -1.1728 -1.1038
13706TIP3    H262610   1.542   6.719   4.635  0.0241  0.0902  0.5701
13707TIP3   OH262611   6.559   1.232   3.587 -0.6852 -0.2297  0.3684
13707TIP3    H162612   6.652   1.209   3.598 -0.5547  0.3731  0.5765
13707TIP3    H262613   6.512   1.165   3.637 -0.3524 -0.4203  0.4343
13708TIP3   OH262614   4.924   1.415  14.224 -0.5471 -0.6151  0.1011
13708TIP3    H162615   4.997   1.354  14.216  0.5684  0.9445 -2.4310
13708TIP3    H262616   4.952   1.476  14.292  1.2647  0.8475 -1.8502
13709TIP3   OH262617   0.668   2.911  14.132 -0.0321  0.4825  0.2883
13709TIP3    H162618   0.658   2.818  14.154 -0.2645  0.1257 -1.2329
13709TIP3    H262619   0.751   2.936  14.172  1.2246 -1.0294 -1.2132
13710TIP3   OH262620   2.377   6.118   2.838  0.0626  0.3421 -0.1196
13710TIP3    H162621   2.328   6.057   2.893 -1.5782  2.1270  0.5369
13710TIP3    H262622   2.459   6.133   2.884 -0.4539  0.2917  0.8305
13711TIP3   OH262623   1.220   6.344   3.631 -0.3408 -0.3186  0.1130
13711TIP3    H162624   1.292   6.329   3.568 -1.0025  0.4793 -0.8707
13711TIP3    H262625   1.141   6.337   3.578 -0.9382 -0.0805  0.9637
13712TIP3   OH262626   0.661   3.204   1.750 -0.4879  0.1690  0.1606
13712TIP3    H162627   0.671   3.210   1.655  1.3903 -1.6432  0.1593
13712TIP3    H262628   0.655   3.295   1.780  1.1227  0.8792 -1.5002
13713TIP3   OH262629   1.328   3.094   4.103 -0.2185  0.3044 -0.0716
13713TIP3    H162630   1.354   3.041   4.178 -1.6117  1.2183  1.1322
13713TIP3    H262631   1.324   3.032   4.030 -2.0881 -1.3725  1.3304
13714TIP3   OH262632   0.752   1.271  12.146 -0.2689  0.1989  0.8415
13714TIP3    H162633   0.665   1.296  12.174 -0.3901  0.2981  0.3890
13714TIP3    H262634   0.769   1.324  12.068  0.4499  0.6457  1.2850
13715TIP3   OH262635   3.179   5.863  16.240  0.1464  0.3227  0.2282
13715TIP3    H162636   3.116   5.796  16.264 -0.8986  1.9034  2.2845
13715TIP3    H262637   3.136   5.914  16.171  0.4805 -0.4334 -0.5457
13716TIP3   OH262638   0.359   4.194  15.736 -0.2424 -0.2361 -0.0546
13716TIP3    H162639   0.274   4.233  15.717  1.2840  3.3356 -0.3798
13716TIP3    H262640   0.412   4.214  15.658  1.7656  0.6180  1.4452
13717TIP3   OH262641   3.993   0.958   4.439 -0.3728  0.0328  0.0606
13717TIP3    H162642   3.932   0.994   4.503  1.1969 -1.9757  2.8962
13717TIP3    H262643   4.069   1.016   4.443  0.5541 -1.2002  1.6849
13718TIP3   OH262644   4.091   5.880   0.359  0.2935 -0.1567  0.4569
13718TIP3    H162645   4.021   5.861   0.421 -1.2829 -0.6359 -1.3846
13718TIP3    H262646   4.126   5.964   0.387 -0.3139 -0.3922  2.0162
13719TIP3   OH262647   5.952   3.461  12.056 -0.3617 -0.7737  0.1008
13719TIP3    H162648   5.928   3.491  12.144 -0.5056 -3.3832  1.0594
13719TIP3    H262649   5.878   3.406  12.029  0.3786 -1.2807 -0.9564
13720TIP3   OH262650   5.105   0.852  11.416 -0.0104  0.6499 -0.5170
13720TIP3    H162651   5.046   0.843  11.490  1.2676 -0.0767  0.4495
13720TIP3    H262652   5.169   0.918  11.443  0.5690  0.2582 -0.9038
13721TIP3   OH262653   5.842   1.144  13.074  0.4451  0.0163  0.1978
13721TIP3    H162654   5.855   1.167  12.982  1.5022  0.0567  0.3530
13721TIP3    H262655   5.899   1.204  13.123  0.5690 -0.5928  0.8220
13722TIP3   OH262656   0.802   2.523   1.757  0.0537  0.6185  0.0499
13722TIP3    H162657   0.846   2.545   1.676  0.2938 -0.3231 -0.0930
13722TIP3    H262658   0.861   2.553   1.826  0.2896  0.5781 -0.1351
13723TIP3   OH262659   5.126   1.946   5.655 -0.0821 -0.0350  0.0248
13723TIP3    H162660   5.081   1.995   5.724  1.0039  0.1346  0.6317
13723TIP3    H262661   5.091   1.981   5.574 -1.7787 -0.5949  0.4595
13724TIP3   OH262662   4.291   5.591  12.979  0.1786 -0.8407  0.0617
13724TIP3    H162663   4.202   5.567  12.949 -0.1547 -1.5869  1.5584
13724TIP3    H262664   4.344   5.589  12.899 -1.1339 -0.4620 -0.8516
13725TIP3   OH262665   3.980   4.364   5.876  0.1309 -0.0752 -0.2989
13725TIP3    H162666   3.967   4.281   5.829  2.0459 -0.8863  0.4845
13725TIP3    H262667   4.066   4.355   5.916 -0.7136  1.2397  2.0216
13726TIP3   OH262668   2.006   2.104   4.020  0.1407 -0.2706  0.2960
13726TIP3    H162669   2.072   2.041   4.049  0.0286 -0.3879  0.2955
13726TIP3    H262670   2.036   2.187   4.056 -0.9371 -0.6861  2.3353
13727TIP3   OH262671   3.259   2.200   4.253  0.4299  0.7031  0.6058
13727TIP3    H162672   3.211   2.210   4.335 -1.6261 -1.4051 -0.2448
13727TIP3    H262673   3.218   2.264   4.194 -0.7087 -0.3784  0.1828
13728TIP3   OH262674   4.589   6.476   3.649 -0.0880  0.4416 -0.1768
13728TIP3    H162675   4.574   6.570   3.651 -1.1102  0.3608 -2.0091
13728TIP3    H262676   4.684   6.467   3.650  0.0236  1.4005  1.3689
13729TIP3   OH262677   1.945   1.263   1.930 -1.1756 -0.6998  0.0830
13729TIP3    H162678   2.014   1.283   1.866  1.1123 -1.7508  2.0556
13729TIP3    H262679   1.876   1.326   1.911  1.3783  2.1678 -0.4543
13730TIP3   OH262680   1.524   2.778  13.815 -0.5216 -0.1537  0.2064
13730TIP3    H162681   1.460   2.747  13.879 -1.4793  0.3972 -0.4513
13730TIP3    H262682   1.535   2.706  13.754 -1.9483  0.3802 -0.7264
13731TIP3   OH262683   0.453   2.680   4.845  0.0025 -0.0720  0.4778
13731TIP3    H162684   0.476   2.619   4.775 -0.4582 -0.8995  1.0217
13731TIP3    H262685   0.536   2.714   4.876  0.2970 -0.6890  0.3823
13732TIP3   OH262686   6.392   2.516   0.862  0.1214  0.1129 -0.3784
13732TIP3    H162687   6.454   2.522   0.789  0.5501  0.1523 -0.0099
13732TIP3    H262688   6.358   2.606   0.872 -0.0369  0.0803 -0.6135
13733TIP3   OH262689   3.645   2.294  11.661 -0.3377  0.0549 -0.0356
13733TIP3    H162690   3.717   2.269  11.604 -1.0913 -1.3227 -0.4114
13733TIP3    H262691   3.574   2.233  11.640 -1.2820  0.7341  1.0268
13734TIP3   OH262692   4.620   2.387  11.416 -0.1746  1.2464  0.1972
13734TIP3    H162693   4.680   2.353  11.350  0.2337 -0.7069  1.4914
13734TIP3    H262694   4.578   2.310  11.453 -1.3966  2.3736  1.2949
13735TIP3   OH262695   6.363   1.402  14.896  0.3225  0.1226 -0.4739
13735TIP3    H162696   6.312   1.329  14.860  0.5407 -0.0629 -0.4101
13735TIP3    H262697   6.371   1.464  14.823  0.9824 -0.3668 -0.8323
13736TIP3   OH262698   3.486   0.670   3.600  0.3026  0.4785 -0.4161
13736TIP3    H162699   3.534   0.735   3.548  2.3535  0.0057  0.7542
13736TIP3    H262700   3.490   0.590   3.548 -1.2853  0.9800 -1.3671
13737TIP3   OH262701   1.544   2.242   3.505  0.6246  0.2232 -0.1885
13737TIP3    H162702   1.539   2.322   3.453 -0.4077 -0.0334 -0.5083
13737TIP3    H262703   1.611   2.189   3.463  0.0293  0.1565 -1.0857
13738TIP3   OH262704   1.282   4.641  16.883  0.0683  0.3377  0.0335
13738TIP3    H162705   1.250   4.665  16.970 -2.6657 -1.7221 -0.2613
13738TIP3    H262706   1.225   4.688  16.823  0.5560  0.0778 -0.6439
13739TIP3   OH262707   1.269   0.367   2.116  0.1926  0.4019  0.2860
13739TIP3    H162708   1.272   0.436   2.049 -0.0850  2.3621  2.1716
13739TIP3    H262709   1.182   0.328   2.107  0.4043  0.1422 -0.8959
13740TIP3   OH262710   4.010   4.754  12.751 -0.7284  0.5871 -0.0380
13740TIP3    H162711   4.006   4.713  12.838  0.1282 -0.2074 -0.3544
13740TIP3    H262712   3.954   4.831  12.758 -0.2227  0.8585  1.4046
13741TIP3   OH262713   2.465   3.837   1.787 -0.7268  0.0545  0.1400
13741TIP3    H162714   2.390   3.838   1.846  0.1517 -2.2132  1.4081
13741TIP3    H262715   2.464   3.749   1.749  1.3585 -0.0909  0.3210
13742TIP3   OH262716   0.220   2.213  15.538  0.1226 -0.1436 -0.1593
13742TIP3    H162717   0.164   2.185  15.465 -1.2262 -1.1206  1.1747
13742TIP3    H262718   0.293   2.151  15.536  0.0911 -0.1725 -0.6742
13743TIP3   OH262719   2.700   6.059  16.301 -0.6539 -0.2131  0.0130
13743TIP3    H162720   2.788   6.089  16.324 -0.9625 -0.6945  2.0664
13743TIP3    H262721   2.711   6.017  16.216  1.0485 -0.0160  0.0889
13744TIP3   OH262722   1.744   3.616   2.575 -0.3929 -0.5310  0.3577
13744TIP3    H162723   1.793   3.557   2.518 -1.4353  0.2962 -1.4774
13744TIP3    H262724   1.694   3.558   2.633 -0.7132 -1.4443 -0.8076
13745TIP3   OH262725   6.060   0.566   3.619  0.1220 -0.5060 -0.5415
13745TIP3    H162726   6.040   0.609   3.535  0.3476 -1.0982 -0.9018
13745TIP3    H262727   6.100   0.636   3.672  0.7410 -0.3292 -1.2208
13746TIP3   OH262728   4.900   5.388  13.527 -0.2792 -0.1779  0.0763
13746TIP3    H162729   4.964   5.343  13.470  0.7322 -0.2206  1.2032
13746TIP3    H262730   4.898   5.335  13.607 -0.1297  0.9898  0.8767
13747TIP3   OH262731   5.942   1.884   5.364 -0.4319  0.2467 -0.3092
13747TIP3    H162732   6.028   1.924   5.355 -0.2332  0.0275  0.5176
13747TIP3    H262733   5.927   1.880   5.458 -0.6315 -1.2089 -0.3739
13748TIP3   OH262734   1.626   5.825   2.341 -0.0083  0.1812 -0.3316
13748TIP3    H162735   1.650   5.747   2.390  0.6635  1.1000  0.8472
13748TIP3    H262736   1.534   5.813   2.320 -0.0704 -0.6498  0.3726
13749TIP3   OH262737   0.068   4.015   2.339 -0.4973  0.2803  0.0626
13749TIP3    H162738   0.042   3.923   2.332 -0.0200  0.0133  1.5032
13749TIP3    H262739  -0.013   4.060   2.362 -0.5927  0.1204  0.0453
13750TIP3   OH262740   3.258   6.679  15.676  0.2853 -0.3415  0.7988
13750TIP3    H162741   3.301   6.694  15.592 -0.3600  0.4645  0.5933
13750TIP3    H262742   3.330   6.671  15.739  0.7597  1.5292  0.5580
13751TIP3   OH262743   1.384   5.461   3.351 -0.6050  0.6655  0.3721
13751TIP3    H162744   1.424   5.478   3.436 -0.9130  0.5840  0.5323
13751TIP3    H262745   1.373   5.366   3.348 -2.0192  0.7978  0.8858
13752TIP3   OH262746   5.158   0.258  15.313  0.0508 -0.6180 -0.3506
13752TIP3    H162747   5.176   0.172  15.274  1.5515 -0.2826 -0.4435
13752TIP3    H262748   5.242   0.286  15.350  0.0279  1.5656 -1.8106
13753TIP3   OH262749   2.313   5.821  11.654 -0.4186 -0.0118  0.4278
13753TIP3    H162750   2.248   5.887  11.681 -0.8016  0.0908 -0.7138
13753TIP3    H262751   2.368   5.810  11.731  0.1784  2.2885  0.4051
13754TIP3   OH262752   4.865   6.558  16.511 -0.6522 -0.2360 -0.3176
13754TIP3    H162753   4.787   6.602  16.545 -0.6007 -0.3527 -0.0452
13754TIP3    H262754   4.914   6.627  16.467 -0.0891  0.1956  0.9458
13755TIP3   OH262755   5.476   6.364   2.568  0.1207 -0.3939 -0.0385
13755TIP3    H162756   5.560   6.340   2.608 -0.1005 -0.8750  0.1519
13755TIP3    H262757   5.466   6.303   2.495  0.6602  0.6782 -1.0303
13756TIP3   OH262758   0.926   5.097  15.801 -0.0639  0.5520 -0.2176
13756TIP3    H162759   0.840   5.094  15.758 -0.5076  0.4706  0.6546
13756TIP3    H262760   0.974   5.023  15.763 -0.9152 -0.3320  0.3776
13757TIP3   OH262761   2.055   4.195  11.624 -0.3149 -0.2034 -0.3352
13757TIP3    H162762   2.012   4.281  11.630 -0.4147 -0.2041 -0.9273
13757TIP3    H262763   2.070   4.169  11.714  0.1534  0.6568 -0.1499
13758TIP3   OH262764   5.471   4.093  16.303  0.2179  0.0602  0.6134
13758TIP3    H162765   5.536   4.164  16.302  1.3126 -0.9112  0.1296
13758TIP3    H262766   5.503   4.033  16.370 -0.2614 -0.3697  0.4598
13759TIP3   OH262767   4.907   1.792   4.577  0.5335 -0.3408  0.0379
13759TIP3    H162768   5.001   1.788   4.561  0.9206 -1.3191  2.1833
13759TIP3    H262769   4.897   1.865   4.638 -0.2579  0.4059 -0.9572
13760TIP3   OH262770   4.542   1.924  11.299  0.1540  0.1706  0.3656
13760TIP3    H162771   4.606   1.947  11.232  1.4751  0.0862  1.5437
13760TIP3    H262772   4.523   2.007  11.344 -1.5866  0.4461 -0.7690
13761TIP3   OH262773   2.692   5.289  14.359 -0.6188  0.0304  0.5744
13761TIP3    H162774   2.778   5.282  14.318 -0.9247  1.5354 -0.3753
13761TIP3    H262775   2.699   5.364  14.418 -1.1292 -0.1815  0.9206
13762TIP3   OH262776   5.346   0.730  14.693 -0.3252 -0.3628 -0.0452
13762TIP3    H162777   5.369   0.656  14.637 -1.2794 -1.5754  1.0979
13762TIP3    H262778   5.310   0.690  14.773 -2.2926  1.3198  0.0134
13763TIP3   OH262779   3.323   6.717  11.123  0.2849  0.6110  0.1046
13763TIP3    H162780   3.371   6.707  11.041 -1.2370 -0.7235 -0.6868
13763TIP3    H262781   3.360   6.795  11.164  2.3220  0.2655 -0.9671
13764TIP3   OH262782   5.789   4.336  13.675  0.5066 -0.1552 -0.0165
13764TIP3    H162783   5.831   4.347  13.590  1.7319  0.8765  0.6784
13764TIP3    H262784   5.698   4.364  13.660  0.3060 -1.4061 -1.3007
13765TIP3   OH262785   2.134   1.014  15.588  0.1216  0.0389 -0.1628
13765TIP3    H162786   2.133   0.944  15.523 -1.1733 -0.2966  0.1908
13765TIP3    H262787   2.108   1.093  15.540 -1.4020 -0.3149  0.0215
13766TIP3   OH262788   6.475   1.526  11.568 -0.0665 -0.0871  0.0675
13766TIP3    H162789   6.467   1.573  11.651  2.9465 -0.1255  0.4772
13766TIP3    H262790   6.440   1.586  11.503  0.6859  1.3972  0.9730
13767TIP3   OH262791   3.728   3.000   0.168  0.1223 -0.0300 -0.7629
13767TIP3    H162792   3.743   2.949   0.089 -1.5595 -1.0596 -0.4655
13767TIP3    H262793   3.744   3.091   0.142  2.1827 -0.5547 -1.5631
13768TIP3   OH262794   2.868   0.044  14.573  0.5866  0.5321  0.2694
13768TIP3    H162795   2.825   0.064  14.656  0.4567  1.0270  0.0865
13768TIP3    H262796   2.961   0.060  14.590  0.7759 -1.0229  0.8117
13769TIP3   OH262797   2.361   4.838  16.037 -0.4047  0.3759 -0.5862
13769TIP3    H162798   2.414   4.891  15.978  2.1693 -1.3659  0.0100
13769TIP3    H262799   2.298   4.793  15.979  0.6855  0.2922 -1.7443
13770TIP3   OH262800   4.013   0.064   2.319 -0.2522  0.7172  0.9295
13770TIP3    H162801   4.104   0.067   2.348  0.2641 -0.3590 -0.4858
13770TIP3    H262802   3.974  -0.007   2.370 -0.1908  0.8535  1.1741
13771TIP3   OH262803   3.571   3.852   4.768 -0.0269  0.1322  0.2137
13771TIP3    H162804   3.570   3.862   4.864  0.2293  0.2493  0.2055
13771TIP3    H262805   3.494   3.799   4.749  0.0732 -0.1268  0.5105
13772TIP3   OH262806   2.684   0.743   2.630  0.4548 -0.3530 -0.2181
13772TIP3    H162807   2.714   0.833   2.623 -0.0306 -0.2615 -1.4716
13772TIP3    H262808   2.753   0.697   2.677  1.1962  0.4476 -0.5130
13773TIP3   OH262809   3.862   0.114   4.758 -0.0517  1.1646 -0.4955
13773TIP3    H162810   3.783   0.067   4.784  0.9391 -0.8093 -0.8089
13773TIP3    H262811   3.847   0.140   4.668 -0.5698  1.3386 -0.3609
13774TIP3   OH262812   1.355   3.573   2.652  0.4615 -0.0947 -0.8424
13774TIP3    H162813   1.312   3.501   2.697  0.8724 -0.2059 -0.6163
13774TIP3    H262814   1.304   3.587   2.573 -0.7354  0.6137  0.0190
13775TIP3   OH262815   5.428   0.904  15.998  0.2656 -0.4751 -0.1013
13775TIP3    H162816   5.340   0.942  15.995 -0.0182 -0.8819  1.6590
13775TIP3    H262817   5.414   0.809  15.989  0.4972 -0.5544  0.3305
13776TIP3   OH262818   6.232   3.467   2.618 -0.5603  0.1483  0.5305
13776TIP3    H162819   6.320   3.461   2.656  0.9503 -0.2078 -2.6186
13776TIP3    H262820   6.217   3.560   2.606 -0.5383  0.2060  0.9605
13777TIP3   OH262821   6.551   4.235  13.091 -0.2908  0.2987 -0.3586
13777TIP3    H162822   6.631   4.270  13.050  1.1171 -2.3150 -0.0521
13777TIP3    H262823   6.558   4.262  13.183 -0.2299  0.8706 -0.5297
13778TIP3   OH262824   5.624   3.134  16.570  0.1017  0.5938  0.2385
13778TIP3    H162825   5.559   3.118  16.501 -1.1865  2.0962  1.0431
13778TIP3    H262826   5.640   3.048  16.608  0.3316 -0.1654 -1.4542
13779TIP3   OH262827   6.085   4.604  16.305  0.3247  0.5693  0.4815
13779TIP3    H162828   6.158   4.593  16.244  0.4317  1.7217  0.3805
13779TIP3    H262829   6.120   4.575  16.390  0.4661 -0.1586  0.1812
13780TIP3   OH262830   5.373   1.695   2.372 -0.3917  0.5049 -0.3474
13780TIP3    H162831   5.306   1.634   2.342  0.1795 -0.8435  0.9867
13780TIP3    H262832   5.403   1.740   2.292 -1.8282  0.0897 -1.1522
13781TIP3   OH262833   1.810   0.968   0.492 -0.3217 -0.5556  0.3862
13781TIP3    H162834   1.882   1.028   0.509  1.3061 -2.4750  0.5930
13781TIP3    H262835   1.833   0.926   0.409 -1.1135 -1.3307  0.5499
13782TIP3   OH262836   2.010   3.690   1.110 -0.0093 -0.9775  0.5066
13782TIP3    H162837   1.980   3.741   1.185 -0.9055 -0.6630 -0.0522
13782TIP3    H262838   1.935   3.636   1.086 -0.0570 -0.3958 -0.7439
13783TIP3   OH262839   6.612   2.122   2.131  0.0315  0.2918 -0.0014
13783TIP3    H162840   6.530   2.145   2.087 -1.6554 -3.0545  1.1281
13783TIP3    H262841   6.660   2.205   2.134 -2.4080  2.0003 -2.4373
13784TIP3   OH262842   3.133   4.491  10.771 -0.2399  0.1596 -0.1832
13784TIP3    H162843   3.128   4.569  10.715 -0.4573 -0.8876 -1.6800
13784TIP3    H262844   3.227   4.475  10.782 -0.1965  0.2561 -0.4094
13785TIP3   OH262845   3.254   5.186   0.086 -0.0447  0.4055  0.5737
13785TIP3    H162846   3.215   5.102   0.112  1.0864 -0.3948 -0.2270
13785TIP3    H262847   3.325   5.200   0.149 -0.6448  1.1056  1.1081
13786TIP3   OH262848   4.289   2.450   1.648 -0.0501  0.7273 -0.3661
13786TIP3    H162849   4.291   2.472   1.741  1.7453  1.0675 -0.4459
13786TIP3    H262850   4.310   2.357   1.645 -0.2835  0.6764 -0.4224
13787TIP3   OH262851   1.094   6.585  16.692 -0.0224  0.0004 -0.5304
13787TIP3    H162852   1.056   6.630  16.767  1.5330  1.4403 -0.5532
13787TIP3    H262853   1.187   6.575  16.714 -0.4695 -4.7463  0.1900
13788TIP3   OH262854   6.181   0.176  14.551  0.1721 -0.3379  0.6104
13788TIP3    H162855   6.236   0.253  14.564 -0.9629  0.3908  1.2655
13788TIP3    H262856   6.233   0.104  14.585  1.2776  0.1127 -0.0598
13789TIP3   OH262857   1.230   6.381   0.508  0.2087 -0.0296 -0.2698
13789TIP3    H162858   1.277   6.459   0.537 -0.4465 -0.0466  0.8964
13789TIP3    H262859   1.161   6.415   0.450  0.6699  0.1317 -0.7371
13790TIP3   OH262860   6.039   3.299  16.307 -0.1533 -0.0465 -0.5746
13790TIP3    H162861   6.095   3.349  16.367  1.7561 -1.4355 -1.0813
13790TIP3    H262862   5.951   3.311  16.341  0.4920  1.7156  0.6762
13791TIP3   OH262863   6.624   4.044  16.394  0.2370 -0.2454  0.2674
13791TIP3    H162864   6.650   4.090  16.474  2.1637 -0.4200 -0.2085
13791TIP3    H262865   6.622   4.111  16.327  0.5300 -0.4108  0.0884
13792TIP3   OH262866   1.129   2.240  15.845 -0.0583  0.0919  0.5177
13792TIP3    H162867   1.086   2.263  15.762  1.7523 -0.7287 -0.6968
13792TIP3    H262868   1.105   2.149  15.859  0.1008  0.0646  0.6061
13793TIP3   OH262869   1.959   0.585  14.719  0.1640 -0.0346  0.4432
13793TIP3    H162870   1.971   0.509  14.661  0.9098 -0.1309  0.7079
13793TIP3    H262871   2.004   0.656  14.674  0.3179  0.0091  0.6653
13794TIP3   OH262872   6.212   1.403   5.831  0.6245 -0.3202 -0.2084
13794TIP3    H162873   6.213   1.448   5.747  0.0100  0.4662  0.1998
13794TIP3    H262874   6.166   1.462   5.890 -2.8870 -2.6269 -0.3250
13795TIP3   OH262875   5.331   4.956   2.830  0.5289  0.0341 -0.1086
13795TIP3    H162876   5.247   4.920   2.801  0.4937  0.6147 -0.7470
13795TIP3    H262877   5.396   4.893   2.798  0.6154  1.3324 -2.7566
13796TIP3   OH262878   0.102   6.714   4.651  0.0231  0.5242  0.2510
13796TIP3    H162879   0.058   6.728   4.735 -1.2718  1.9546 -0.6002
13796TIP3    H262880   0.032   6.687   4.592  1.1764 -1.9953 -0.0682
13797TIP3   OH262881   3.807   6.399  12.936 -0.1863  0.2961  0.3177
13797TIP3    H162882   3.886   6.432  12.894  0.4921 -0.6470  0.7992
13797TIP3    H262883   3.821   6.304  12.943 -1.6975  0.0007 -0.2829
13798TIP3   OH262884   5.829   3.305   2.288  0.3674  0.7036 -0.1081
13798TIP3    H162885   5.758   3.328   2.227  0.1200  1.3573  0.4187
13798TIP3    H262886   5.909   3.327   2.241  0.1539  2.2577  0.1983
13799TIP3   OH262887   5.888   6.114   3.089  0.2215  0.3308  0.3263
13799TIP3    H162888   5.869   6.088   2.999 -1.1683  2.5321 -0.0878
13799TIP3    H262889   5.805   6.101   3.136  1.0956 -1.3962  1.4988
13800TIP3   OH262890   6.347   4.011   2.372 -0.1689  0.0437  0.2116
13800TIP3    H162891   6.315   4.078   2.432 -0.5340  0.2229 -0.1742
13800TIP3    H262892   6.367   3.936   2.428  1.1831  0.7855  0.7742
13801TIP3   OH262893   5.371   0.959   1.830 -0.0686  0.1807  0.3411
13801TIP3    H162894   5.446   0.910   1.796 -0.6430 -1.2997  1.1034
13801TIP3    H262895   5.342   0.908   1.906 -0.7323  1.7029  1.1527
13802TIP3   OH262896   6.466   3.183   0.827 -1.0040  0.2668 -0.5380
13802TIP3    H162897   6.395   3.202   0.766 -1.5283  0.3610  0.0922
13802TIP3    H262898   6.438   3.222   0.910 -1.0937 -1.3197  0.2200
13803TIP3   OH262899   6.210   0.866   2.134  0.0429 -0.3525  0.4976
13803TIP3    H162900   6.177   0.903   2.053  2.0087  0.5202  0.0298
13803TIP3    H262901   6.173   0.920   2.204 -0.3309 -0.0730  0.0797
13804TIP3   OH262902   2.327   2.946   6.586 -0.3141 -0.1947 -0.4838
13804TIP3    H162903   2.258   2.885   6.612 -0.1971 -0.2059 -0.1887
13804TIP3    H262904   2.405   2.914   6.631 -0.0727 -0.3000 -0.9816
13805TIP3   OH262905   4.885   4.341  17.138 -0.1326 -0.4314 -0.7144
13805TIP3    H162906   4.960   4.284  17.153 -0.0638 -0.5006 -1.2916
13805TIP3    H262907   4.922   4.418  17.094 -0.2798 -0.1035 -0.2739
13806TIP3   OH262908   0.642   6.604   5.575 -0.5042 -0.5360 -0.0834
13806TIP3    H162909   0.636   6.608   5.479  0.4548 -3.5731 -0.3905
13806TIP3    H262910   0.725   6.646   5.596 -1.0814  0.8552 -0.4509
13807TIP3   OH262911   2.069   1.693   3.546  0.2961 -0.3441 -0.1003
13807TIP3    H162912   2.057   1.598   3.538 -0.8823 -0.1156 -1.3880
13807TIP3    H262913   2.113   1.719   3.466 -1.2269  0.4515 -0.7249
13808TIP3   OH262914   4.138   0.209  16.717  0.0550  0.9746  0.8604
13808TIP3    H162915   4.084   0.215  16.638 -0.4492  2.0061  1.2643
13808TIP3    H262916   4.089   0.259  16.783  1.6611  2.2583  1.1455
13809TIP3   OH262917   1.087   6.477  16.072  0.1436  0.2710  0.6299
13809TIP3    H162918   0.998   6.442  16.074 -0.2255  1.0349 -1.1795
13809TIP3    H262919   1.143   6.399  16.081 -0.6838 -0.7740 -2.1622
13810TIP3   OH262920   5.909   5.930  16.464 -0.2817 -0.1626  0.0579
13810TIP3    H162921   5.854   6.009  16.461  0.5498  0.5737  2.1166
13810TIP3    H262922   5.918   5.911  16.558  0.9734 -1.7029 -0.3305
13811TIP3   OH262923   3.643   2.335  16.270 -0.2768 -0.1374 -0.5209
13811TIP3    H162924   3.680   2.422  16.283  0.2951 -0.2525 -1.3201
13811TIP3    H262925   3.566   2.333  16.327 -0.4089  0.9551 -0.6396
13812TIP3   OH262926   6.623   6.084  16.517  0.3015  0.7706  0.4174
13812TIP3    H162927   6.612   6.132  16.599  0.2853 -1.7083  1.9640
13812TIP3    H262928   6.533   6.064  16.489  0.2999  1.8006 -0.3488
13813TIP3   OH262929   5.707   1.815   4.381  0.0090 -0.1409  0.1397
13813TIP3    H162930   5.795   1.793   4.349  0.1654 -0.3198  0.6774
13813TIP3    H262931   5.662   1.731   4.385 -0.7273  0.1265 -1.6697
13814TIP3   OH262932   1.417   4.297   5.734  0.2033  0.5485  0.7144
13814TIP3    H162933   1.445   4.380   5.773 -2.0128  2.0341 -0.6463
13814TIP3    H262934   1.322   4.306   5.723  0.5480  0.5123 -5.2505
13815TIP3   OH262935   2.648   5.048  10.835  0.0356  0.2783  0.1916
13815TIP3    H162936   2.642   5.055  10.740 -0.7461 -2.0877  0.0052
13815TIP3    H262937   2.611   5.130  10.868  0.0596  1.0152 -1.5078
13816TIP3   OH262938   3.520   5.433  13.534 -0.0692  0.2718 -0.6434
13816TIP3    H162939   3.445   5.412  13.477 -0.1543  0.1322 -0.4779
13816TIP3    H262940   3.482   5.482  13.606 -0.0053  0.1595 -0.5343
13817TIP3   OH262941   2.385   0.410   4.740  0.6521  0.6073  0.7970
13817TIP3    H162942   2.395   0.321   4.707 -0.5174 -0.0279  2.0973
13817TIP3    H262943   2.408   0.466   4.665 -0.2393 -0.7749 -0.5613
13818TIP3   OH262944   3.527   6.448   1.500 -0.4392 -0.0381  0.0642
13818TIP3    H162945   3.559   6.407   1.581  1.1742  2.5911  0.8794
13818TIP3    H262946   3.436   6.471   1.519  0.2826  1.7390  1.7260
13819TIP3   OH262947   4.219   0.751  15.122  0.5927  0.8598  0.1694
13819TIP3    H162948   4.265   0.809  15.061 -2.6412  2.5975 -0.8051
13819TIP3    H262949   4.138   0.728  15.077  0.7782 -2.8566  1.4077
13820TIP3   OH262950   2.542   4.104   1.729  0.1875 -0.0773 -0.1575
13820TIP3    H162951   2.472   4.040   1.733  1.6235 -1.8869 -1.9748
13820TIP3    H262952   2.611   4.068   1.786 -0.5132  2.0634  2.2588
13821TIP3   OH262953   3.188   4.551  14.140 -0.4640 -0.5135 -0.6889
13821TIP3    H162954   3.174   4.457  14.129 -0.8807 -0.2912 -2.4035
13821TIP3    H262955   3.167   4.588  14.054 -0.0377  1.1174 -0.1220
13822TIP3   OH262956   1.617   5.484  16.938 -0.0815 -0.5348  0.3945
13822TIP3    H162957   1.550   5.459  17.002  0.0738  1.4628  1.3984
13822TIP3    H262958   1.568   5.523  16.866 -0.1010 -0.4149  0.4714
13823TIP3   OH262959   2.599   6.153   0.271 -0.0400 -0.9382  0.3198
13823TIP3    H162960   2.561   6.142   0.184  0.4014  0.7721 -0.1255
13823TIP3    H262961   2.686   6.190   0.255 -1.5087  3.8073  1.4331
13824TIP3   OH262962   0.619   3.032  10.637 -0.1815 -0.2159 -0.4911
13824TIP3    H162963   0.642   2.950  10.592  1.1284 -0.0455 -0.1648
13824TIP3    H262964   0.597   3.006  10.726 -1.0433 -0.3527 -0.7382
13825TIP3   OH262965   6.252   0.375   0.070  0.3844  0.3023  0.5494
13825TIP3    H162966   6.163   0.399   0.045  0.3054 -1.0894 -0.5977
13825TIP3    H262967   6.241   0.297   0.126  0.8695  0.2003  0.5092
13826TIP3   OH262968   2.175   2.926  10.474 -0.0515  0.8726 -0.0860
13826TIP3    H162969   2.267   2.942  10.494  0.0382 -0.3298  0.5553
13826TIP3    H262970   2.134   3.013  10.474  1.0088  1.3811 -0.0382
13827TIP3   OH262971   5.765   2.796  17.054 -0.3313 -0.3737 -0.4281
13827TIP3    H162972   5.852   2.836  17.064 -0.0028 -0.8416 -1.3857
13827TIP3    H262973   5.705   2.868  17.072  0.1935 -0.4212  1.9696
13828TIP3   OH262974   6.546   6.291   0.718 -0.3021 -0.2267  0.1161
13828TIP3    H162975   6.624   6.258   0.672 -0.0917  1.0210 -0.4756
13828TIP3    H262976   6.480   6.223   0.705  0.6784 -1.3111  0.6272
13829TIP3   OH262977   5.551   0.094   2.414 -0.4886  0.5440 -0.1791
13829TIP3    H162978   5.586   0.113   2.501  0.3194  0.0261 -0.3879
13829TIP3    H262979   5.481   0.030   2.430  0.9500 -1.0688 -0.0744
13830TIP3   OH262980   6.711   1.269   4.958  0.9437  0.2604 -0.5395
13830TIP3    H162981   6.752   1.348   4.993  0.4603  0.8333 -1.2324
13830TIP3    H262982   6.775   1.234   4.896  1.2820 -0.0646 -0.0106
13831TIP3   OH262983   5.011   5.349  12.133  0.2888  0.2837 -0.3800
13831TIP3    H162984   5.083   5.340  12.071 -0.3318 -0.2064 -1.0357
13831TIP3    H262985   4.937   5.307  12.091 -0.0410 -0.4766  0.8874
13832TIP3   OH262986   6.821   1.362   4.528 -0.1188 -0.2986 -0.5799
13832TIP3    H162987   6.740   1.354   4.579  0.5518  4.0150  1.6069
13832TIP3    H262988   6.808   1.441   4.475  2.4538  0.3016 -0.4585
13833TIP3   OH262989   3.392   2.016   5.442  0.1897  0.0426 -0.2057
13833TIP3    H162990   3.387   2.091   5.501 -1.0548 -0.3916  0.2744
13833TIP3    H262991   3.309   1.969   5.456  0.2357 -0.5195 -1.6987
13834TIP3   OH262992   0.739   6.511   0.779  0.0413  0.1099 -0.3050
13834TIP3    H162993   0.650   6.500   0.814 -0.2288  0.6460 -0.8182
13834TIP3    H262994   0.741   6.601   0.746  1.1415  0.4866  0.7295
13835TIP3   OH262995   2.875   3.286   1.233 -0.5286 -0.5446  0.7105
13835TIP3    H162996   2.919   3.206   1.204 -4.0623 -2.6309  0.5104
13835TIP3    H262997   2.946   3.348   1.250  2.2887 -2.7990 -1.7231
13836TIP3   OH262998   1.046   4.118  15.784 -0.2831 -0.4797 -0.0771
13836TIP3    H162999   0.963   4.071  15.773 -0.3515 -0.2711 -0.4699
13836TIP3    H263000   1.058   4.165  15.702 -0.0150 -0.1290  0.1591
13837TIP3   OH263001   3.992   3.653   3.995  0.3980  0.8876 -0.4153
13837TIP3    H163002   3.955   3.641   3.907  2.0745  0.3705 -1.0872
13837TIP3    H263003   3.987   3.566   4.035 -1.5711  1.3745  0.5653
13838TIP3   OH263004   4.380   5.587   4.189  0.6232 -0.0017  0.2858
13838TIP3    H163005   4.303   5.604   4.243 -0.5507  0.5469 -1.4880
13838TIP3    H263006   4.356   5.618   4.102  2.3945 -0.9830 -0.6067
13839TIP3   OH263007   3.664   0.590  16.969  0.5603  0.3804 -0.0157
13839TIP3    H163008   3.614   0.572  16.890 -2.5233 -0.3196  1.9033
13839TIP3    H263009   3.683   0.504  17.006  0.6472  0.7034  0.7148
13840TIP3   OH263010   0.581   5.545   1.824 -0.2461 -0.2005  0.6138
13840TIP3    H163011   0.549   5.634   1.806 -1.5466  0.0185  3.3925
13840TIP3    H263012   0.518   5.487   1.781  1.1866  0.1215 -2.1060
13841TIP3   OH263013   6.623   0.663  12.319  0.2911 -0.0329 -0.4007
13841TIP3    H163014   6.582   0.579  12.341 -0.7235  0.4948 -0.2208
13841TIP3    H263015   6.550   0.718  12.290  1.0474  0.5786 -1.1721
13842TIP3   OH263016   5.876   1.965   3.781 -0.5434  0.7728 -0.0702
13842TIP3    H163017   5.936   1.958   3.707 -0.0311 -1.8836  0.5047
13842TIP3    H263018   5.880   2.057   3.807 -0.9288  1.8453 -3.4316
13843TIP3   OH263019   6.768   2.695  13.680 -0.7616  0.1760 -0.1515
13843TIP3    H163020   6.767   2.748  13.601  0.9115  1.0255  0.3469
13843TIP3    H263021   6.843   2.727  13.730 -0.8546 -1.3601  1.0769
13844TIP3   OH263022   4.828   3.084   2.968  0.0789 -0.7213  0.0988
13844TIP3    H163023   4.889   3.012   2.959 -0.2590 -1.0944  0.7151
13844TIP3    H263024   4.762   3.053   3.030 -0.6655 -0.2822 -0.4489
13845TIP3   OH263025   2.625   6.478  11.375  0.3550  0.4273 -0.3504
13845TIP3    H163026   2.531   6.481  11.389  0.0032 -3.3851 -0.7303
13845TIP3    H263027   2.662   6.460  11.462  0.2367 -2.0044 -0.7241
13846TIP3   OH263028   3.471   6.203  13.103  0.0606 -0.5125 -0.1510
13846TIP3    H163029   3.417   6.276  13.074 -0.1413 -1.1896 -1.5618
13846TIP3    H263030   3.489   6.153  13.024  0.9215 -1.5188  0.6442
13847TIP3   OH263031   5.650   3.206   3.399  0.4722  0.0369  0.1631
13847TIP3    H163032   5.695   3.125   3.378 -0.1190 -1.5328  4.1573
13847TIP3    H263033   5.563   3.196   3.359  1.7986  0.9711 -3.3841
13848TIP3   OH263034   3.914   5.287   0.514  0.2308  0.0714  0.4711
13848TIP3    H163035   3.924   5.252   0.603  0.4494  1.3017  0.9634
13848TIP3    H263036   3.907   5.382   0.527 -0.7099  0.1990 -0.7593
13849TIP3   OH263037   1.366   4.702   2.367  0.3641  0.0813 -0.2689
13849TIP3    H163038   1.394   4.667   2.282  2.3571  2.0036 -0.5114
13849TIP3    H263039   1.382   4.631   2.429  0.8840 -0.6444 -1.2023
13850TIP3   OH263040   4.308   3.421   1.569 -0.0707  0.2456  0.0780
13850TIP3    H163041   4.249   3.456   1.502 -1.4224 -1.2285  0.4264
13850TIP3    H263042   4.366   3.362   1.522  0.0366  0.4459 -0.0386
13851TIP3   OH263043   3.637   3.312  14.253 -0.0819 -0.3262  0.7931
13851TIP3    H163044   3.547   3.344  14.260 -0.2559 -0.6482  0.0500
13851TIP3    H263045   3.686   3.386  14.217 -0.3246 -0.6013 -0.1279
13852TIP3   OH263046   2.934   5.706   2.174 -0.2244 -0.1221 -0.4427
13852TIP3    H163047   2.868   5.769   2.200 -1.2495 -0.6448 -1.6675
13852TIP3    H263048   2.887   5.642   2.120  1.1544 -0.8538 -0.8368
13853TIP3   OH263049   3.484   5.276  15.777 -0.5038  0.2189 -0.3850
13853TIP3    H163050   3.418   5.230  15.829 -0.6176 -2.0419 -2.3460
13853TIP3    H263051   3.567   5.260  15.822 -0.4251 -2.7135 -1.3473
13854TIP3   OH263052   0.136   2.487  11.081  0.2383  0.4967 -0.0621
13854TIP3    H163053   0.081   2.497  11.159 -1.0495  0.3521 -0.9111
13854TIP3    H263054   0.164   2.576  11.060  1.5550  0.4115  1.2002
13855TIP3   OH263055   1.667   1.132  16.617  0.5870  0.1934  0.4242
13855TIP3    H163056   1.691   1.224  16.605 -0.9808  0.4036 -1.4549
13855TIP3    H263057   1.574   1.134  16.638 -0.5094 -1.0564 -3.5540
13856TIP3   OH263058   6.624   0.120  15.193 -0.0862  0.2888 -0.5679
13856TIP3    H163059   6.655   0.202  15.231  0.4949 -0.0607 -0.2773
13856TIP3    H263060   6.581   0.074  15.266  0.5945 -0.1621 -0.4384
13857TIP3   OH263061   3.518   5.116  13.186 -0.4918 -0.0307  0.0759
13857TIP3    H163062   3.472   5.050  13.134  0.2588 -1.0887  0.7026
13857TIP3    H263063   3.606   5.118  13.150  0.7571 -2.4684  2.6448
13858TIP3   OH263064   6.258   6.419   5.211  0.0783  0.1968  0.1178
13858TIP3    H163065   6.176   6.455   5.177 -0.3681  0.2785  1.2277
13858TIP3    H263066   6.256   6.440   5.304  0.4427 -1.5081  0.5426
13859TIP3   OH263067   6.680   4.758  13.399  0.4139  0.4111  0.3157
13859TIP3    H163068   6.727   4.690  13.349  1.9307  0.6393  1.3490
13859TIP3    H263069   6.710   4.840  13.360 -0.9837  0.5347 -0.5596
13860TIP3   OH263070   6.711   6.289  15.887  0.0121  0.1690 -0.3117
13860TIP3    H163071   6.625   6.296  15.845  0.1760  0.5307 -0.5909
13860TIP3    H263072   6.694   6.240  15.968 -0.1153 -1.5781 -1.3447
13861TIP3   OH263073   6.272   3.685   5.499 -0.2524 -0.1685  0.0321
13861TIP3    H163074   6.366   3.674   5.487  0.1472  0.8950  1.8090
13861TIP3    H263075   6.244   3.737   5.423  0.7212  0.0568 -0.1854
13862TIP3   OH263076   6.752   4.006   0.933 -0.1645 -0.1941  0.2761
13862TIP3    H163077   6.736   3.986   0.841  0.2609 -1.4515  0.4517
13862TIP3    H263078   6.680   4.064   0.958 -0.1696  0.3382 -0.8895
13863TIP3   OH263079   1.777   5.123  11.388 -0.1078  0.1893  0.3165
13863TIP3    H163080   1.852   5.071  11.359 -0.7166  0.2581 -1.5304
13863TIP3    H263081   1.816   5.199  11.431  0.8070 -1.0016  1.6705
13864TIP3   OH263082   0.426   5.543   2.675  0.1968 -0.0442  0.1841
13864TIP3    H163083   0.514   5.563   2.707  0.5955  0.7268 -1.3150
13864TIP3    H263084   0.403   5.618   2.620 -0.1673 -1.5395 -1.8303
13865TIP3   OH263085   5.967   0.035   1.741  0.1205  0.2397  0.4083
13865TIP3    H163086   5.894   0.084   1.702 -0.1439  1.4508  2.2841
13865TIP3    H263087   5.924  -0.032   1.795  0.3610  0.7470  1.2545
13866TIP3   OH263088   1.312   5.272   4.143 -0.3784  0.5208  1.1569
13866TIP3    H163089   1.328   5.230   4.059 -0.3399  1.2688  0.7809
13866TIP3    H263090   1.298   5.199   4.204 -0.2009 -0.0320  0.5508
13867TIP3   OH263091   3.089   2.138   3.491  0.8068  0.0695 -0.2455
13867TIP3    H163092   3.009   2.152   3.542  0.0932  1.5779 -1.6656
13867TIP3    H263093   3.158   2.126   3.556 -0.4476 -0.6187  1.0183
13868TIP3   OH263094   5.288   0.581   4.948  0.0989  0.4856  0.3110
13868TIP3    H163095   5.344   0.658   4.958 -0.2217  0.8645 -0.6204
13868TIP3    H263096   5.269   0.578   4.854  1.1978 -1.5155  0.1115
13869TIP3   OH263097   0.742   5.515  11.702  0.1400 -0.4372  0.0276
13869TIP3    H163098   0.811   5.580  11.691  0.2905 -0.7531 -0.9245
13869TIP3    H263099   0.662   5.560  11.676  0.2715 -0.6824 -0.8264
13870TIP3   OH263100   0.435   4.412   2.023 -0.1779  0.0873 -0.1918
13870TIP3    H163101   0.418   4.357   2.100 -2.2126 -0.0919 -0.6974
13870TIP3    H263102   0.521   4.384   1.992 -0.5294 -1.8266  0.4043
13871TIP3   OH263103   1.370   6.776   3.657 -0.0377 -0.1144  0.1465
13871TIP3    H163104   1.423   6.736   3.589 -0.5834 -0.1330 -0.2722
13871TIP3    H263105   1.283   6.738   3.646 -0.6694  1.4285 -0.4952
13872TIP3   OH263106   6.247   6.392  11.405 -0.0544  0.1182 -0.0988
13872TIP3    H163107   6.343   6.396  11.396 -0.1906  0.5881 -1.5508
13872TIP3    H263108   6.227   6.299  11.394  0.0968  0.2455 -1.6065
13873TIP3   OH263109   2.680   2.607   2.646 -0.4092  0.1215  0.1212
13873TIP3    H163110   2.597   2.567   2.673  0.2631 -1.1816  0.2865
13873TIP3    H263111   2.740   2.534   2.635  0.7037  1.0441 -0.1042
13874TIP3   OH263112   5.330   5.501  14.115 -0.2012  0.1967  0.3764
13874TIP3    H163113   5.352   5.539  14.199 -1.1877 -0.7798  1.1036
13874TIP3    H263114   5.375   5.417  14.114 -0.5035  0.0332  0.1028
13875TIP3   OH263115   3.051   3.749   4.377  0.2824 -0.6869  0.3849
13875TIP3    H163116   2.999   3.767   4.298  0.4156  2.6421  0.8924
13875TIP3    H263117   2.988   3.761   4.449  0.9831  0.2294  0.8725
13876TIP3   OH263118   4.687   3.140   5.685 -0.6375  0.3154  0.0666
13876TIP3    H163119   4.758   3.099   5.637 -2.5126 -2.8347 -0.3521
13876TIP3    H263120   4.720   3.150   5.774 -0.2308 -3.2619  0.4875
13877TIP3   OH263121   0.649   3.488  13.836 -0.0507 -0.5176  0.3709
13877TIP3    H163122   0.706   3.515  13.763 -1.8112  1.5800 -0.3433
13877TIP3    H263123   0.706   3.437  13.894  1.3783 -2.6236 -2.5883
13878TIP3   OH263124   3.591   1.937   0.086  0.0534  0.2385  0.2090
13878TIP3    H163125   3.588   2.014   0.030  1.4434 -0.4065 -0.8085
13878TIP3    H263126   3.500   1.909   0.094 -0.4025  1.6211  0.1189
13879TIP3   OH263127   0.879   4.423   4.152 -0.1434  0.1733  0.0222
13879TIP3    H163128   0.954   4.443   4.209 -0.6294 -0.4760  0.9008
13879TIP3    H263129   0.871   4.501   4.097 -0.0971  1.1291  1.3144
13880TIP3   OH263130   6.196   3.255   0.196  0.0028  0.3973  0.3805
13880TIP3    H163131   6.160   3.338   0.227  0.1004  0.7773 -0.4860
13880TIP3    H263132   6.255   3.279   0.125 -0.8302 -0.4745 -0.6554
13881TIP3   OH263133   0.839   1.026  11.395 -0.3732 -0.8865  0.0236
13881TIP3    H163134   0.913   1.000  11.449  0.6977  0.8749 -0.5221
13881TIP3    H263135   0.763   0.989  11.439  0.8288 -3.2278  0.3062
13882TIP3   OH263136   6.046   1.931   5.955 -0.1860  0.4681  0.0383
13882TIP3    H163137   6.138   1.955   5.948  0.1225 -0.9321 -1.3627
13882TIP3    H263138   5.999   2.002   5.910  0.2368  0.9262  0.3108
13883TIP3   OH263139   6.435   2.267   6.888 -0.4236  0.4884 -0.5828
13883TIP3    H163140   6.403   2.215   6.961 -0.9193  0.5166 -0.7733
13883TIP3    H263141   6.374   2.249   6.817  0.8467 -0.6333 -1.4509
13884TIP3   OH263142   3.512   5.365   5.540 -0.6023 -0.4233  0.3096
13884TIP3    H163143   3.437   5.394   5.592  0.5183  1.4323  1.0242
13884TIP3    H263144   3.543   5.286   5.584 -1.7642 -0.8604  0.3555
13885TIP3   OH263145   2.691   3.656   4.882  0.0837  1.2155  0.3456
13885TIP3    H163146   2.649   3.583   4.836  0.3248  0.5687  1.1253
13885TIP3    H263147   2.781   3.656   4.850  0.1324  1.0495  0.4809
13886TIP3   OH263148   0.803   4.399   0.355 -0.0548  0.5514  0.0211
13886TIP3    H163149   0.832   4.447   0.432 -0.7829  1.2239 -0.1061
13886TIP3    H263150   0.838   4.311   0.367 -0.9584  0.3684  1.6144
13887TIP3   OH263151   6.059   2.704  12.629  0.0191 -0.1225 -0.3140
13887TIP3    H163152   5.984   2.653  12.598 -0.8331  0.5538  0.5780
13887TIP3    H263153   6.135   2.653  12.602 -0.8026 -2.4170  1.3284
13888TIP3   OH263154   6.461   6.283  10.884 -0.2743  0.2728  0.2368
13888TIP3    H163155   6.517   6.215  10.848 -1.9458 -0.2521 -1.5545
13888TIP3    H263156   6.376   6.240  10.895 -0.8453  1.5391  1.0080
13889TIP3   OH263157   3.126   2.435   4.166 -0.0214  0.4064 -0.6722
13889TIP3    H163158   3.146   2.473   4.251 -0.2443 -0.8006 -0.0624
13889TIP3    H263159   3.065   2.496   4.126 -0.3708  0.6980  0.2839
13890TIP3   OH263160   3.267   4.006   3.134  0.1859 -0.0801 -0.0958
13890TIP3    H163161   3.236   3.920   3.160  0.2686  0.2179  1.0712
13890TIP3    H263162   3.357   4.010   3.167  0.0573  0.5843  0.2114
13891TIP3   OH263163   2.377   1.157  15.971  0.5189 -0.3367  0.6285
13891TIP3    H163164   2.387   1.122  15.883 -2.5536 -0.4351  0.1953
13891TIP3    H263165   2.338   1.244  15.958  0.1982 -0.2767  1.8635
13892TIP3   OH263166   2.690   4.422  12.196 -0.2596  0.0971 -0.2230
13892TIP3    H163167   2.672   4.505  12.153 -0.6616 -1.2023 -2.7189
13892TIP3    H263168   2.726   4.447  12.282  1.3288  2.8376 -1.5474
13893TIP3   OH263169   6.054   2.496   3.306 -0.3203  0.1945  0.2677
13893TIP3    H163170   6.111   2.551   3.251 -2.0286 -0.1326 -1.9595
13893TIP3    H263171   6.103   2.414   3.316  0.3374  0.5225 -0.1634
13894TIP3   OH263172   2.891   6.279  12.333  0.2993 -0.1212 -0.1076
13894TIP3    H163173   2.932   6.328  12.404  0.7655  0.8698 -1.0284
13894TIP3    H263174   2.869   6.346  12.268  0.2223 -1.0479 -1.0535
13895TIP3   OH263175   6.393   2.700   0.046 -0.1376 -0.7889  0.0011
13895TIP3    H163176   6.324   2.751   0.003  0.4927 -0.6155 -0.8394
13895TIP3    H263177   6.473   2.750   0.031  0.0964 -0.7097  1.4527
13896TIP3   OH263178   1.195   5.212  14.871 -0.3699  0.4763  0.3047
13896TIP3    H163179   1.103   5.239  14.868 -0.3771  0.3899 -2.0762
13896TIP3    H263180   1.232   5.244  14.789  1.2462 -1.1303  0.3462
13897TIP3   OH263181   2.204   3.505  11.399  0.4693 -1.0767  0.5185
13897TIP3    H163182   2.191   3.514  11.304  3.8225  0.0182  0.0467
13897TIP3    H263183   2.192   3.594  11.432  3.0457 -0.6614  0.4899
13898TIP3   OH263184   6.249   6.180  15.818 -0.3037  0.2604  0.2141
13898TIP3    H163185   6.246   6.085  15.827  1.6183 -0.2554 -2.9074
13898TIP3    H263186   6.181   6.199  15.753  0.1196  0.8312 -0.0679
13899TIP3   OH263187   0.827   4.241  13.661 -0.8907  0.2430  0.1479
13899TIP3    H163188   0.778   4.225  13.581 -2.8687 -1.8082  1.6304
13899TIP3    H263189   0.775   4.304  13.710  0.2750  1.4443 -0.1164
13900TIP3   OH263190   3.717   6.134   6.365 -0.6357 -0.2331 -0.6410
13900TIP3    H163191   3.778   6.075   6.409 -0.5995 -0.4808 -1.0221
13900TIP3    H263192   3.631   6.104   6.392 -0.5837  0.5134  0.4092
13901TIP3   OH263193   6.826   5.633  13.561 -0.1638  0.2068  0.9420
13901TIP3    H163194   6.851   5.673  13.644 -0.0528  1.5711  0.2815
13901TIP3    H263195   6.735   5.658  13.549  0.2376  1.3184 -0.0358
13902TIP3   OH263196   6.804   4.155   5.393  0.0362  0.1246  0.6505
13902TIP3    H163197   6.879   4.190   5.345 -0.9925 -0.5337 -1.5791
13902TIP3    H263198   6.805   4.202   5.476  1.0511  2.5013 -0.5910
13903TIP3   OH263199   6.500   2.581  14.590  0.0358  0.1268  0.3845
13903TIP3    H163200   6.515   2.492  14.559  2.2528  0.7689 -0.6370
13903TIP3    H263201   6.408   2.583  14.615  0.0047 -2.5397  0.8001
13904TIP3   OH263202   3.489   4.129  14.842 -0.1891  0.2052  0.4123
13904TIP3    H163203   3.452   4.127  14.754  1.2518  0.3340 -0.2167
13904TIP3    H263204   3.524   4.041  14.856 -1.1556 -0.0709  1.2074
13905TIP3   OH263205   0.469   1.323  13.846 -0.1129 -0.0047  0.6915
13905TIP3    H163206   0.447   1.230  13.851  0.4715 -0.1450  0.6859
13905TIP3    H263207   0.564   1.326  13.850 -0.1450  0.6343  1.2742
13906TIP3   OH263208   2.879   5.957  14.779 -0.2503  0.0085  0.4669
13906TIP3    H163209   2.860   5.967  14.872 -1.1367 -1.3987  0.4722
13906TIP3    H263210   2.969   5.988  14.769 -0.0043 -0.2039  1.8622
13907TIP3   OH263211   0.557   1.510   1.702  0.0528  0.1296  0.2828
13907TIP3    H163212   0.651   1.523   1.701  0.0237  0.4336 -1.0643
13907TIP3    H263213   0.529   1.534   1.790  1.2074  0.1784  0.6426
13908TIP3   OH263214   0.232   1.083   0.348 -0.6277  0.7620 -0.1240
13908TIP3    H163215   0.311   1.115   0.306 -1.7382  1.2994 -1.9034
13908TIP3    H263216   0.263   1.016   0.410  1.1631  0.6884 -1.0385
13909TIP3   OH263217   3.886   3.019  12.080  0.0954  0.3047 -0.3721
13909TIP3    H163218   3.891   3.112  12.104  0.4575  0.1189  0.3035
13909TIP3    H263219   3.853   3.020  11.990  0.9096  1.1305 -0.6854
13910TIP3   OH263220   5.163   2.247   3.707  0.7213  0.0682 -0.0744
13910TIP3    H163221   5.175   2.214   3.796 -1.1925 -0.6114 -0.0270
13910TIP3    H263222   5.109   2.181   3.664 -0.2864  1.4732 -1.0409
13911TIP3   OH263223   4.913   1.068   1.964 -0.4718  0.1356  0.3623
13911TIP3    H163224   4.860   1.099   2.037 -0.6134  0.0903  0.2774
13911TIP3    H263225   4.934   0.977   1.987 -1.9951 -0.4605 -0.4863
13912TIP3   OH263226   2.039   3.428   6.253 -0.3121 -0.0455 -0.3911
13912TIP3    H163227   1.983   3.352   6.241 -0.1391 -0.1270 -0.6876
13912TIP3    H263228   2.108   3.417   6.188  0.9906 -0.8224  1.0468
13913TIP3   OH263229   5.357   2.037   2.641 -0.4486 -0.5285  0.4218
13913TIP3    H163230   5.298   2.073   2.575  1.5149 -0.8423 -1.6606
13913TIP3    H263231   5.319   1.952   2.664 -1.0595 -0.5178 -0.5054
13914TIP3   OH263232   4.625   6.637  13.273 -0.0133 -0.8321 -0.0045
13914TIP3    H163233   4.609   6.723  13.233 -0.0728 -1.3264 -1.0930
13914TIP3    H263234   4.552   6.583  13.243 -1.2321 -0.7188  2.4807
13915TIP3   OH263235   1.792   4.142  11.327  0.1581  0.0187 -0.0360
13915TIP3    H163236   1.740   4.153  11.407  2.0527  1.2939  1.1254
13915TIP3    H263237   1.757   4.208  11.267  0.5348  1.0305  0.8133
13916TIP3   OH263238   2.447   5.845   3.355 -0.1241 -0.5869 -0.1867
13916TIP3    H163239   2.414   5.906   3.290  0.3158  0.1543  0.2633
13916TIP3    H263240   2.528   5.810   3.317 -1.2050 -2.1851 -1.1625
13917TIP3   OH263241   0.656   2.753   2.588 -0.0028 -0.4123  0.6913
13917TIP3    H163242   0.734   2.797   2.622 -0.1266  0.7912 -0.4727
13917TIP3    H263243   0.588   2.772   2.652  0.4320 -0.6843  1.2453
13918TIP3   OH263244   3.853   0.680  11.675 -0.0938  0.2903 -0.7932
13918TIP3    H163245   3.777   0.628  11.648 -1.7358  0.1426  3.4154
13918TIP3    H263246   3.922   0.615  11.690  0.1903  0.1855 -2.3581
13919TIP3   OH263247   5.645   3.053   2.365 -0.5005  0.8038 -0.2832
13919TIP3    H163248   5.697   2.994   2.311 -1.5523 -0.4222 -0.0029
13919TIP3    H263249   5.670   3.141   2.335 -0.8465  0.1944 -2.5766
13920TIP3   OH263250   2.519   3.259  13.902 -0.1700  0.4766  0.2604
13920TIP3    H163251   2.472   3.181  13.931  1.3350 -0.7499 -0.3879
13920TIP3    H263252   2.599   3.259  13.955  0.4679  0.7813 -0.6606
13921TIP3   OH263253   6.675   1.890   1.536 -0.1358  0.1117  0.1406
13921TIP3    H163254   6.603   1.899   1.599 -1.4368  0.4088 -1.3097
13921TIP3    H263255   6.728   1.818   1.569 -1.5839 -0.6672  0.8280
13922TIP3   OH263256   0.729   6.439  16.861  0.0881  0.4121 -0.2908
13922TIP3    H163257   0.729   6.452  16.956  1.4565 -0.1178 -0.1910
13922TIP3    H263258   0.689   6.353  16.849  0.1695  0.3565 -0.1682
13923TIP3   OH263259   6.419   3.783   4.041 -0.1994  0.2158 -0.5409
13923TIP3    H163260   6.504   3.784   3.998  0.0546 -1.5323 -0.1578
13923TIP3    H263261   6.357   3.807   3.971  0.6456  2.3125 -0.6141
13924TIP3   OH263262   5.053   3.204  13.614 -0.4281 -0.2423 -0.0021
13924TIP3    H163263   5.119   3.158  13.665 -1.8656  0.1448  2.3479
13924TIP3    H263264   5.007   3.134  13.567  0.7348 -0.6395 -0.5783
13925TIP3   OH263265   5.439   3.058   4.259 -0.1619  0.1155 -0.9994
13925TIP3    H163266   5.508   3.020   4.314 -0.1477  0.6581 -0.6274
13925TIP3    H263267   5.487   3.109   4.193 -0.1741 -0.6446 -1.6164
13926TIP3   OH263268   0.310   4.283  16.879  0.2525  0.2509 -0.2864
13926TIP3    H163269   0.315   4.251  16.969  1.1966 -0.9369 -0.7452
13926TIP3    H263270   0.353   4.369  16.882 -0.9137  0.8439  0.6395
13927TIP3   OH263271   1.575   0.642  13.906  0.2749 -0.0740 -0.1373
13927TIP3    H163272   1.652   0.676  13.951 -0.8854  1.3203  0.9287
13927TIP3    H263273   1.556   0.559  13.950  0.5567  0.1031  0.3217
13928TIP3   OH263274   1.992   4.310  12.452 -0.4617 -0.0512  0.4342
13928TIP3    H163275   2.021   4.401  12.457 -1.0250  0.1000  1.0134
13928TIP3    H263276   1.897   4.315  12.445 -0.4850 -0.5951  0.3264
13929TIP3   OH263277   3.970   3.146  14.712 -0.4952  0.0159 -0.0293
13929TIP3    H163278   3.908   3.133  14.784  1.3423  2.2088  2.1243
13929TIP3    H263279   4.049   3.100  14.740  0.3131  1.0576 -0.5386
13930TIP3   OH263280   3.988   6.343   4.365 -0.2037  0.3111 -0.0805
13930TIP3    H163281   4.042   6.422   4.368  0.2774 -0.0337  1.1375
13930TIP3    H263282   4.049   6.272   4.385 -1.0170 -0.1284  0.9220
13931TIP3   OH263283   4.488   2.585  16.278 -0.5514  0.1846  0.3828
13931TIP3    H163284   4.512   2.527  16.206 -1.3320  0.4229 -0.0704
13931TIP3    H263285   4.459   2.665  16.236  0.7316  1.0244  1.0103
13932TIP3   OH263286   6.005   5.658  17.005 -1.0745  0.3366 -0.0346
13932TIP3    H163287   6.079   5.648  16.946 -0.0206  1.1458  1.1001
13932TIP3    H263288   6.044   5.678  17.090 -2.4948 -1.4642  1.1385
13933TIP3   OH263289   2.552   5.026   0.588 -0.1508 -0.0782  0.3178
13933TIP3    H163290   2.492   5.083   0.636 -0.0805 -0.1608  0.5043
13933TIP3    H263291   2.563   5.069   0.503  0.3689  0.5044  0.6684
13934TIP3   OH263292   1.136   4.881  11.447  0.0515 -0.0444  0.1703
13934TIP3    H163293   1.056   4.885  11.501 -0.9053 -0.0638 -1.1981
13934TIP3    H263294   1.138   4.790  11.416 -0.5730  0.4705 -1.4825
13935TIP3   OH263295   4.058   3.530   5.781  0.0246 -0.0072 -0.0736
13935TIP3    H163296   4.071   3.449   5.731  0.7243 -0.4827  0.8292
13935TIP3    H263297   4.007   3.502   5.858 -0.0996  0.4920  0.0277
13936TIP3   OH263298   3.853   1.193   5.744 -0.2098  0.3017  0.2822
13936TIP3    H163299   3.931   1.228   5.787  0.4269 -0.8949  0.1581
13936TIP3    H263300   3.829   1.116   5.796  1.2744 -1.8904 -2.0569
13937TIP3   OH263301   2.594   5.528  11.228  0.2207 -0.0795 -0.5740
13937TIP3    H163302   2.606   5.443  11.186  0.1490 -0.2899 -0.1778
13937TIP3    H263303   2.585   5.507  11.321  0.9937  0.4300 -0.3761
13938TIP3   OH263304   4.996   2.764  16.011 -0.3376 -0.1333 -0.3073
13938TIP3    H163305   4.977   2.733  16.100 -0.6455  0.6162 -0.1046
13938TIP3    H263306   5.009   2.859  16.021 -0.7513  0.0172 -1.1208
13939TIP3   OH263307   2.705   5.583  10.922 -0.7300  0.0274  0.3383
13939TIP3    H163308   2.658   5.660  10.891  0.9558  0.8441 -0.2939
13939TIP3    H263309   2.646   5.510  10.903 -0.7552  0.7224 -2.7524
13940TIP3   OH263310   0.209   1.496  10.602 -0.0794 -0.3963  0.0541
13940TIP3    H163311   0.133   1.482  10.659 -0.1508  3.3612  1.1272
13940TIP3    H263312   0.178   1.557  10.535  1.2067 -1.3096 -1.4587
13941TIP3   OH263313   3.080   6.456   0.678  0.1970 -0.0981 -0.1454
13941TIP3    H163314   3.014   6.394   0.708  0.4378 -1.4804 -2.2411
13941TIP3    H263315   3.149   6.451   0.744 -0.9535 -0.0026  1.1145
13942TIP3   OH263316   0.300   3.455  11.107 -0.7525  0.4759 -0.2642
13942TIP3    H163317   0.322   3.542  11.072  0.2132  1.5920  2.7170
13942TIP3    H263318   0.206   3.458  11.122 -0.5636  1.6231  1.0218
13943TIP3   OH263319   1.142   3.384   2.003 -0.3122 -0.1248 -0.3155
13943TIP3    H163320   1.177   3.471   1.984 -1.2289  0.1615 -0.7413
13943TIP3    H263321   1.147   3.377   2.098  0.9584 -0.1225 -0.3728
13944TIP3   OH263322   1.120   5.600  14.920 -0.2833 -0.3398 -0.1032
13944TIP3    H163323   1.115   5.538  14.993  2.6986  0.8830  1.2982
13944TIP3    H263324   1.056   5.668  14.942 -0.4332 -0.7116  0.6424
13945TIP3   OH263325   5.090   5.902   1.250  0.1058 -0.1107 -0.5721
13945TIP3    H163326   5.105   5.817   1.291  3.0843 -0.5559 -2.3178
13945TIP3    H263327   5.121   5.966   1.314 -2.2156 -0.2285  0.7772
13946TIP3   OH263328   0.500   5.963   5.712 -0.1792  0.2258 -0.0946
13946TIP3    H163329   0.539   5.983   5.627  1.3304  1.1926  0.7711
13946TIP3    H263330   0.575   5.949   5.770 -0.9974  3.2714  1.9152
13947TIP3   OH263331   4.834   2.305  14.789 -0.4297 -0.2317 -0.6240
13947TIP3    H163332   4.890   2.300  14.712 -0.7189 -0.7246 -0.8077
13947TIP3    H263333   4.809   2.397  14.795 -1.7787 -0.4646 -2.1248
13948TIP3   OH263334   2.319   4.285   3.123  0.4423 -0.0309  0.3450
13948TIP3    H163335   2.371   4.361   3.097 -1.0688  1.1592  0.7086
13948TIP3    H263336   2.384   4.220   3.149  1.8980  0.1567 -2.3998
13949TIP3   OH263337   6.162   2.358   6.140 -0.2592 -0.0169  0.2428
13949TIP3    H163338   6.249   2.324   6.157  0.1024  1.4652  1.5835
13949TIP3    H263339   6.129   2.384   6.226 -0.9197  1.9601 -0.5550
13950TIP3   OH263340   2.087   1.347  12.720  0.1368  0.6141  0.0735
13950TIP3    H163341   1.994   1.334  12.705  0.1245 -0.0286  0.6490
13950TIP3    H263342   2.120   1.261  12.748  1.1782  0.4877 -1.4328
13951TIP3   OH263343   4.144   6.574  11.803  0.2772 -0.6008 -0.1479
13951TIP3    H163344   4.155   6.582  11.708  0.2754  2.3917  0.0352
13951TIP3    H263345   4.067   6.518  11.813  0.7436 -1.6405 -1.8456
13952TIP3   OH263346   5.150   4.196   4.324 -0.7453 -0.0605  0.2140
13952TIP3    H163347   5.188   4.216   4.238 -0.5987 -1.4834 -0.0771
13952TIP3    H263348   5.057   4.218   4.314 -0.7679 -0.3883 -0.3814
13953TIP3   OH263349   1.890   2.183   3.194 -0.0639  0.1464  0.0241
13953TIP3    H163350   1.922   2.111   3.141 -0.6398 -0.5053  0.5412
13953TIP3    H263351   1.967   2.237   3.211  0.6415 -1.0448  0.7170
13954TIP3   OH263352   3.193   5.667   4.162  0.5526 -0.5976 -0.6641
13954TIP3    H163353   3.112   5.682   4.114 -0.6012 -1.3234  0.9665
13954TIP3    H263354   3.171   5.687   4.253  2.1602 -0.9488 -0.1676
13955TIP3   OH263355   4.795   0.985  11.234  0.1907  0.1618  0.8527
13955TIP3    H163356   4.811   1.016  11.323  0.9020  0.7176  0.5347
13955TIP3    H263357   4.838   1.049  11.177  2.0409 -1.5642  0.1912
13956TIP3   OH263358   3.591   1.693   5.469  0.7794 -0.2852 -0.4277
13956TIP3    H163359   3.544   1.611   5.456  2.3539 -1.0907 -1.2249
13956TIP3    H263360   3.526   1.751   5.510 -0.6260 -1.6202 -0.6685
13957TIP3   OH263361   2.050   6.437   3.463 -0.4827 -0.2344  0.0668
13957TIP3    H163362   2.009   6.522   3.476  0.8037  0.1476  1.9417
13957TIP3    H263363   2.066   6.432   3.368 -1.2688  1.2500 -0.1677
13958TIP3   OH263364   5.758   3.784   4.142 -0.1287  0.0539 -0.0509
13958TIP3    H163365   5.807   3.800   4.061  1.3010  1.1156  0.9989
13958TIP3    H263366   5.753   3.869   4.185 -1.2081 -0.4232  0.8247
13959TIP3   OH263367   3.970   2.113   5.398  0.4991  0.0800  0.2053
13959TIP3    H163368   3.987   2.192   5.449  0.8442 -0.0704  0.3268
13959TIP3    H263369   4.057   2.080   5.375  0.3530 -0.1225 -0.0668
13960TIP3   OH263370   4.864   3.890  12.054 -0.2975  0.2814  0.6153
13960TIP3    H163371   4.908   3.955  11.999 -0.9482  0.9434  0.8705
13960TIP3    H263372   4.892   3.806  12.017 -0.0477  0.7040 -0.1937
13961TIP3   OH263373   3.674   3.890  10.634  0.4443  0.1255 -0.1556
13961TIP3    H163374   3.762   3.881  10.670 -0.3652 -0.3677  1.8574
13961TIP3    H263375   3.683   3.871  10.541  2.4036 -0.2230  0.0747
13962TIP3   OH263376   0.890   6.107  16.953 -0.0668 -0.1867 -0.0591
13962TIP3    H163377   0.916   6.198  16.935 -0.2422 -0.1732 -0.2481
13962TIP3    H263378   0.936   6.085  17.034 -0.7625  0.3986  0.5195
13963TIP3   OH263379   3.349   4.752   1.281 -0.3384 -0.2432 -0.2108
13963TIP3    H163380   3.441   4.731   1.301 -0.0809  2.5802  2.3419
13963TIP3    H263381   3.299   4.694   1.338 -0.1393 -1.0550 -0.8368
13964TIP3   OH263382   1.432   3.206  11.578 -0.4620 -0.1439  0.0242
13964TIP3    H163383   1.445   3.141  11.646  0.6848  0.3109  0.2505
13964TIP3    H263384   1.361   3.170  11.524  1.1577 -2.3683 -0.7880
13965TIP3   OH263385   3.069   1.425  13.982  0.7122 -0.3193 -0.2185
13965TIP3    H163386   3.059   1.474  14.063  0.9380  1.4847 -1.2410
13965TIP3    H263387   2.979   1.404  13.956  0.6399 -0.9276  0.4822
13966TIP3   OH263388   0.290   5.461  10.192  0.2789  0.0381  0.1465
13966TIP3    H163389   0.337   5.529  10.143 -0.5197  0.6004  0.1400
13966TIP3    H263390   0.286   5.496  10.281  1.0074 -0.6086  0.4457
13967TIP3   OH263391   0.445   5.279  14.247  0.2595 -0.0469  0.2953
13967TIP3    H163392   0.495   5.244  14.173  1.6109  2.0443  0.1198
13967TIP3    H263393   0.486   5.240  14.324  0.5362 -0.2459  0.0494
13968TIP3   OH263394   4.639   1.465   5.154  0.1909 -0.6116  0.1935
13968TIP3    H163395   4.547   1.490   5.162  0.1557 -1.0276  1.2112
13968TIP3    H263396   4.643   1.376   5.190  0.7220 -1.2226 -1.2772
13969TIP3   OH263397   4.736   6.377   6.543 -0.4094 -0.1554  0.5661
13969TIP3    H163398   4.724   6.282   6.553 -0.3235 -0.2778 -0.4166
13969TIP3    H263399   4.697   6.397   6.458 -2.2520  1.0350  1.6353
13970TIP3   OH263400   2.462   1.123  15.034 -0.3137  0.3815  0.3241
13970TIP3    H163401   2.443   1.144  14.943 -3.4026  2.3576  1.2780
13970TIP3    H263402   2.531   1.185  15.059  1.2606 -0.8139 -0.8191
13971TIP3   OH263403   0.262   4.659   6.195  0.1191  0.1797 -0.5840
13971TIP3    H163404   0.284   4.621   6.110  1.7477 -0.2019 -0.0182
13971TIP3    H263405   0.259   4.754   6.179 -1.7898  0.0189 -1.5142
13972TIP3   OH263406   1.380   5.786   6.559  0.5033 -0.3719 -0.2527
13972TIP3    H163407   1.384   5.866   6.612  0.4753 -0.1213 -0.6275
13972TIP3    H263408   1.469   5.774   6.527  0.2412  0.2160 -1.2332
13973TIP3   OH263409   0.123   4.856  12.599  0.4036 -0.7219 -0.0129
13973TIP3    H163410   0.104   4.873  12.691  0.7068  0.9558 -0.2226
13973TIP3    H263411   0.040   4.872  12.554  1.0160  1.8029 -0.3758
13974TIP3   OH263412   2.681   4.583  15.496 -0.2532 -0.4263  0.1984
13974TIP3    H163413   2.762   4.634  15.487 -0.0891 -0.5295  0.9923
13974TIP3    H263414   2.706   4.494  15.471 -0.3629 -0.2694 -0.4874
13975TIP3   OH263415   0.126   5.242  15.196 -0.0240 -0.1889 -0.5503
13975TIP3    H163416   0.108   5.184  15.122  0.9083 -1.3918  0.1219
13975TIP3    H263417   0.215   5.219  15.223  0.4760  1.7390 -0.4010
13976TIP3   OH263418   1.069   2.664   3.819  0.4632  0.6116 -0.8468
13976TIP3    H163419   1.082   2.628   3.732  0.2471 -3.2945  0.5158
13976TIP3    H263420   0.976   2.686   3.823  0.2817 -0.0653 -1.3127
13977TIP3   OH263421   3.785   2.868   3.510 -0.3458  0.3124 -0.2627
13977TIP3    H163422   3.862   2.822   3.477  0.1490 -0.1063  1.3701
13977TIP3    H263423   3.715   2.803   3.507 -0.8594  0.8969 -2.4128
13978TIP3   OH263424   1.873   5.307  13.321  0.1922 -0.0855  1.1564
13978TIP3    H163425   1.795   5.258  13.294 -0.9451  1.3908  1.6377
13978TIP3    H263426   1.897   5.357  13.243 -2.1920  3.0131  2.1888
13979TIP3   OH263427   6.560   5.106  14.687  1.1047  0.4127 -0.0837
13979TIP3    H163428   6.571   5.195  14.654 -0.9651  0.0708 -1.9118
13979TIP3    H263429   6.507   5.062  14.621  0.1378 -1.5288  1.8487
13980TIP3   OH263430   4.203   6.632  13.368  0.1202  0.0834  0.2671
13980TIP3    H163431   4.121   6.586  13.350 -0.6374  1.2352  0.6958
13980TIP3    H263432   4.269   6.563  13.368 -0.9857 -1.0288  0.9277
13981TIP3   OH263433   1.012   2.663  13.655  0.0447  0.0673 -1.2809
13981TIP3    H163434   1.050   2.700  13.574 -0.9560 -1.2935 -2.4176
13981TIP3    H263435   0.941   2.723  13.676 -0.8607 -0.5387 -2.4824
13982TIP3   OH263436   4.069   4.142  14.060 -0.8448 -0.0374  0.4975
13982TIP3    H163437   4.014   4.211  14.024  1.0344  0.8712 -0.8171
13982TIP3    H263438   4.154   4.183  14.074  0.4809 -2.1270 -0.7495
13983TIP3   OH263439   4.194   1.206  14.556 -0.3306 -0.1406  0.7305
13983TIP3    H163440   4.145   1.124  14.547  1.1871 -1.1829  1.3231
13983TIP3    H263441   4.240   1.196  14.640 -0.4455  1.5307  1.0233
13984TIP3   OH263442   1.027   4.724  11.041 -0.3708  0.2813 -0.8385
13984TIP3    H163443   1.003   4.674  10.962 -2.9826 -1.0419  0.6596
13984TIP3    H263444   0.953   4.712  11.100  0.8294  2.4896  1.2739
13985TIP3   OH263445   1.949   6.417   5.185  0.2826  0.1219 -0.0084
13985TIP3    H163446   1.935   6.509   5.206  3.2823  0.0641  3.1415
13985TIP3    H263447   1.929   6.371   5.267 -1.2808 -2.1418 -1.5324
13986TIP3   OH263448   6.823   3.202   4.440 -0.2996 -0.4385 -0.7938
13986TIP3    H163449   6.744   3.232   4.396 -1.1495 -1.7194 -0.1843
13986TIP3    H263450   6.889   3.199   4.370 -0.0570  2.9198 -0.8770
13987TIP3   OH263451   1.309   2.648  13.615  0.2457  0.0815  0.0350
13987TIP3    H163452   1.216   2.647  13.636  0.4568 -2.6344  1.1959
13987TIP3    H263453   1.328   2.740  13.596 -2.7000  0.6769 -0.5421
13988TIP3   OH263454   5.753   5.944   3.613  0.3729 -0.1013 -0.3849
13988TIP3    H163455   5.661   5.951   3.587  0.0132 -1.4122  0.4387
13988TIP3    H263456   5.765   5.851   3.633  1.2563  0.4078  1.7315
13989TIP3   OH263457   1.539   4.794   1.733 -0.0202  0.4864 -0.3520
13989TIP3    H163458   1.542   4.743   1.652 -0.6214 -1.2018  0.6326
13989TIP3    H263459   1.607   4.755   1.788 -1.5206 -0.3760  1.0006
13990TIP3   OH263460   1.653   6.216  14.818 -0.2206 -0.0411  0.2495
13990TIP3    H163461   1.703   6.223  14.899  0.3784 -0.0868 -0.1029
13990TIP3    H263462   1.569   6.256  14.838 -0.2268 -0.4107  1.0059
13991TIP3   OH263463   2.996   0.703  16.050  0.2603 -0.0774  0.1241
13991TIP3    H163464   3.036   0.732  15.967  0.7849  1.0743  0.7546
13991TIP3    H263465   2.925   0.765  16.065 -0.0433 -0.4825  0.3864
13992TIP3   OH263466   3.781   0.714  15.468  0.1453  0.2155  0.1201
13992TIP3    H163467   3.807   0.804  15.446 -0.2021  0.0171 -1.1704
13992TIP3    H263468   3.821   0.698  15.553  0.8330  1.3404  0.0308
13993TIP3   OH263469   3.903   1.650  11.192  0.5299 -0.3066 -0.1462
13993TIP3    H163470   3.829   1.631  11.251  1.3367  0.5246  1.1788
13993TIP3    H263471   3.965   1.580  11.208  1.1071  0.3604  0.6431
13994TIP3   OH263472   6.165   2.769  14.034 -0.3954 -0.0037  0.1047
13994TIP3    H163473   6.109   2.710  14.084  1.3931 -0.5215  1.5707
13994TIP3    H263474   6.182   2.722  13.952 -2.5621  0.4445 -0.6794
13995TIP3   OH263475   5.915   3.829  11.819 -0.0698  0.2104  0.1257
13995TIP3    H163476   5.975   3.901  11.797  0.9835 -0.4820  0.6104
13995TIP3    H263477   5.964   3.750  11.798 -1.4733 -0.3918 -1.0442
13996TIP3   OH263478   4.282   5.608  13.987 -0.8368  0.0729 -0.1179
13996TIP3    H163479   4.271   5.557  13.906 -0.3600 -0.5433  0.1971
13996TIP3    H263480   4.343   5.556  14.039 -0.2184  1.0578  0.1508
13997TIP3   OH263481   2.984   1.945   1.719 -0.4818 -0.3295 -0.3801
13997TIP3    H163482   2.973   1.952   1.625 -2.0354 -0.3128 -0.2095
13997TIP3    H263483   2.964   2.032   1.753  1.1394 -0.0275 -0.1002
13998TIP3   OH263484   5.412   3.064   6.231 -0.0363 -0.2382 -0.1073
13998TIP3    H163485   5.426   2.979   6.273  0.0591 -0.1181  0.1094
13998TIP3    H263486   5.419   3.127   6.303  0.4068 -0.0064 -0.3505
13999TIP3   OH263487   3.428   0.351  15.924 -0.9926 -0.5353 -0.4532
13999TIP3    H163488   3.421   0.372  15.831  3.8121  2.4902 -0.4600
13999TIP3    H263489   3.368   0.413  15.966 -0.9716  0.1856 -1.4420
14000TIP3   OH263490   3.363   5.608   1.483  0.3137  0.1102  0.0636
14000TIP3    H163491   3.453   5.614   1.450  0.8538 -0.1079  1.4122
14000TIP3    H263492   3.318   5.552   1.420  2.7207 -4.9847  2.2404
14001TIP3   OH263493   3.642   4.339  11.207  0.3648  0.0484 -0.5769
14001TIP3    H163494   3.659   4.370  11.118  0.4949  0.5302 -0.3881
14001TIP3    H263495   3.702   4.389  11.262  0.9151 -0.8916 -0.3104
14002TIP3   OH263496   5.282   3.580   0.436 -0.3454  0.0017 -0.1096
14002TIP3    H163497   5.202   3.632   0.442  0.1304  0.6443  1.0821
14002TIP3    H263498   5.310   3.569   0.527 -0.7454 -2.8901 -0.2234
14003TIP3   OH263499   2.649   0.141  13.985  0.4275  0.2689  0.4831
14003TIP3    H163500   2.602   0.084  14.046  1.0343 -0.0828  0.6362
14003TIP3    H263501   2.739   0.142  14.018  1.5671 -2.3863 -2.0314
14004TIP3   OH263502   5.722   1.330  16.409 -0.2013 -0.5899 -0.4062
14004TIP3    H163503   5.739   1.373  16.325 -0.8158  1.7192  0.5486
14004TIP3    H263504   5.650   1.381  16.447  2.1868  0.6275  2.9275
14005TIP3   OH263505   1.480   1.578   4.618  0.0136 -0.4698 -0.1420
14005TIP3    H163506   1.550   1.556   4.556  0.3514  0.7993 -0.2343
14005TIP3    H263507   1.523   1.635   4.682  0.1485 -3.1208  2.3334
14006TIP3   OH263508   3.004   1.032  13.792 -0.3466 -0.1514 -0.7261
14006TIP3    H163509   3.016   1.086  13.714  1.4777  1.1298  0.3534
14006TIP3    H263510   2.943   1.082  13.847  1.6173  1.1206  0.4300
14007TIP3   OH263511   6.345   6.840   5.135  0.1886  0.1753  0.4233
14007TIP3    H163512   6.307   6.889   5.207 -2.3369 -0.5801 -0.2928
14007TIP3    H263513   6.290   6.762   5.127  1.6867 -0.8184 -0.9863
14008TIP3   OH263514   0.683   2.554   5.904  0.0799  0.0314 -0.0753
14008TIP3    H163515   0.600   2.581   5.864  1.6317  1.0359 -2.9393
14008TIP3    H263516   0.696   2.464   5.873 -0.1142 -0.2676  0.7019
14009TIP3   OH263517   2.139   5.543   1.820  0.0458  0.0966 -0.2046
14009TIP3    H163518   2.097   5.625   1.794  1.3291  0.8757  0.0655
14009TIP3    H263519   2.139   5.545   1.915 -0.0570 -0.2963 -0.1946
14010TIP3   OH263520   0.088   6.380  16.055 -0.1575 -0.0863  0.6357
14010TIP3    H163521   0.078   6.302  16.110  1.8892 -0.7720  0.1167
14010TIP3    H263522   0.025   6.368  15.984 -1.9079  0.1748  2.0764
14011TIP3   OH263523   3.960   1.332   1.416  0.1062  0.3730  0.3239
14011TIP3    H163524   3.993   1.420   1.400  0.6823  0.3152  1.1718
14011TIP3    H263525   3.872   1.345   1.453 -0.1591  0.5604 -0.3511
14012TIP3   OH263526   6.406   6.798   3.070  0.8698  0.6672 -0.1714
14012TIP3    H163527   6.363   6.848   3.001  0.9902  1.1912  0.1202
14012TIP3    H263528   6.457   6.732   3.024  1.4489  1.4079 -0.6249
14013TIP3   OH263529   1.862   1.743   2.942 -0.1103  0.3841 -0.0929
14013TIP3    H163530   1.902   1.746   2.855 -0.5170  0.8184 -0.2662
14013TIP3    H263531   1.830   1.653   2.950 -1.6572  0.7950 -1.1195
14014TIP3   OH263532   2.534   0.255   2.422  0.2965  0.0404  0.1293
14014TIP3    H163533   2.550   0.166   2.451  1.2088  0.3541  0.6356
14014TIP3    H263534   2.555   0.309   2.499  0.1196  0.7116 -0.2860
14015TIP3   OH263535   0.055   5.413   5.935  0.1209 -0.2675 -0.1711
14015TIP3    H163536   0.011   5.482   5.884  0.5689  1.4145  1.6066
14015TIP3    H263537   0.137   5.453   5.964  1.3169 -2.2422 -0.6665
14016TIP3   OH263538   0.914   3.466  14.616  0.2716 -0.6685  0.1460
14016TIP3    H163539   0.980   3.467  14.685 -0.1475  1.0671  0.5876
14016TIP3    H263540   0.951   3.520  14.546  0.5076 -2.0562 -0.8383
14017TIP3   OH263541   4.113   0.148  13.637 -0.2546  0.4613 -0.3412
14017TIP3    H163542   4.189   0.179  13.586 -1.6311  2.2316 -1.4181
14017TIP3    H263543   4.136   0.058  13.661  1.3954  0.2951 -2.2584
14018TIP3   OH263544   1.388   1.249  11.496  0.1490  0.4834 -0.2663
14018TIP3    H163545   1.329   1.301  11.442 -1.0591  0.6049  1.1080
14018TIP3    H263546   1.341   1.237  11.579  1.2672 -1.0305  0.2036
14019TIP3   OH263547   0.497   5.630   1.371 -0.0311  0.1906  0.3206
14019TIP3    H163548   0.469   5.721   1.355 -0.1013  0.0493 -0.4057
14019TIP3    H263549   0.578   5.639   1.421  0.7827  0.7028 -1.0477
14020TIP3   OH263550   6.584   5.497  11.588 -0.1393 -0.2024 -0.1150
14020TIP3    H163551   6.655   5.560  11.603  0.7612 -0.9100 -1.2796
14020TIP3    H263552   6.616   5.415  11.627 -0.8569 -0.2139  0.4650
14021TIP3   OH263553   0.453   0.880   2.867  0.0467  0.0590 -0.5253
14021TIP3    H163554   0.521   0.908   2.805 -0.2149 -0.3838 -1.0181
14021TIP3    H263555   0.389   0.834   2.814  0.8449 -2.1881  0.3370
14022TIP3   OH263556   4.285   5.051  15.424 -0.0282  0.4883  0.3460
14022TIP3    H163557   4.246   5.006  15.499 -0.1982  1.2169  0.7051
14022TIP3    H263558   4.214   5.058  15.361  0.5996 -1.9029 -0.7561
14023TIP3   OH263559   0.771   4.693   2.289 -0.1125 -0.0894  0.2990
14023TIP3    H163560   0.717   4.750   2.235 -0.9076 -1.6901 -0.6646
14023TIP3    H263561   0.860   4.702   2.253 -0.0938  0.9782  0.5726
14024TIP3   OH263562   4.136   0.983  14.208 -0.2507  0.6166 -0.1115
14024TIP3    H163563   4.168   1.072  14.224 -1.9753  1.3043 -0.3019
14024TIP3    H263564   4.147   0.970  14.114  0.2650  0.4999 -0.0412
14025TIP3   OH263565   0.938   5.042  15.013 -0.0077 -0.3843 -0.1191
14025TIP3    H163566   0.937   4.947  15.000  1.1274 -0.3360 -0.6510
14025TIP3    H263567   0.993   5.055  15.090  0.3353 -0.1259 -0.4057
14026TIP3   OH263568   1.502   5.562   4.314  0.3669 -0.5898  0.7692
14026TIP3    H163569   1.501   5.651   4.279 -0.8072 -0.6599  0.5882
14026TIP3    H263570   1.431   5.518   4.269  1.5418 -1.9248  0.1518
14027TIP3   OH263571   6.555   1.636   2.348 -0.1539  0.3816  0.2217
14027TIP3    H163572   6.478   1.689   2.369  0.3660  1.4198 -0.4288
14027TIP3    H263573   6.564   1.577   2.423 -0.2446  1.7995  1.3986
14028TIP3   OH263574   2.827   5.286   2.211 -0.5651 -0.2798  0.2288
14028TIP3    H163575   2.743   5.245   2.192 -0.6309 -0.6664  1.2826
14028TIP3    H263576   2.805   5.365   2.261 -0.2881 -0.5851  0.8398
14029TIP3   OH263577   4.432   0.548  11.296 -0.6025  0.4062 -0.1192
14029TIP3    H163578   4.510   0.533  11.243 -0.3293 -1.8717  0.8073
14029TIP3    H263579   4.403   0.635  11.272  0.8461  0.3679 -2.2667
14030TIP3   OH263580   6.138   3.414   0.698 -0.0713 -0.3387  0.1902
14030TIP3    H163581   6.156   3.334   0.650  3.3594  1.1139 -1.2606
14030TIP3    H263582   6.122   3.480   0.630  0.5804  0.8798  1.1705
14031TIP3   OH263583   1.065   4.698  13.307 -0.0339  0.1961  0.2223
14031TIP3    H163584   0.989   4.736  13.263 -0.4501  0.1077  0.8657
14031TIP3    H263585   1.031   4.623  13.355  0.2355  0.8446  1.4673
14032TIP3   OH263586   3.252   2.011   4.751  0.4805  0.1012 -0.1803
14032TIP3    H163587   3.221   2.054   4.831  0.2139  0.8695 -0.6841
14032TIP3    H263588   3.324   1.955   4.781 -0.6670 -0.8880  0.8353
14033TIP3   OH263589   1.253   4.715   3.630 -0.1050  0.3863  0.0699
14033TIP3    H163590   1.225   4.630   3.665  0.6429  0.0687 -0.0957
14033TIP3    H263591   1.192   4.778   3.669 -0.7568 -0.2395  0.0766
14034TIP3   OH263592   5.014   6.682  11.914  0.2717 -0.0007 -0.3211
14034TIP3    H163593   5.027   6.685  12.009  1.6377  0.1893 -0.4892
14034TIP3    H263594   5.024   6.774  11.887  1.4646 -0.2570 -0.8121
14035TIP3   OH263595   0.156   3.803  15.714 -0.0016 -0.0825 -0.1291
14035TIP3    H163596   0.078   3.846  15.679  0.6607 -0.0466 -1.6428
14035TIP3    H263597   0.223   3.819  15.648  1.1584 -0.5548  0.9039
14036TIP3   OH263598   0.207   6.067   6.090 -0.2665  0.3696 -0.2166
14036TIP3    H163599   0.240   5.997   6.033  1.3506  1.4774 -0.7017
14036TIP3    H263600   0.246   6.048   6.176  0.1130  0.6317 -0.3305
14037TIP3   OH263601   6.219   6.263  17.017  0.6282 -0.5404  0.2761
14037TIP3    H163602   6.191   6.253  17.108  0.5881 -1.1175  0.2031
14037TIP3    H263603   6.196   6.180  16.976  2.3789 -1.0108  0.1898
14038TIP3   OH263604   3.930   2.448  15.283 -0.1497 -0.3606  0.6027
14038TIP3    H163605   3.982   2.521  15.248 -0.2045 -1.5254 -2.2221
14038TIP3    H263606   3.995   2.389  15.320  0.3416 -0.6513 -0.6627
14039TIP3   OH263607   1.096   1.032  13.843  0.1248  0.1452 -0.0284
14039TIP3    H163608   1.036   1.024  13.769 -1.9380 -0.2027  1.5633
14039TIP3    H263609   1.133   0.944  13.853  0.7205  0.2889 -0.8487
14040TIP3   OH263610   4.796   6.399   3.286 -0.6138 -0.5659  0.3576
14040TIP3    H163611   4.854   6.359   3.351 -1.8924 -0.5947  1.5234
14040TIP3    H263612   4.853   6.457   3.236  0.0601  1.1251  2.8836
14041TIP3   OH263613   6.204   2.974  11.467 -0.2891 -0.1692  0.4126
14041TIP3    H163614   6.256   2.946  11.392 -0.2072  0.4191  0.2472
14041TIP3    H263615   6.118   2.994  11.431 -0.1630  0.4069  0.4166
14042TIP3   OH263616   4.147   3.554   0.048 -0.8165  0.2138 -0.5424
14042TIP3    H163617   4.160   3.592  -0.039  1.0348 -0.4660 -0.6008
14042TIP3    H263618   4.120   3.464   0.030  0.0577 -0.0788 -0.4377
14043TIP3   OH263619   1.659   1.666  16.506 -0.4543  0.4496 -0.2147
14043TIP3    H163620   1.678   1.573  16.501 -2.2428  0.0541 -0.3574
14043TIP3    H263621   1.716   1.706  16.439  1.9913 -0.1880  1.3597
14044TIP3   OH263622   2.290   6.717   3.759  0.2242  0.6211  0.1275
14044TIP3    H163623   2.209   6.768   3.759  0.8002  1.5693 -0.3064
14044TIP3    H263624   2.334   6.743   3.678  2.2407  2.2785  1.6413
14045TIP3   OH263625   2.209   4.460   4.352 -0.0072 -0.2225  0.0954
14045TIP3    H163626   2.141   4.527   4.363 -0.2885 -0.5956  0.6624
14045TIP3    H263627   2.291   4.510   4.349 -0.3687  0.3651 -1.9825
14046TIP3   OH263628   4.966   0.897  12.758  0.1144  0.1632  0.4463
14046TIP3    H163629   5.016   0.836  12.812  0.3821 -1.4337 -1.4740
14046TIP3    H263630   5.033   0.945  12.708 -0.1562  0.9223  0.7976
14047TIP3   OH263631   1.556   6.341  16.525 -0.1209 -0.5295 -0.1105
14047TIP3    H163632   1.649   6.363  16.515 -0.1397 -0.0033  0.7835
14047TIP3    H263633   1.512   6.391  16.457  0.0140  1.0127  0.8975
14048TIP3   OH263634   2.183   6.471   2.029 -0.7905  0.1922 -0.2921
14048TIP3    H163635   2.116   6.426   2.081  0.0918  0.9014  1.5219
14048TIP3    H263636   2.252   6.406   2.017 -0.7351  0.2112 -0.0711
14049TIP3   OH263637   6.005   5.759   0.600 -0.3012  0.0588 -0.1368
14049TIP3    H163638   5.943   5.749   0.673  0.5787 -0.9486  0.5055
14049TIP3    H263639   5.970   5.701   0.532 -0.4410  0.0321 -0.0441
14050TIP3   OH263640   3.590   5.431  12.518 -0.1995  1.0284  0.6280
14050TIP3    H163641   3.643   5.360  12.555  0.6573  1.6235  0.5774
14050TIP3    H263642   3.654   5.499  12.496 -1.0171  1.8543  0.7656
14051TIP3   OH263643   5.711   4.191   0.286 -0.2124  0.0072 -0.0948
14051TIP3    H163644   5.619   4.193   0.258 -0.2511 -0.1645  0.0213
14051TIP3    H263645   5.712   4.236   0.370 -0.5566 -1.8895  0.9696
14052TIP3   OH263646   2.493   2.592   1.465 -0.1882  0.1553  0.2833
14052TIP3    H163647   2.404   2.577   1.496 -1.0008  0.1182 -1.9165
14052TIP3    H263648   2.496   2.686   1.446 -0.3280 -0.1197 -1.2179
14053TIP3   OH263649   6.072   6.825  12.462 -0.1695 -0.0310 -0.1020
14053TIP3    H163650   6.094   6.864  12.378  1.0231 -0.2597  0.0895
14053TIP3    H263651   6.133   6.752  12.472  1.7821  1.7408  2.2446
14054TIP3   OH263652   6.132   1.777   1.355 -0.1093  0.1037  0.0412
14054TIP3    H163653   6.053   1.723   1.351  1.1636 -1.8871  0.2079
14054TIP3    H263654   6.103   1.859   1.393 -2.8705  1.0034 -3.4386
14055TIP3   OH263655   3.816   4.871   2.339  0.6796  0.0420  0.5406
14055TIP3    H163656   3.875   4.829   2.277  0.9667 -0.5850  1.2168
14055TIP3    H263657   3.750   4.804   2.358 -0.0241  0.5968  0.1021
14056TIP3   OH263658   1.724   3.975  16.046  0.0801  0.0046 -0.2532
14056TIP3    H163659   1.677   3.899  16.012 -0.3107  0.3971 -0.6006
14056TIP3    H263660   1.715   4.042  15.978  1.4438 -0.0226 -0.4745
14057TIP3   OH263661   1.289   1.586   6.730  0.0307  0.4786 -0.0988
14057TIP3    H163662   1.225   1.546   6.789 -0.9856  2.3298  0.1322
14057TIP3    H263663   1.315   1.667   6.774  0.0098  1.4029 -1.7021
14058TIP3   OH263664   4.517   2.715  14.673 -0.0910 -0.2495 -0.1121
14058TIP3    H163665   4.437   2.720  14.725  0.3433  1.4172  0.4942
14058TIP3    H263666   4.558   2.801  14.684  1.9355 -1.1381 -0.1600
14059TIP3   OH263667   1.970   0.970   4.925  0.0050 -0.0462 -0.0248
14059TIP3    H163668   1.922   0.951   4.844 -0.7785 -0.5928  0.5476
14059TIP3    H263669   2.029   1.041   4.901  0.7078 -1.0435 -1.4001
14060TIP3   OH263670   5.655   6.753  13.668  0.3619  0.2804  0.3439
14060TIP3    H163671   5.608   6.783  13.746  0.8892  0.2087  0.6891
14060TIP3    H263672   5.704   6.830  13.638  2.4469 -0.4080  1.7581
14061TIP3   OH263673   2.372   3.006   0.457 -0.0469 -0.2757 -0.5545
14061TIP3    H163674   2.404   2.935   0.401  1.0690  0.0589 -0.3755
14061TIP3    H263675   2.288   3.030   0.420 -0.0029 -1.0614 -1.1904
14062TIP3   OH263676   2.848   3.104   6.022  0.3560  0.5002 -0.1095
14062TIP3    H163677   2.841   3.041   6.094  0.4816 -0.3303 -0.8120
14062TIP3    H263678   2.765   3.151   6.024  0.8164  1.3262  1.3224
14063TIP3   OH263679   1.311   1.668   5.662 -0.0481 -0.1522 -0.2268
14063TIP3    H163680   1.376   1.639   5.598  0.3271  0.3452 -0.0757
14063TIP3    H263681   1.267   1.587   5.690 -1.2781 -0.2516 -2.2373
14064TIP3   OH263682   1.656   1.081  14.516 -0.3664 -0.2079  0.8194
14064TIP3    H163683   1.733   1.045  14.560  0.6146  1.1693  0.2929
14064TIP3    H263684   1.586   1.018  14.535  0.8862 -1.5282  1.2531
14065TIP3   OH263685   2.859   5.019  15.824 -0.2833  0.0046  0.2839
14065TIP3    H163686   2.852   5.009  15.729 -1.4809  0.0289  0.3577
14065TIP3    H263687   2.888   5.110  15.837 -0.0081 -0.0328 -0.0522
14066TIP3   OH263688   6.496   6.534  11.349  0.0256 -0.2314  0.2657
14066TIP3    H163689   6.424   6.590  11.377  0.6393  0.6090  0.1707
14066TIP3    H263690   6.473   6.507  11.261 -0.8888 -1.1791  0.7682
14067TIP3   OH263691   6.065   3.848  17.120 -0.3525  0.1848  0.0263
14067TIP3    H163692   6.056   3.791  17.044 -0.9394  0.1095  0.1458
14067TIP3    H263693   5.978   3.887  17.131 -0.0174  0.9097  0.0954
14068TIP3   OH263694   3.094   5.361   0.458  0.0037 -0.0939  0.2803
14068TIP3    H163695   3.164   5.426   0.463  0.1451 -0.3010  1.0013
14068TIP3    H263696   3.126   5.286   0.507 -0.0834 -0.7973 -0.6942
14069TIP3   OH263697   5.196   4.502   3.879  0.1263 -0.0518 -0.2636
14069TIP3    H163698   5.172   4.563   3.810 -0.8809 -0.8347 -0.6343
14069TIP3    H263699   5.281   4.533   3.911 -0.4202  1.5852 -0.3528
14070TIP3   OH263700   4.359   2.295   4.339 -0.0474  0.1780  0.2154
14070TIP3    H163701   4.337   2.225   4.277 -0.8419  0.5919  0.0293
14070TIP3    H263702   4.323   2.265   4.422  0.0996  0.1175  0.2594
14071TIP3   OH263703   2.838   1.698  13.313 -0.0496  0.2390  0.3160
14071TIP3    H163704   2.767   1.634  13.315  1.0368 -1.0039  0.5810
14071TIP3    H263705   2.794   1.783  13.302 -1.4809 -0.6045 -0.7514
14072TIP3   OH263706   4.461   1.424   0.644 -0.2124  0.2370 -0.5854
14072TIP3    H163707   4.531   1.406   0.581  3.2911  2.1942  2.3719
14072TIP3    H263708   4.459   1.520   0.650 -1.4466  0.1408  1.1958
14073TIP3   OH263709   2.454   0.809   1.238 -0.2940 -0.0070  0.2917
14073TIP3    H163710   2.403   0.872   1.188  0.9412  0.3059 -0.6124
14073TIP3    H263711   2.476   0.855   1.319 -0.1213  0.4260  0.0040
14074TIP3   OH263712   6.304   4.139  13.218 -0.0371  0.8546 -0.1704
14074TIP3    H163713   6.375   4.110  13.276  1.5782  2.0049 -1.4694
14074TIP3    H263714   6.288   4.230  13.243 -2.2276  0.1784  1.1578
14075TIP3   OH263715   1.522   3.749   3.801  0.5547  0.6717 -0.0091
14075TIP3    H163716   1.521   3.832   3.849 -0.7953  0.2267  0.7961
14075TIP3    H263717   1.469   3.766   3.723  0.3522  0.6021  0.1115
14076TIP3   OH263718   0.150   1.393   2.570  0.0104  0.0506  0.1910
14076TIP3    H163719   0.209   1.453   2.523  0.7993 -0.1883  0.8595
14076TIP3    H263720   0.204   1.318   2.591 -0.7357 -0.5028  0.1885
14077TIP3   OH263721   5.338   4.768   1.673  0.1247  0.3283 -0.2692
14077TIP3    H163722   5.429   4.750   1.650 -0.1715  0.6010 -1.7336
14077TIP3    H263723   5.295   4.682   1.668  0.3865  0.1101  0.9351
14078TIP3   OH263724   3.994   0.218  11.348 -0.1227 -0.1798 -0.1004
14078TIP3    H163725   4.058   0.210  11.418 -0.5080  2.1150  0.5870
14078TIP3    H263726   3.909   0.220  11.392 -0.3537  1.5949 -0.5480
14079TIP3   OH263727   3.254   6.442  14.722 -0.4958 -0.3330  0.7092
14079TIP3    H163728   3.303   6.479  14.796 -2.1358 -1.2479  2.3207
14079TIP3    H263729   3.217   6.518  14.677  0.9915  0.2646  0.4201
14080TIP3   OH263730   2.801   0.154  11.083  0.2654  0.2048 -0.6685
14080TIP3    H163731   2.748   0.090  11.036  0.5001  0.4745 -1.3061
14080TIP3    H263732   2.842   0.103  11.154 -0.0071 -0.2252 -0.8143
14081TIP3   OH263733   0.248   5.985  13.872  0.1885  0.0309  0.0032
14081TIP3    H163734   0.271   6.024  13.957 -2.2084 -0.7527  1.0895
14081TIP3    H263735   0.255   6.058  13.810  0.8023  0.9208  1.0733
14082TIP3   OH263736   3.201   6.361  15.094  0.2093 -0.2350 -0.3890
14082TIP3    H163737   3.250   6.352  15.176  0.3857  2.1931 -0.1754
14082TIP3    H263738   3.211   6.275  15.052  1.1233 -1.1593  1.5506
14083TIP3   OH263739   1.624   5.013   2.571 -0.2023 -0.1231  0.2155
14083TIP3    H163740   1.657   5.049   2.489  0.5357  0.3924  0.7188
14083TIP3    H263741   1.529   5.019   2.564 -0.1364  2.4661  0.4726
14084TIP3   OH263742   5.317   1.576  16.746  0.2223  0.1075 -0.3550
14084TIP3    H163743   5.314   1.536  16.833 -2.0770 -1.3437 -1.0304
14084TIP3    H263744   5.355   1.663  16.761  3.4533 -1.4364  1.4816
14085TIP3   OH263745   0.723   5.116   3.937 -0.2688  0.0938 -0.1746
14085TIP3    H163746   0.699   5.135   4.028 -0.9464 -2.2614  0.1943
14085TIP3    H263747   0.801   5.061   3.944 -0.6496 -0.5616 -0.9863
14086TIP3   OH263748   1.445   5.619   4.814  0.2590  0.3642  0.0694
14086TIP3    H163749   1.456   5.708   4.847 -2.1866  0.5104  0.7200
14086TIP3    H263750   1.485   5.619   4.727 -0.0019  2.1802 -0.0747
14087TIP3   OH263751   3.726   3.053   0.577  0.5548 -0.1514 -0.7231
14087TIP3    H163752   3.761   2.972   0.540 -0.3932 -1.4840  1.1682
14087TIP3    H263753   3.804   3.104   0.600  1.2382 -1.4849  0.0491
14088TIP3   OH263754   3.069   6.265  14.039 -0.6354  0.0412 -0.5744
14088TIP3    H163755   3.020   6.347  14.035  0.8897  1.0548  0.5033
14088TIP3    H263756   3.156   6.287  14.005  0.6719 -0.3844  2.2084
14089TIP3   OH263757   3.220   1.112  13.568  0.4524 -0.0550 -0.1515
14089TIP3    H163758   3.158   1.178  13.599 -0.4289 -1.6103  1.5992
14089TIP3    H263759   3.287   1.107  13.636  0.1963 -1.3378  0.0366
14090TIP3   OH263760   4.725   5.893   3.028  0.2384  0.4066 -0.0075
14090TIP3    H163761   4.808   5.892   2.980  0.1720 -2.5148 -0.2253
14090TIP3    H263762   4.751   5.902   3.119  0.8864 -0.8077 -0.0407
14091TIP3   OH263763   0.988   0.584   1.891  0.2585 -0.2920  0.1451
14091TIP3    H163764   1.029   0.517   1.945  2.8786  1.1072  0.0850
14091TIP3    H263765   0.897   0.587   1.920  0.4540 -2.7207  1.2322
14092TIP3   OH263766   6.808   6.023  11.653 -0.5791  0.3003  0.2741
14092TIP3    H163767   6.871   5.993  11.719 -1.1304  0.3381  0.8340
14092TIP3    H263768   6.778   6.108  11.686 -1.1536  0.1379  0.1865
14093TIP3   OH263769   3.576   3.876   0.313  0.2941 -0.3126 -0.1493
14093TIP3    H163770   3.570   3.971   0.297  1.3737  0.2620  2.4084
14093TIP3    H263771   3.489   3.853   0.347 -0.6974 -0.7611 -2.7482
14094TIP3   OH263772   1.865   0.844   0.752  0.4374  1.1056  0.0778
14094TIP3    H163773   1.776   0.817   0.726 -0.0614  2.2961  0.4802
14094TIP3    H263774   1.893   0.903   0.683  1.3445 -0.0656 -0.5732
14095TIP3   OH263775   1.828   4.121   3.369 -0.1656  0.2973 -0.3142
14095TIP3    H163776   1.898   4.056   3.363  0.8683  1.3883 -0.3887
14095TIP3    H263777   1.759   4.086   3.313  1.1095  0.1634 -1.8987
14096TIP3   OH263778   2.195   2.070   5.690 -0.4214  0.3519 -0.4213
14096TIP3    H163779   2.221   2.136   5.626 -0.4200 -1.1710 -2.0546
14096TIP3    H263780   2.107   2.043   5.663 -0.6535  0.0609  0.5554
14097TIP3   OH263781   1.172   4.217   0.986 -0.3853 -0.6027  0.6250
14097TIP3    H163782   1.220   4.241   0.906 -0.7273 -0.6714  0.4002
14097TIP3    H263783   1.222   4.260   1.056 -1.3050  1.2949  0.1892
14098TIP3   OH263784   2.373   5.631  16.550  0.1999  0.3283  0.1001
14098TIP3    H163785   2.332   5.656  16.633  0.0828 -0.0345  0.1535
14098TIP3    H263786   2.373   5.712  16.498 -0.9974  0.2352 -0.0699
14099TIP3   OH263787   3.839   5.767   2.781 -0.1775 -0.2269  0.2770
14099TIP3    H163788   3.917   5.713   2.771  1.1968  1.7362 -0.1426
14099TIP3    H263789   3.840   5.795   2.872  1.3528  2.1825 -0.3804
14100TIP3   OH263790   6.273   4.371  13.004  0.3585  0.4930  0.2529
14100TIP3    H163791   6.254   4.435  13.073 -2.2773  0.0122  0.0759
14100TIP3    H263792   6.198   4.377  12.944  0.8324 -1.6114 -0.6472
14101TIP3   OH263793   4.088   2.341   2.697 -0.2385 -0.3536 -0.3463
14101TIP3    H163794   4.059   2.429   2.722  1.3579  0.1767 -0.2236
14101TIP3    H263795   4.163   2.323   2.755 -0.4784 -1.7604 -0.4363
14102TIP3   OH263796   4.214   2.732  15.795  0.1883 -0.1308 -0.1248
14102TIP3    H163797   4.175   2.671  15.732 -0.6653  0.7648 -0.4780
14102TIP3    H263798   4.228   2.680  15.874 -0.9936 -0.6593 -0.2543
14103TIP3   OH263799   4.344   2.933  15.058  0.0195 -0.0729  0.3586
14103TIP3    H163800   4.350   3.026  15.035  0.3828 -0.1464  0.1462
14103TIP3    H263801   4.424   2.915  15.106 -0.0881 -0.2602  0.4704
14104TIP3   OH263802   2.115   0.241  15.842 -0.0460  0.2749 -0.0574
14104TIP3    H163803   2.181   0.291  15.889 -0.6458  0.6028  0.4607
14104TIP3    H263804   2.031   0.274  15.876 -0.5138  0.7697 -1.6010
14105TIP3   OH263805   5.071   5.390  16.634 -0.3191  0.1878 -0.5411
14105TIP3    H163806   5.130   5.464  16.649 -1.9529  0.9772  3.3612
14105TIP3    H263807   4.985   5.430  16.620 -0.9104 -0.9221 -0.2545
14106TIP3   OH263808   4.542   4.740   1.270 -0.4863  0.5541 -0.7101
14106TIP3    H163809   4.521   4.654   1.305 -2.4471  1.3702  0.3054
14106TIP3    H263810   4.609   4.774   1.330 -0.3033  0.0743 -0.6376
14107TIP3   OH263811   1.014   6.076   3.595 -0.3868  0.9959 -0.0537
14107TIP3    H163812   0.972   6.078   3.681  1.4124  1.5560  0.8631
14107TIP3    H263813   0.997   6.163   3.559 -2.1165  0.3824 -0.7896
14108TIP3   OH263814   1.797   3.936   4.062  0.3033  0.0453 -0.5118
14108TIP3    H163815   1.724   3.928   4.124  1.1463 -1.2010  0.3799
14108TIP3    H263816   1.771   4.007   4.003  0.1715  2.4608  2.2270
14109TIP3   OH263817   6.019   4.507  14.794  0.7691  0.7572  0.0654
14109TIP3    H163818   5.997   4.475  14.881 -2.5946  1.5155 -0.3531
14109TIP3    H263819   6.050   4.597  14.809 -0.4076  1.1167  0.4983
14110TIP3   OH263820   2.815   6.714  14.986 -0.6802 -0.7508 -0.0733
14110TIP3    H163821   2.874   6.645  15.016 -1.4726 -2.9502 -3.1535
14110TIP3    H263822   2.746   6.717  15.052  0.5896 -1.1725  1.3355
14111TIP3   OH263823   1.969   1.773  13.086  0.1682 -0.0923 -0.0306
14111TIP3    H163824   2.025   1.765  13.163 -1.2977 -1.3890  0.9855
14111TIP3    H263825   1.883   1.796  13.122 -0.7562 -1.5934 -1.1587
14112TIP3   OH263826   1.171   5.288   2.275 -0.0859  0.1357 -0.0055
14112TIP3    H163827   1.210   5.320   2.194 -2.3891 -0.1074 -1.2820
14112TIP3    H263828   1.087   5.333   2.281 -0.0903 -0.0685  2.1187
14113TIP3   OH263829   0.044   1.469  13.569 -0.1211 -0.3528  0.2487
14113TIP3    H163830   0.053   1.401  13.503 -0.1816  0.0511 -0.1753
14113TIP3    H263831   0.106   1.537  13.542 -1.1445  0.4337 -0.1652
14114TIP3   OH263832   0.541   2.493   3.298 -0.1454 -0.1657  0.1274
14114TIP3    H163833   0.632   2.522   3.298 -0.7018  1.8923  2.4289
14114TIP3    H263834   0.515   2.495   3.206  2.1531 -1.0037 -0.6009
14115TIP3   OH263835   0.071   4.137  11.643  0.5406 -0.3354  0.0635
14115TIP3    H163836   0.037   4.138  11.553 -1.6226 -2.8767  0.7094
14115TIP3    H263837   0.017   4.201  11.689  1.0954  0.3695 -0.2452
14116TIP3   OH263838   4.951   1.260   1.763  0.7199 -0.1714 -0.5503
14116TIP3    H163839   4.908   1.240   1.680 -0.6057 -0.3213  0.1345
14116TIP3    H263840   4.936   1.181   1.816  0.2450  0.5018  0.3292
14117TIP3   OH263841   0.180   6.133  16.242  0.3869  0.3633  0.1841
14117TIP3    H163842   0.096   6.169  16.270  0.2956 -0.1443  0.5793
14117TIP3    H263843   0.173   6.039  16.258  0.9636  0.2884  0.0400
14118TIP3   OH263844   0.722   3.382  16.605 -0.0420  0.3601 -0.4780
14118TIP3    H163845   0.763   3.343  16.682  1.7554 -0.2898 -1.6934
14118TIP3    H263846   0.764   3.467  16.595 -0.3521  0.4944 -0.6793
14119TIP3   OH263847   6.174   3.025   2.577 -0.4994 -0.2434  0.4986
14119TIP3    H163848   6.225   3.011   2.657  0.0225  0.2496  0.2645
14119TIP3    H263849   6.088   3.053   2.608 -0.5458 -0.8236  0.9007
14120TIP3   OH263850   2.124   4.242   5.069 -0.0045 -0.1850 -0.2241
14120TIP3    H163851   2.044   4.208   5.111  0.4671  0.0473  0.9065
14120TIP3    H263852   2.107   4.335   5.057  0.3859  0.0242  0.7556
14121TIP3   OH263853   4.231   5.912  12.764  0.8302 -0.1068 -0.2361
14121TIP3    H163854   4.255   5.858  12.688 -0.0139  1.0169 -1.3322
14121TIP3    H263855   4.146   5.877  12.792  0.1428  0.8176 -1.1295
14122TIP3   OH263856   0.132   4.940   2.356 -0.4112  0.1418 -0.4758
14122TIP3    H163857   0.219   4.907   2.382 -1.2261 -1.7641 -0.0006
14122TIP3    H263858   0.110   4.890   2.277 -1.4642 -0.0840 -0.0564
14123TIP3   OH263859   3.799   4.249  14.724  0.1931 -0.2352 -0.5914
14123TIP3    H163860   3.769   4.325  14.674  1.0482 -0.0594 -0.8500
14123TIP3    H263861   3.859   4.203  14.666  1.5803  0.2386  0.4153
14124TIP3   OH263862   1.901   1.505   5.795 -0.1755 -0.4465 -0.3958
14124TIP3    H163863   1.951   1.426   5.818 -1.2729 -1.0790 -0.1095
14124TIP3    H263864   1.968   1.571   5.777  0.7603 -1.1493  0.3725
14125TIP3   OH263865   2.993   3.308   5.514 -0.3785  0.7749 -0.6622
14125TIP3    H163866   3.001   3.306   5.609 -0.9424  2.3861 -0.5528
14125TIP3    H263867   2.899   3.319   5.498 -0.5396 -1.3125 -1.4794
14126TIP3   OH263868   2.718   5.244  15.094 -0.1496 -0.3582  0.1616
14126TIP3    H163869   2.794   5.284  15.052  0.3447 -1.2217  0.2115
14126TIP3    H263870   2.670   5.204  15.022  0.0573 -0.7999  0.2660
14127TIP3   OH263871   6.224   2.852   1.294 -0.2590 -0.6291 -0.0980
14127TIP3    H163872   6.313   2.880   1.318 -0.3485 -2.9006  4.0054
14127TIP3    H263873   6.180   2.932   1.267  2.3852  1.0246  0.0441
14128TIP3   OH263874   4.955   2.982   4.896  0.0333 -0.6369 -0.6081
14128TIP3    H163875   4.973   3.023   4.981 -1.3064 -0.1365 -0.5363
14128TIP3    H263876   4.899   3.045   4.851 -1.4287 -2.0288 -0.8174
14129TIP3   OH263877   6.428   5.862   2.949 -0.5586  0.0044  0.1471
14129TIP3    H163878   6.357   5.846   3.011 -0.4046 -1.8125 -0.1027
14129TIP3    H263879   6.400   5.817   2.869  2.0284 -3.2176  0.8684
14130TIP3   OH263880   3.928   5.821   0.881 -0.1625  0.1909 -0.2287
14130TIP3    H163881   3.911   5.750   0.820 -0.5395 -0.0612  0.1586
14130TIP3    H263882   3.974   5.780   0.954 -1.2893  0.1186  0.4773
14131TIP3   OH263883   0.848   2.626  15.802  0.8207  0.2412  0.2683
14131TIP3    H163884   0.763   2.671  15.801 -0.0215 -1.1452 -2.2458
14131TIP3    H263885   0.836   2.555  15.865 -0.2376 -0.4357 -0.6514
14132TIP3   OH263886   0.801   6.140   2.496  0.1041  0.0011 -0.0002
14132TIP3    H163887   0.710   6.140   2.526  0.2576  1.8463  0.6016
14132TIP3    H263888   0.846   6.082   2.557 -0.3914  0.3314  0.6928
14133TIP3   OH263889   2.746   2.002   2.339 -0.6256 -0.1083  0.0478
14133TIP3    H163890   2.681   2.014   2.270 -0.6187  1.7581  0.3132
14133TIP3    H263891   2.724   2.068   2.405  2.1243  1.3746 -0.3455
14134TIP3   OH263892   1.728   6.191  11.290  0.1565 -0.6738 -0.6824
14134TIP3    H163893   1.689   6.119  11.339  1.5869 -1.4071 -0.5818
14134TIP3    H263894   1.683   6.269  11.322  0.4769 -1.2277  1.2194
14135TIP3   OH263895   6.295   5.848  17.121  0.2420 -0.0601 -0.7251
14135TIP3    H163896   6.266   5.759  17.143  0.8649  0.0191  0.4488
14135TIP3    H263897   6.367   5.865  17.180  0.0637  1.2830 -0.8757
14136TIP3   OH263898   4.619   3.473   6.507  0.3497 -0.6896 -0.1011
14136TIP3    H163899   4.622   3.404   6.574  0.6823  0.1321  0.7432
14136TIP3    H263900   4.539   3.453   6.457 -1.5235  0.2726  2.2859
14137TIP3   OH263901   5.175   2.436   1.117 -0.1115 -0.6131  0.2674
14137TIP3    H163902   5.267   2.414   1.106  0.1709 -0.3345  1.8067
14137TIP3    H263903   5.134   2.354   1.146 -0.5042 -0.9216 -1.1147
14138TIP3   OH263904   4.144   2.165   1.516 -0.0093  0.4854 -0.3052
14138TIP3    H163905   4.051   2.155   1.536 -0.1177 -2.0825 -1.7608
14138TIP3    H263906   4.145   2.229   1.445 -0.4697  1.8059  0.8259
14139TIP3   OH263907   4.801   6.236   5.895 -0.0256 -0.3717  0.4301
14139TIP3    H163908   4.777   6.320   5.935  1.3265  0.7890 -1.0486
14139TIP3    H263909   4.733   6.219   5.831  1.1612  1.1603 -1.3404
14140TIP3   OH263910   4.781   6.210  13.589  0.4113  0.3783  0.6133
14140TIP3    H163911   4.867   6.242  13.563  0.7416 -1.0079 -0.1299
14140TIP3    H263912   4.767   6.132  13.535 -0.5283 -0.4519  1.9885
14141TIP3   OH263913   4.656   3.525   0.042 -0.4806 -0.2298  0.1005
14141TIP3    H163914   4.633   3.535   0.134 -2.4577 -0.5027 -0.3279
14141TIP3    H263915   4.583   3.565  -0.006 -0.5670 -2.0305 -1.3668
14142TIP3   OH263916   3.251   2.798  15.131 -0.4108  0.5971 -0.2729
14142TIP3    H163917   3.220   2.707  15.121 -2.7987  1.2340  0.6920
14142TIP3    H263918   3.241   2.817  15.224  0.1974  1.8332 -0.4381
14143TIP3   OH263919   6.067   6.713   1.210 -0.4099  0.2981 -0.1124
14143TIP3    H163920   6.122   6.721   1.132 -0.6167  2.0863 -0.1030
14143TIP3    H263921   6.024   6.628   1.200  0.0991  0.1826 -1.5822
14144TIP3   OH263922   2.254   4.549  10.241  0.2450 -0.5411 -0.5071
14144TIP3    H163923   2.289   4.497  10.168  1.4439  0.1049 -0.4185
14144TIP3    H263924   2.168   4.578  10.211  1.0864  0.4524 -2.0385
14145TIP3   OH263925   4.361   4.344  15.457 -0.0081 -0.4908  0.6286
14145TIP3    H163926   4.401   4.259  15.473  0.1323 -0.4413  0.5367
14145TIP3    H263927   4.370   4.358  15.363 -0.0471 -0.3815  0.6408
14146TIP3   OH263928   1.631   2.937   2.813  0.4243 -0.4845  0.0215
14146TIP3    H163929   1.611   3.019   2.766  1.4789 -0.3978 -0.3206
14146TIP3    H263930   1.673   2.882   2.747 -1.2372 -1.7529 -0.0451
14147TIP3   OH263931   2.946   2.728   5.170 -0.5829 -0.6509 -0.7975
14147TIP3    H163932   2.855   2.741   5.197 -0.7935 -0.6524 -1.4932
14147TIP3    H263933   2.962   2.796   5.105  0.0172 -0.4514 -0.4529
14148TIP3   OH263934   6.453   1.678  13.020 -0.6586  0.6640  0.4912
14148TIP3    H163935   6.445   1.722  12.936  1.2385 -1.4867 -0.9303
14148TIP3    H263936   6.364   1.677  13.055 -1.9856 -0.4684 -2.6078
14149TIP3   OH263937   6.040   3.354   4.345  0.5194 -0.1731  0.3021
14149TIP3    H163938   6.113   3.388   4.293 -1.5752 -1.7689 -4.2599
14149TIP3    H263939   5.968   3.415   4.326 -0.8222 -1.8980 -0.4110
14150TIP3   OH263940   3.810   4.924  15.674  0.0527  0.5539 -0.4497
14150TIP3    H163941   3.856   4.840  15.671  0.1734  0.6406 -2.0145
14150TIP3    H263942   3.814   4.951  15.766  1.5996 -0.2781 -0.2437
14151TIP3   OH263943   1.698   2.553   1.410  0.7233 -0.1580  0.5051
14151TIP3    H163944   1.636   2.498   1.363  2.2607 -2.1292  0.6472
14151TIP3    H263945   1.730   2.497   1.481 -0.1751  2.0988  2.8732
14152TIP3   OH263946   4.086   3.589   4.683  0.7301  0.4612 -0.1248
14152TIP3    H163947   4.048   3.577   4.770  1.5657 -1.5791  0.0187
14152TIP3    H263948   4.013   3.617   4.628  0.4161  2.9450  1.4149
14153TIP3   OH263949   2.583   2.317  14.814 -0.1163 -0.5315  0.1363
14153TIP3    H163950   2.490   2.295  14.820 -0.4840  1.0528  0.8570
14153TIP3    H263951   2.592   2.397  14.865  1.8359 -1.1549  0.8551
14154TIP3   OH263952   1.330   2.428  12.049  0.1610  0.1052  0.0628
14154TIP3    H163953   1.390   2.371  12.000  0.3059  0.6439 -0.3977
14154TIP3    H263954   1.330   2.510  12.000 -2.1249 -0.3559 -0.8319
14155TIP3   OH263955   0.193   3.985  12.494  0.2451 -0.3056  0.5381
14155TIP3    H163956   0.282   4.006  12.465 -0.0270 -1.0956 -0.9929
14155TIP3    H263957   0.194   4.001  12.588  1.7201  0.6572  0.3897
14156TIP3   OH263958   3.726   1.023  14.866 -0.1878  0.6877  0.3369
14156TIP3    H163959   3.690   1.112  14.867  1.8668  1.6830 -2.3373
14156TIP3    H263960   3.679   0.979  14.795 -0.1004  0.1341  0.6188
14157TIP3   OH263961   0.015   3.382  14.123 -0.0099  0.1083  0.0876
14157TIP3    H163962   0.028   3.352  14.213 -2.6267  0.7560  0.7833
14157TIP3    H263963   0.092   3.434  14.103  0.5065  0.1758  2.0699
14158TIP3   OH263964   5.418   5.436   3.816 -0.4356  0.2264 -0.0867
14158TIP3    H163965   5.466   5.433   3.899 -0.7658  4.4879  0.4946
14158TIP3    H263966   5.438   5.353   3.773  1.9483 -1.0134  3.0563
14159TIP3   OH263967   5.322   5.745  12.773  0.1191  0.1661  0.1446
14159TIP3    H163968   5.380   5.685  12.724 -0.6257 -0.6864  0.2844
14159TIP3    H263969   5.382   5.807  12.814  0.8372  0.2160 -0.9293
14160TIP3   OH263970   1.712   5.909  14.298 -0.0500  0.1603  0.1065
14160TIP3    H163971   1.765   5.955  14.233 -1.0061  0.0418 -0.7674
14160TIP3    H263972   1.688   5.977  14.361  0.2392  0.4346 -0.0739
14161TIP3   OH263973   0.435   5.421  11.959  0.1859 -0.0477 -0.3842
14161TIP3    H163974   0.405   5.457  11.876  0.7231 -2.2465 -1.6059
14161TIP3    H263975   0.377   5.461  12.025  0.1434  2.2179 -1.6825
14162TIP3   OH263976   3.311   5.948  13.930 -0.4143  0.0499 -0.5228
14162TIP3    H163977   3.370   5.980  13.862 -0.0781 -1.1439 -0.8021
14162TIP3    H263978   3.354   5.973  14.012 -1.0415  1.8996 -0.7012
14163TIP3   OH263979   6.036   1.294   5.468  0.7776 -0.2917  0.4011
14163TIP3    H163980   6.023   1.231   5.396 -1.4799  2.1078 -1.5148
14163TIP3    H263981   6.126   1.325   5.456  1.2938 -1.7628  0.2412
14164TIP3   OH263982   0.774   2.690  14.914 -0.7338  0.1517  0.3230
14164TIP3    H163983   0.788   2.628  14.985  0.0507 -0.1521 -0.0810
14164TIP3    H263984   0.807   2.774  14.947  1.1069 -0.3106 -0.1991
14165TIP3   OH263985   3.286   3.871   4.418  0.0386  0.5468 -0.7827
14165TIP3    H163986   3.202   3.825   4.420 -0.3181  1.1775  1.6310
14165TIP3    H263987   3.347   3.808   4.379 -1.4450 -0.0415 -2.2682
14166TIP3   OH263988   4.251   2.744   3.563  0.2206  0.3863  0.4461
14166TIP3    H163989   4.321   2.711   3.507  0.3447  0.9767  0.2466
14166TIP3    H263990   4.173   2.744   3.507 -0.6861 -3.0321  1.4410
14167TIP3   OH263991   1.220   0.155  14.064  0.6014 -0.2418 -0.0463
14167TIP3    H163992   1.289   0.152  13.998 -1.1297  0.5208 -2.0112
14167TIP3    H263993   1.209   0.248  14.083  1.0633 -0.4507  1.3565
14168TIP3   OH263994   5.923   1.667   5.076 -0.1097 -0.1497 -0.5621
14168TIP3    H163995   5.880   1.615   5.144  1.5214 -1.3141 -0.3499
14168TIP3    H263996   5.949   1.748   5.121  0.0227 -0.4642 -0.0611
14169TIP3   OH263997   1.884   1.816   5.230  0.3609 -0.6916 -0.6811
14169TIP3    H163998   1.954   1.853   5.177  0.5318  0.1519  0.1103
14169TIP3    H263999   1.916   1.824   5.320 -0.1118 -1.6847 -0.4076
14170TIP3   OH264000   2.164   1.428   1.778 -0.0932  0.1053  0.5569
14170TIP3    H164001   2.218   1.367   1.829  1.5689  0.3998 -0.7537
14170TIP3    H264002   2.127   1.375   1.708  1.7955  0.6234 -0.9102
14171TIP3   OH264003   3.526   3.573  11.945 -0.5680  0.1307  0.2603
14171TIP3    H164004   3.555   3.577  11.854 -1.7994 -0.5865 -0.1888
14171TIP3    H264005   3.595   3.524  11.990  0.1985  0.7620 -0.2166
14172TIP3   OH264006   1.991   2.992   3.886 -0.4490 -0.6372  0.1001
14172TIP3    H164007   1.965   2.954   3.970  0.0078  0.5787  0.8167
14172TIP3    H264008   2.059   2.934   3.853 -1.8143 -2.0813 -0.2710
14173TIP3   OH264009   4.323   2.113  16.401 -0.2298 -0.0951  0.5874
14173TIP3    H164010   4.285   2.197  16.374 -0.1488 -0.4027 -0.5294
14173TIP3    H264011   4.417   2.129  16.407 -0.3674  0.3338  2.1118
14174TIP3   OH264012   5.280   3.599   4.504 -0.7065 -0.5400 -0.0588
14174TIP3    H164013   5.281   3.674   4.444 -1.5534 -0.8823 -0.5192
14174TIP3    H264014   5.259   3.637   4.589  0.9478  0.0122  0.1344
14175TIP3   OH264015   1.845   0.361  11.901  0.0978 -0.2895 -0.5577
14175TIP3    H164016   1.925   0.410  11.922 -0.9475 -0.0824  3.9632
14175TIP3    H264017   1.870   0.269  11.911  0.1159 -0.2908 -0.6145
14176TIP3   OH264018   5.095   1.843   2.153 -0.1903  0.7784  0.4149
14176TIP3    H164019   5.087   1.776   2.085 -1.3193  1.6804 -0.3721
14176TIP3    H264020   5.150   1.910   2.114 -1.9742  1.9588 -0.2120
14177TIP3   OH264021   4.971   1.506  15.988  0.3190 -0.6134  0.1049
14177TIP3    H164022   5.055   1.533  15.949  0.5153  0.0203  0.9310
14177TIP3    H264023   4.994   1.438  16.050  0.3628  0.2249  1.0324
14178TIP3   OH264024   4.573   6.614  11.182 -0.2350  0.4153 -0.1590
14178TIP3    H164025   4.627   6.690  11.202 -0.4225  0.3443  0.6814
14178TIP3    H264026   4.631   6.555  11.134  0.0799  0.8435 -0.3031
14179TIP3   OH264027   1.354   0.301   0.773 -0.4771  0.0265  0.0136
14179TIP3    H164028   1.375   0.244   0.846 -0.8188 -0.9510 -0.6345
14179TIP3    H264029   1.350   0.243   0.697  0.4502  1.1061 -0.8910
14180TIP3   OH264030   4.920   1.602  10.955  0.0471  0.0436 -0.3457
14180TIP3    H164031   4.965   1.522  10.981 -0.3217 -0.7486 -1.9731
14180TIP3    H264032   4.987   1.654  10.910  0.2128  0.5180  0.4416
14181TIP3   OH264033   4.942   4.677   3.531 -0.1430  0.1375 -0.4234
14181TIP3    H164034   4.873   4.673   3.598 -0.0888  2.6920 -0.1065
14181TIP3    H264035   4.896   4.668   3.448 -0.5283 -0.5565 -0.1436
14182TIP3   OH264036   5.683   2.044  15.615  0.5909  0.4128  0.0848
14182TIP3    H164037   5.724   2.064  15.531  0.1491 -0.1799 -0.2792
14182TIP3    H264038   5.739   2.088  15.680 -0.0487  2.3555 -0.6171
14183TIP3   OH264039   1.702   1.804   1.781 -0.1726  0.2462  0.2901
14183TIP3    H164040   1.771   1.746   1.748 -0.2615  1.2693 -1.8599
14183TIP3    H264041   1.708   1.796   1.876  1.6906 -1.0918  0.1244
14184TIP3   OH264042   4.812   6.812   1.086  0.0307 -0.1443  0.7544
14184TIP3    H164043   4.736   6.773   1.042  0.5974 -1.8996  1.2526
14184TIP3    H264044   4.786   6.817   1.178  0.3085 -0.2205  0.8366
14185TIP3   OH264045   2.630   5.448   4.281  0.1505 -0.1826 -0.6533
14185TIP3    H164046   2.572   5.499   4.338  0.6861  2.2045 -2.1346
14185TIP3    H264047   2.714   5.448   4.326  1.1453  3.4777 -2.2124
14186TIP3   OH264048   4.787   6.750  13.853 -0.3703 -0.0016  0.2842
14186TIP3    H164049   4.713   6.795  13.811  0.5659  0.8236 -0.5453
14186TIP3    H264050   4.755   6.729  13.941 -1.3247  1.0474  0.2189
14187TIP3   OH264051   6.285   1.033   4.115 -0.6012 -0.4009 -0.5597
14187TIP3    H164052   6.293   1.034   4.211 -1.0097  0.9142 -0.5079
14187TIP3    H264053   6.195   1.060   4.099 -0.5430 -0.6433 -1.3225
14188TIP3   OH264054   2.701   3.269   2.674 -0.0659  0.0628  0.2755
14188TIP3    H164055   2.612   3.272   2.638  0.1247 -0.1385 -0.2318
14188TIP3    H264056   2.696   3.318   2.755 -1.0881 -1.5102  1.2230
14189TIP3   OH264057   4.730   1.273   5.626  0.2912  0.2064  0.2557
14189TIP3    H164058   4.819   1.295   5.596 -0.0897  1.5344  0.0206
14189TIP3    H264059   4.674   1.334   5.578 -1.1158 -2.5718 -1.9646
14190TIP3   OH264060   3.088   1.755   6.003 -0.1770  0.6661 -0.2753
14190TIP3    H164061   3.009   1.774   6.053 -1.3523  0.2673 -1.8935
14190TIP3    H264062   3.155   1.740   6.069 -1.6388  0.2069  1.1680
14191TIP3   OH264063   2.318   0.924  17.189  0.7369  0.2048  0.0794
14191TIP3    H164064   2.330   1.019  17.191 -0.1883  0.3531 -0.6703
14191TIP3    H264065   2.223   0.912  17.195  0.8443 -0.6737  0.1488
14192TIP3   OH264066   2.895   1.144  15.262 -0.4031  0.0680 -0.5045
14192TIP3    H164067   2.911   1.208  15.192 -0.1163  0.2491 -0.2748
14192TIP3    H264068   2.942   1.066  15.234  0.1428  0.3103 -0.2614
14193TIP3   OH264069   5.385   1.372   1.571 -0.0609  0.0588 -0.4882
14193TIP3    H164070   5.454   1.407   1.514  2.1131 -0.4674  1.6575
14193TIP3    H264071   5.366   1.286   1.536 -0.2769  0.5487 -1.6154
14194TIP3   OH264072   5.659   4.101   0.705 -0.4738  0.0786  0.0166
14194TIP3    H164073   5.651   4.131   0.796  1.2852  1.8045 -0.3319
14194TIP3    H264074   5.577   4.129   0.664 -1.2388 -0.6242  1.0186
14195TIP3   OH264075   1.601   2.702  13.049 -0.0049 -0.9883 -0.0026
14195TIP3    H164076   1.545   2.761  13.100 -0.0689  0.2410 -1.4545
14195TIP3    H264077   1.577   2.615  13.081 -1.4300 -0.3758  0.7239
14196TIP3   OH264078   0.647   2.284  12.330  0.7232  0.6786  0.0188
14196TIP3    H164079   0.696   2.202  12.333  0.2182  0.2109 -2.2317
14196TIP3    H264080   0.707   2.346  12.288  0.2901  0.7897 -0.4528
14197TIP3   OH264081   4.075   0.564  13.963  0.0287 -0.0969 -0.4282
14197TIP3    H164082   4.114   0.523  13.885  0.5939 -0.0282 -0.1879
14197TIP3    H264083   4.078   0.497  14.030  0.4523  0.1531 -0.1901
14198TIP3   OH264084   6.658   3.840   3.891  0.1950 -0.5060 -0.1177
14198TIP3    H164085   6.747   3.818   3.865  0.2016  0.7323 -1.2194
14198TIP3    H264086   6.605   3.820   3.814  0.0748  2.2451 -0.8616
14199TIP3   OH264087   2.317   6.683  14.361 -0.0609 -0.3445 -0.5248
14199TIP3    H164088   2.266   6.689  14.442 -0.9131 -1.4482 -0.9543
14199TIP3    H264089   2.396   6.635  14.387  0.3517  0.5584 -0.0566
14200TIP3   OH264090   0.976   4.175   0.372 -0.1397 -0.1833  0.4962
14200TIP3    H164091   0.976   4.114   0.298  1.7381 -0.6445  0.8178
14200TIP3    H264092   1.068   4.199   0.383 -0.6879  1.8752  1.0857
14201TIP3   OH264093   6.500   2.391   1.087  0.5460  0.3617 -0.3308
14201TIP3    H164094   6.556   2.322   1.052  0.1206 -0.4100  0.4915
14201TIP3    H264095   6.454   2.425   1.010 -0.7477 -1.6551 -0.5153
14202TIP3   OH264096   2.545   1.826   3.190  0.5897 -0.3521  0.0456
14202TIP3    H164097   2.542   1.809   3.284  1.3103  3.1165  0.8219
14202TIP3    H264098   2.616   1.771   3.158  0.7390 -1.1307  1.6064
14203TIP3   OH264099   1.478   3.517  14.104 -0.0446 -0.2088  0.5826
14203TIP3    H164100   1.408   3.569  14.065 -1.7542 -1.9207  1.2148
14203TIP3    H264101   1.433   3.445  14.148  2.2373 -2.7709 -1.0011
14204TIP3   OH264102   0.622   0.864   4.465  0.2365  0.1353 -0.3843
14204TIP3    H164103   0.572   0.900   4.537 -1.8131  1.0283 -2.1449
14204TIP3    H264104   0.615   0.769   4.475 -0.9024  0.2552  0.0287
14205TIP3   OH264105   6.751   0.077   0.675 -0.2767 -0.0232 -0.6060
14205TIP3    H164106   6.660   0.105   0.683  0.3220  1.8346  0.2641
14205TIP3    H264107   6.747  -0.019   0.675 -2.0482 -0.0873  2.4624
14206TIP3   OH264108   0.935   6.229  14.651  0.6503  0.1666  0.2582
14206TIP3    H164109   1.014   6.260  14.696 -0.3290  0.4746  1.8398
14206TIP3    H264110   0.879   6.196  14.721  0.0518 -1.6333 -1.0126
14207TIP3   OH264111   6.426   0.980   3.683  1.0873  0.0641  0.1857
14207TIP3    H164112   6.351   0.942   3.639  0.6828 -0.6966  1.4651
14207TIP3    H264113   6.491   0.909   3.685  1.7305  0.6140 -0.6296
14208TIP3   OH264114   4.147   0.717   2.213  0.0111 -0.6385 -0.0725
14208TIP3    H164115   4.142   0.654   2.141 -1.9888 -0.8234  0.1806
14208TIP3    H264116   4.056   0.727   2.243  0.5435  0.8878  1.1708
14209TIP3   OH264117   5.467   4.652   2.049  0.6239 -0.4409  0.0301
14209TIP3    H164118   5.393   4.601   2.082  0.3909 -0.2722 -0.2320
14209TIP3    H264119   5.515   4.592   1.992  0.9824 -0.7105  0.6068
14210TIP3   OH264120   0.577   2.905  10.890 -0.3830  0.0881  0.2562
14210TIP3    H164121   0.585   2.951  10.974 -0.7581  1.6881 -0.5375
14210TIP3    H264122   0.482   2.897  10.876 -0.3241 -1.1727  0.4868
14211TIP3   OH264123   6.609   4.572   4.307  0.5001 -0.6302 -0.0504
14211TIP3    H164124   6.527   4.544   4.347  1.2606 -0.5192  1.6654
14211TIP3    H264125   6.647   4.492   4.271  0.9829 -1.2183  1.6965
14212TIP3   OH264126   6.436   0.956   2.378 -0.4079 -0.2506 -0.0906
14212TIP3    H164127   6.476   0.882   2.422 -0.1925 -0.5569 -0.7868
14212TIP3    H264128   6.348   0.963   2.417 -0.3768 -0.7804  0.0793
14213TIP3   OH264129   2.831   0.634   0.256  0.3592  0.1145  0.0907
14213TIP3    H164130   2.828   0.721   0.296 -1.2081  0.7448 -1.2881
14213TIP3    H264131   2.851   0.575   0.328  2.0285  1.6461  0.9638
14214TIP3   OH264132   0.743   1.364  16.823  0.2118  0.1195 -0.5860
14214TIP3    H164133   0.804   1.326  16.760 -1.0238 -1.2412 -1.0081
14214TIP3    H264134   0.738   1.299  16.894  1.0130  1.2876  0.6081
14215TIP3   OH264135   0.340   1.819   2.588 -0.0886 -0.0281 -0.1396
14215TIP3    H164136   0.261   1.784   2.631 -1.9403  0.1869 -3.0815
14215TIP3    H264137   0.319   1.911   2.571  0.8786  0.0695 -0.8532
14216TIP3   OH264138   4.043   3.328  17.162  0.1658  0.2630  0.1079
14216TIP3    H164139   3.953   3.306  17.184 -0.9078  1.5428 -2.5609
14216TIP3    H264140   4.081   3.246  17.129 -0.6992  0.1842 -0.7110
14217TIP3   OH264141   3.606   3.105   5.888 -0.3437  0.6996 -0.3746
14217TIP3    H164142   3.526   3.118   5.940 -0.5427  1.5165 -0.8532
14217TIP3    H264143   3.677   3.111   5.951 -0.6894 -3.5561  0.7244
14218TIP3   OH264144   0.251   3.948  14.996 -0.3161 -0.0675  0.9112
14218TIP3    H164145   0.291   3.985  14.917 -1.9931 -0.5012 -0.2030
14218TIP3    H264146   0.171   3.906  14.964  0.9336 -3.8519  2.2428
14219TIP3   OH264147   5.182   2.638   5.536  0.6812  0.0805 -0.6221
14219TIP3    H164148   5.098   2.597   5.516 -0.4056  0.4787  2.5099
14219TIP3    H264149   5.234   2.628   5.456 -1.7286 -1.6829 -2.0952
14220TIP3   OH264150   4.037   2.047  15.009 -0.1116  0.0225 -0.2327
14220TIP3    H164151   4.131   2.033  15.020 -0.2844 -0.0429  1.4236
14220TIP3    H264152   4.018   2.016  14.920  1.5036  0.5066 -0.7671
14221TIP3   OH264153   6.273   4.450   3.705  0.7551 -0.6419 -0.4046
14221TIP3    H164154   6.307   4.361   3.694  0.4812 -0.6761 -0.9911
14221TIP3    H264155   6.261   4.483   3.616 -0.9953 -0.7297 -0.2358
14222TIP3   OH264156   1.982   1.519  13.504 -0.0919 -0.4465  0.1826
14222TIP3    H164157   2.031   1.588  13.458 -0.2478 -1.4004 -1.4982
14222TIP3    H264158   2.021   1.515  13.591  0.8312  0.8166 -0.1450
14223TIP3   OH264159   2.663   4.305   2.021 -0.5268 -0.0640  0.2440
14223TIP3    H164160   2.623   4.370   2.078 -0.4350  0.1096  0.1119
14223TIP3    H264161   2.686   4.233   2.080 -0.9251 -0.1153  0.3374
14224TIP3   OH264162   0.060   3.297  10.881  0.1445 -0.3326 -0.6909
14224TIP3    H164163   0.105   3.257  10.956 -1.5520  1.7132  1.5860
14224TIP3    H264164   0.014   3.225  10.839 -1.6097 -1.1722  2.3412
14225TIP3   OH264165   5.113   5.449  10.880 -0.2427  0.2234  0.5799
14225TIP3    H164166   5.021   5.474  10.890  0.1698  1.2343  2.1952
14225TIP3    H264167   5.130   5.391  10.954  0.5897  0.5737  0.6750
14226TIP3   OH264168   6.560   6.633  13.291 -0.3918  0.5115 -0.2429
14226TIP3    H164169   6.471   6.656  13.320 -0.3375  0.3049  0.0936
14226TIP3    H264170   6.602   6.717  13.274  0.3893  0.8158  2.6848
14227TIP3   OH264171   3.269   0.276   3.607 -0.0349  0.0740  0.2415
14227TIP3    H164172   3.248   0.197   3.556 -0.1661 -1.3121  2.3423
14227TIP3    H264173   3.190   0.330   3.599  0.1547  0.1532 -1.4407
14228TIP3   OH264174   2.549   0.264   1.644  0.2826 -0.2074 -0.1994
14228TIP3    H164175   2.596   0.298   1.568 -0.6186  2.5750  0.3707
14228TIP3    H264176   2.460   0.250   1.613 -0.1918  1.3293  0.3688
14229TIP3   OH264177   3.609   4.883   3.093  0.6937 -0.0988  0.6859
14229TIP3    H164178   3.601   4.912   3.002  0.6819  2.0737  1.3214
14229TIP3    H264179   3.520   4.862   3.120  0.9184 -2.6216 -0.3200
14230TIP3   OH264180   4.642   3.685   2.146 -0.5272 -0.2339 -0.4671
14230TIP3    H164181   4.728   3.712   2.114 -0.2791  0.8513  1.0034
14230TIP3    H264182   4.585   3.691   2.070  0.6242 -0.6931 -1.3997
14231TIP3   OH264183   2.057   5.504  13.909 -0.2104 -0.0838  0.5242
14231TIP3    H164184   2.055   5.535  13.999  1.1171  1.1366  0.1688
14231TIP3    H264185   2.135   5.546  13.871 -0.7676 -0.5332 -1.1910
14232TIP3   OH264186   5.789   6.330   4.788  0.0038 -0.2167 -0.8279
14232TIP3    H164187   5.783   6.289   4.874  0.7911 -1.3926 -1.3126
14232TIP3    H264188   5.879   6.316   4.760  0.7493  3.0333 -0.4938
14233TIP3   OH264189   5.178   0.412   1.725  0.1500  0.1514  0.6982
14233TIP3    H164190   5.209   0.419   1.815  0.7539  2.4864  0.3689
14233TIP3    H264191   5.093   0.455   1.725 -0.2635 -0.6459  0.3186
14234TIP3   OH264192   2.171   2.621   5.783 -0.6590  0.0862 -0.7129
14234TIP3    H164193   2.103   2.562   5.750  1.1164 -0.9161 -2.9034
14234TIP3    H264194   2.209   2.574   5.857 -0.9413 -0.3555 -0.8446
14235TIP3   OH264195   0.951   3.433   4.337 -0.5520  0.4411 -0.0369
14235TIP3    H164196   0.898   3.477   4.271 -3.1601 -0.8379  1.0412
14235TIP3    H264197   0.893   3.427   4.413  0.7476 -2.1072  0.8551
14236TIP3   OH264198   4.191   3.489   3.350  0.0485  0.3609  0.1149
14236TIP3    H164199   4.202   3.401   3.314  0.1782 -0.3231  1.7617
14236TIP3    H264200   4.236   3.487   3.434 -0.8695  1.6840  0.6736
14237TIP3   OH264201   1.353   6.093   3.656 -0.4031 -0.6214  0.0013
14237TIP3    H164202   1.298   6.049   3.591 -0.0240 -2.1945  0.7069
14237TIP3    H264203   1.294   6.154   3.700 -1.2641 -1.2992 -0.1850
14238TIP3   OH264204   2.410   2.059   3.044  0.0370  0.0510 -0.5065
14238TIP3    H164205   2.457   1.983   3.078 -1.1249 -0.4121  0.1528
14238TIP3    H264206   2.363   2.026   2.968 -2.2003 -0.5134  1.0211
14239TIP3   OH264207   2.689   4.596  10.805 -0.1176 -0.5695 -0.2936
14239TIP3    H164208   2.760   4.611  10.743 -1.7315  0.7017 -1.9159
14239TIP3    H264209   2.647   4.516  10.775  0.2046 -0.9664  0.2867
14240TIP3   OH264210   3.898   4.673  14.290 -0.2901 -0.3570 -0.0481
14240TIP3    H164211   3.947   4.715  14.219  1.3616 -2.9196 -0.5650
14240TIP3    H264212   3.833   4.618  14.245  1.6362 -3.0431  0.2217
14241TIP3   OH264213   5.432   1.591  14.163 -0.0562 -0.2784  0.3150
14241TIP3    H164214   5.459   1.622  14.077 -0.0651 -2.2128 -0.4446
14241TIP3    H264215   5.353   1.641  14.182  0.0608  0.3334 -0.7138
14242TIP3   OH264216   0.986   3.885   4.736  0.5704  0.3189  0.5793
14242TIP3    H164217   0.923   3.892   4.808 -0.4924  1.0982 -0.3983
14242TIP3    H264218   0.946   3.822   4.675  0.1498  1.6618 -0.5900
14243TIP3   OH264219   3.012   4.101   2.735  0.2696 -0.5190  0.0584
14243TIP3    H164220   2.917   4.093   2.742 -0.3303  3.2231 -1.3016
14243TIP3    H264221   3.034   4.053   2.655 -0.6247 -0.7239 -0.0794
14244TIP3   OH264222   1.033   4.637  13.003 -0.6719 -0.0394 -0.1679
14244TIP3    H164223   1.109   4.579  13.014 -0.6768 -0.2613 -1.1826
14244TIP3    H264224   0.978   4.619  13.079  0.4583  0.3983  0.7862
14245TIP3   OH264225   6.541   4.304   1.308  0.6729  0.5149 -0.1669
14245TIP3    H164226   6.613   4.316   1.246 -0.4757 -0.0356 -1.6857
14245TIP3    H264227   6.506   4.393   1.321  0.1817  0.4972 -1.2751
14246TIP3   OH264228   2.257   2.618   4.702  0.3163  0.3663  0.2331
14246TIP3    H164229   2.185   2.610   4.764  1.3227 -0.6619  1.3053
14246TIP3    H264230   2.232   2.691   4.645 -1.2393  0.4624  1.0111
14247TIP3   OH264231   5.447   5.265  16.620  0.5578  0.1370  0.3262
14247TIP3    H164232   5.421   5.339  16.566 -0.3289 -1.1553 -1.0987
14247TIP3    H264233   5.428   5.188  16.567  2.9000 -1.0996  1.1271
14248TIP3   OH264234   4.558   3.298  14.628 -0.0861 -0.0866 -0.3127
14248TIP3    H164235   4.469   3.283  14.597 -0.7035  0.5222  1.1027
14248TIP3    H264236   4.578   3.223  14.684 -0.3563  0.6048  0.7281
14249TIP3   OH264237   0.595   3.234  11.351  0.1670 -0.0943 -0.2914
14249TIP3    H164238   0.585   3.164  11.416  0.2632 -0.0932 -0.2743
14249TIP3    H264239   0.689   3.233  11.330  0.3311  0.5797  0.3391
14250TIP3   OH264240   5.360   3.377   2.501  0.0594 -0.5730 -0.0683
14250TIP3    H164241   5.400   3.296   2.534  0.7202 -0.3400 -0.2784
14250TIP3    H264242   5.279   3.348   2.459 -0.4995 -0.9464  1.2069
14251TIP3   OH264243   4.819   5.034  15.505 -0.2502  0.4229 -0.1856
14251TIP3    H164244   4.870   4.957  15.479 -0.3663  0.1101  0.4829
14251TIP3    H264245   4.818   5.089  15.427 -0.6508 -0.5062 -0.8592
14252TIP3   OH264246   3.893   6.690  13.608  0.6929  0.1468 -0.0910
14252TIP3    H164247   3.936   6.768  13.572 -0.7601  0.4881 -1.1847
14252TIP3    H264248   3.801   6.701  13.584 -0.2152 -0.1291  2.9005
14253TIP3   OH264249   4.939   5.649   3.723  0.0520  0.4248 -0.1068
14253TIP3    H164250   4.976   5.689   3.644  0.3955  1.5401  0.5933
14253TIP3    H264251   4.913   5.724   3.777 -2.1843 -0.2975 -0.0782
14254TIP3   OH264252   1.128   6.161  13.452 -0.3008  0.2981 -0.2501
14254TIP3    H164253   1.192   6.089  13.448  1.1440  1.4980  0.3589
14254TIP3    H264254   1.058   6.127  13.508  0.3224 -0.6489 -0.0145
14255TIP3   OH264255   5.654   2.412   3.526  0.3727 -0.3607 -0.1600
14255TIP3    H164256   5.588   2.356   3.568  0.2900  0.1504  0.4097
14255TIP3    H264257   5.731   2.356   3.517  0.2792 -0.5811  0.3642
14256TIP3   OH264258   4.536   1.170   3.793 -0.1388  0.1740 -0.0127
14256TIP3    H164259   4.553   1.086   3.751 -0.0530 -0.2131  0.7619
14256TIP3    H264260   4.481   1.148   3.868  0.0621  0.7799  0.3181
14257TIP3   OH264261   2.937   2.432  16.755 -0.4947  0.3525 -0.3794
14257TIP3    H164262   3.025   2.441  16.793  0.7654 -2.4200 -2.2840
14257TIP3    H264263   2.950   2.377  16.678 -4.1554 -1.7186  0.2257
14258TIP3   OH264264   2.274   3.549  16.538 -0.1003  0.3023 -0.0585
14258TIP3    H164265   2.216   3.622  16.560 -1.1469 -0.2787 -0.8432
14258TIP3    H264266   2.356   3.592  16.511 -0.6254  1.1838 -0.3122
14259TIP3   OH264267   4.307   2.560   3.937  0.6590 -0.2164 -0.8757
14259TIP3    H164268   4.397   2.593   3.942  0.0624  1.6257 -1.6700
14259TIP3    H264269   4.253   2.638   3.927 -1.2164 -1.1364  1.2646
14260TIP3   OH264270   5.616   6.699   1.031  0.1729 -0.3946  0.5493
14260TIP3    H164271   5.565   6.717   1.111 -1.7165 -2.4284 -0.0706
14260TIP3    H264272   5.574   6.752   0.964 -1.7824 -2.5958 -0.1144
14261TIP3   OH264273   3.919   0.185   1.299  0.1093 -0.0180  0.0111
14261TIP3    H164274   3.937   0.200   1.392  0.1060  0.4838 -0.0665
14261TIP3    H264275   3.844   0.240   1.280 -1.0737 -1.5196  0.1489
14262TIP3   OH264276   1.653   4.879  16.272 -0.0335  0.0511 -0.3430
14262TIP3    H164277   1.618   4.802  16.227 -1.4400 -0.1276  0.9813
14262TIP3    H264278   1.581   4.941  16.272  0.0741  0.2205  1.2073
14263TIP3   OH264279   2.373   5.380   2.406 -0.5853  0.3285  0.5882
14263TIP3    H164280   2.365   5.286   2.419 -3.4586  0.1237 -1.7420
14263TIP3    H264281   2.327   5.418   2.481 -3.9826 -0.3769 -0.9871
14264TIP3   OH264282   4.976   6.566  13.018 -0.1508 -0.0238 -0.1472
14264TIP3    H164283   5.025   6.532  13.093 -0.6462  0.2981  0.3322
14264TIP3    H264284   4.909   6.500  13.000  2.4256 -2.1532 -2.9345
14265TIP3   OH264285   6.247   6.734  10.807  0.2692 -0.6859  0.0034
14265TIP3    H164286   6.270   6.654  10.760 -0.9291 -0.9212 -0.2188
14265TIP3    H264287   6.327   6.759  10.853  0.6617 -2.0042  0.0735
14266TIP3   OH264288   1.551   6.134   1.439  0.1159  0.4594  0.1164
14266TIP3    H164289   1.555   6.159   1.531 -0.2352 -1.2668  0.6429
14266TIP3    H264290   1.633   6.086   1.423  0.1068  0.6133 -0.4401
14267TIP3   OH264291   2.248   2.724   3.423  0.1239  0.1582  0.4418
14267TIP3    H164292   2.204   2.804   3.452 -0.4267 -0.0078  0.0803
14267TIP3    H264293   2.208   2.704   3.338  1.7136  0.6471 -0.4739
14268TIP3   OH264294   5.980   0.196  14.236  0.3660  0.1719 -0.0197
14268TIP3    H164295   5.945   0.166  14.320  1.6414  0.3003  0.5676
14268TIP3    H264296   5.920   0.158  14.171 -0.5801 -0.0091  0.9235
14269TIP3   OH264297   6.482   5.933   4.194 -0.1029 -0.0753 -0.0281
14269TIP3    H164298   6.451   5.963   4.280  0.4379  0.4746 -0.0240
14269TIP3    H264299   6.402   5.922   4.143 -0.3232  1.5430 -0.0814
14270TIP3   OH264300   4.009   1.382   0.791 -0.1273  0.0711 -0.5745
14270TIP3    H164301   4.057   1.315   0.840 -0.1375 -0.1380 -0.8476
14270TIP3    H264302   4.075   1.450   0.774 -0.1953  0.2829 -0.0232
14271TIP3   OH264303   0.817   6.307  13.830 -0.3378 -0.1824 -0.4612
14271TIP3    H164304   0.904   6.272  13.852  0.4378  1.7257 -0.2457
14271TIP3    H264305   0.757   6.234  13.846  1.2128 -1.5430 -0.5700
14272TIP3   OH264306   2.551   1.754   3.444  0.2531 -0.0596 -0.2114
14272TIP3    H164307   2.634   1.708   3.453 -0.6794 -1.6585  0.7917
14272TIP3    H264308   2.532   1.788   3.532  0.2732  1.0711 -0.6364
14273TIP3   OH264309   0.767   4.409   2.605  0.0633  0.1243  0.2435
14273TIP3    H164310   0.701   4.340   2.611  0.2158 -0.3317 -2.3071
14273TIP3    H264311   0.726   4.478   2.554  0.0319  1.8815  2.4844
14274TIP3   OH264312   4.457   6.367   3.412 -0.2370 -0.0639  0.2721
14274TIP3    H164313   4.431   6.411   3.493 -1.9202 -1.4894  0.5610
14274TIP3    H264314   4.532   6.313   3.438 -0.3705 -0.0351  0.7306
14275TIP3   OH264315   2.226   5.364   0.916 -0.2388  0.0916  0.3815
14275TIP3    H164316   2.145   5.414   0.920  0.1778  1.0480 -1.7828
14275TIP3    H264317   2.283   5.404   0.981 -1.0034  0.3389  0.9000
14276TIP3   OH264318   2.275   6.710  11.422  0.0194 -0.1623 -0.4940
14276TIP3    H164319   2.331   6.634  11.409 -1.5267 -1.1596 -1.7093
14276TIP3    H264320   2.289   6.765  11.344  0.9767  0.7232  0.2795
14277TIP3   OH264321   6.259   3.557   2.324  0.0900  0.6007  0.6553
14277TIP3    H164322   6.245   3.467   2.353 -1.3468 -0.4845 -2.8260
14277TIP3    H264323   6.174   3.599   2.336  0.1345  0.8104  0.2536
14278TIP3   OH264324   4.681   4.245  12.574 -0.4429 -0.4907  0.0887
14278TIP3    H164325   4.660   4.291  12.655  1.6009  0.3798  0.1929
14278TIP3    H264326   4.730   4.309  12.522  0.0070 -1.6530 -0.9762
14279TIP3   OH264327   4.364   5.748   3.953  0.1639  0.4708 -0.0577
14279TIP3    H164328   4.432   5.706   3.900 -0.2011 -0.2628  0.0466
14279TIP3    H264329   4.321   5.808   3.892 -0.0659 -0.1574 -0.5205
14280TIP3   OH264330   6.349   4.910   4.908  0.4029  0.4652  0.5255
14280TIP3    H164331   6.326   4.832   4.857 -0.5092 -0.2553  1.9530
14280TIP3    H264332   6.443   4.921   4.893  0.6447 -1.1751  0.5953
14281TIP3   OH264333   4.794   0.240  17.138  0.0647  0.2490 -0.1230
14281TIP3    H164334   4.732   0.304  17.104 -2.0032 -1.8037 -0.5036
14281TIP3    H264335   4.848   0.217  17.063  0.2486  0.8897 -0.1945
14282TIP3   OH264336   2.615   5.743  14.982 -0.2454  0.2065  0.7773
14282TIP3    H164337   2.679   5.814  14.985 -1.3525  1.2192  1.2041
14282TIP3    H264338   2.653   5.673  15.036  0.5960  0.6865  0.8184
14283TIP3   OH264339   0.053   3.244  11.172  0.1013 -0.0440  0.0063
14283TIP3    H164340  -0.028   3.224  11.124 -1.5518  1.4851  1.9976
14283TIP3    H264341   0.030   3.233  11.264  2.2409  0.2446  0.6230
14284TIP3   OH264342   3.273   2.663   5.139 -0.6193 -0.3410  0.2129
14284TIP3    H164343   3.261   2.742   5.086 -2.1596 -1.9070 -1.9789
14284TIP3    H264344   3.365   2.665   5.165 -0.7093  2.3692  0.6661
14285TIP3   OH264345   3.890   2.155  11.573  0.0585 -0.5857 -0.2651
14285TIP3    H164346   3.893   2.217  11.501 -2.3463 -1.1915 -0.9941
14285TIP3    H264347   3.888   2.069  11.531  0.7610 -1.0604  0.6252
14286TIP3   OH264348   6.554   5.358  14.569  0.2925 -0.2387  0.1922
14286TIP3    H164349   6.563   5.359  14.474  1.4555 -1.1139  0.2685
14286TIP3    H264350   6.468   5.398  14.586  0.7714  1.4747 -1.1199
14287TIP3   OH264351   6.689   5.074   4.686  0.2281 -0.1328 -0.6477
14287TIP3    H164352   6.675   5.106   4.775 -1.5561  0.4424 -1.0880
14287TIP3    H264353   6.640   4.992   4.682 -1.1242  0.6633 -1.5225
14288TIP3   OH264354   6.556   6.274   4.941 -0.1082 -0.0054  0.2577
14288TIP3    H164355   6.620   6.208   4.967  0.0892  0.2671  0.4590
14288TIP3    H264356   6.545   6.329   5.018 -0.5868 -0.0500  0.2284
14289TIP3   OH264357   1.692   4.608   0.705 -0.6305  0.0767 -0.0095
14289TIP3    H164358   1.689   4.679   0.769  1.5044  0.7201 -0.5329
14289TIP3    H264359   1.739   4.538   0.749  1.4571  0.7631 -0.9851
14290TIP3   OH264360   5.174   6.632  11.582  0.3506  0.1705 -0.1461
14290TIP3    H164361   5.221   6.602  11.660 -0.4425 -1.1685 -0.1554
14290TIP3    H264362   5.088   6.591  11.588  0.1445  0.3377 -1.5521
14291TIP3   OH264363   6.603   4.778   4.099  0.2149 -0.4802 -0.1421
14291TIP3    H164364   6.599   4.854   4.156  0.7995 -1.4925  1.3320
14291TIP3    H264365   6.620   4.705   4.158 -0.3494 -1.7677 -1.4985
14292TIP3   OH264366   6.176   3.988  13.467 -0.1957 -0.5552  0.1745
14292TIP3    H164367   6.197   3.969  13.375 -1.4288  0.8743 -0.4497
14292TIP3    H264368   6.136   3.907  13.500  1.2084 -1.4388 -0.2044
14293TIP3   OH264369   3.441   1.987  17.015  0.4711 -0.9589 -0.4004
14293TIP3    H164370   3.437   1.894  16.994 -0.5763 -0.7256 -1.2711
14293TIP3    H264371   3.523   2.017  16.975 -0.0944 -1.1236 -1.7188
14294TIP3   OH264372   2.717   5.205   3.568  0.5587  0.0575 -0.4119
14294TIP3    H164373   2.653   5.209   3.638  1.5618 -0.6639  0.5907
14294TIP3    H264374   2.775   5.280   3.583  1.9950 -1.2119  0.8337
14295TIP3   OH264375   1.600   0.322   0.164  0.0076 -0.4551  0.0484
14295TIP3    H164376   1.673   0.357   0.112 -0.2272  0.5026  0.3412
14295TIP3    H264377   1.542   0.397   0.176 -1.2075 -1.2789 -0.4712
14296TIP3   OH264378   5.165   3.530   5.212 -0.0237 -0.7234 -0.2946
14296TIP3    H164379   5.193   3.614   5.177 -0.2660 -0.3680  0.3367
14296TIP3    H264380   5.069   3.534   5.209 -0.0649 -0.4006  1.0402
14297TIP3   OH264381   5.129   2.547   4.614 -0.1957 -0.1318 -0.6461
14297TIP3    H164382   5.137   2.624   4.670  0.6252  0.1393 -1.1110
14297TIP3    H264383   5.162   2.475   4.667 -0.6594 -0.1111 -0.3237
14298TIP3   OH264384   1.716   3.687  17.153 -0.2645  0.2739  0.0382
14298TIP3    H164385   1.777   3.635  17.205 -0.7526 -2.7322 -2.1066
14298TIP3    H264386   1.773   3.743  17.099  0.7219 -2.2037 -1.6573
14299TIP3   OH264387   5.508   6.529  15.513  0.6515 -0.5083 -0.0069
14299TIP3    H164388   5.442   6.583  15.469  0.5580  0.8608  1.6946
14299TIP3    H264389   5.590   6.575  15.498  0.9057 -1.0801 -0.3761
14300TIP3   OH264390   1.084   4.958  14.734 -0.4368 -0.4525 -0.0801
14300TIP3    H164391   1.031   5.015  14.791  1.1139 -0.0554  1.0325
14300TIP3    H264392   1.039   4.961  14.649 -0.7243  2.0122  0.0827
14301TIP3   OH264393   0.961   5.036   4.451 -0.1436  0.2611 -0.1260
14301TIP3    H164394   0.954   5.102   4.382  2.5574  0.0023 -0.7615
14301TIP3    H264395   1.026   5.071   4.512 -0.6388 -0.6488  0.9755
14302TIP3   OH264396   2.660   2.456  14.356 -0.0937  0.1014 -0.6693
14302TIP3    H164397   2.650   2.493  14.444 -0.0420  2.0787 -1.4399
14302TIP3    H264398   2.652   2.361  14.369 -0.6788  0.3722  1.3738
14303TIP3   OH264399   4.063   2.272  13.312  0.3871 -0.5992 -0.1757
14303TIP3    H164400   4.040   2.318  13.231  0.7671  0.0885  0.0915
14303TIP3    H264401   4.046   2.180  13.294 -3.5549 -0.1356  0.3131
14304TIP3   OH264402   1.332   3.589   1.498 -0.3264 -0.3765 -0.7248
14304TIP3    H164403   1.331   3.598   1.403 -0.3396  1.3610 -0.5936
14304TIP3    H264404   1.266   3.523   1.516 -1.8317  0.7562 -1.8144
14305TIP3   OH264405   2.246   1.686   5.519  0.5053 -0.0041 -0.1036
14305TIP3    H164406   2.267   1.716   5.607 -0.3572  0.3068  0.0005
14305TIP3    H264407   2.184   1.614   5.532 -0.8106  1.0221 -0.4822
14306TIP3   OH264408   2.827   0.042   1.164  0.2998 -0.0616  0.3685
14306TIP3    H164409   2.883   0.100   1.111 -1.5768  0.7305 -0.8696
14306TIP3    H264410   2.755   0.019   1.105 -2.2081  1.2862  2.6853
14307TIP3   OH264411   3.033   6.423  15.484  0.3454  0.4148 -0.2814
14307TIP3    H164412   3.127   6.405  15.474  0.2087 -1.2310  0.9488
14307TIP3    H264413   3.027   6.518  15.486  2.1518  0.5495  0.8552
14308TIP3   OH264414   0.961   1.926  11.757  0.2151  0.2810 -0.1930
14308TIP3    H164415   1.044   1.944  11.802  0.3732  1.1424 -0.7930
14308TIP3    H264416   0.977   1.845  11.710  0.6284  0.2936 -0.0839
14309TIP3   OH264417   3.201   2.881   3.834  0.4005  0.2126 -0.1125
14309TIP3    H164418   3.233   2.882   3.744 -0.6647 -0.2079 -0.5092
14309TIP3    H264419   3.247   2.808   3.875 -0.9972 -1.2527 -1.0553
14310TIP3   OH264420   3.582   1.770  16.089 -0.5485  0.2313  0.8312
14310TIP3    H164421   3.671   1.784  16.056 -1.3888  0.1849 -1.6964
14310TIP3    H264422   3.589   1.696  16.149  1.1274  0.3199  0.7864
14311TIP3   OH264423   5.952   3.082   2.765 -0.3177  0.8158  0.0607
14311TIP3    H164424   5.858   3.073   2.748  0.1055 -2.0886 -1.3641
14311TIP3    H264425   5.976   3.004   2.814  1.5724  0.8743 -0.6678
14312TIP3   OH264426   2.059   1.906   5.034  0.1103  0.8388 -0.4249
14312TIP3    H164427   2.038   1.875   4.946  1.6588 -2.5844  0.2357
14312TIP3    H264428   2.138   1.959   5.023 -0.5562  1.7011 -1.2186
14313TIP3   OH264429   6.512   2.332  12.102 -0.0378  0.1714  0.1838
14313TIP3    H164430   6.589   2.349  12.049 -0.1767 -1.0075 -0.4324
14313TIP3    H264431   6.486   2.418  12.136  0.3918  0.8690 -1.1851
14314TIP3   OH264432   0.011   2.517  12.022 -0.5934  0.0692  0.0384
14314TIP3    H164433  -0.010   2.582  11.955 -2.7948 -0.9727 -0.3875
14314TIP3    H264434   0.074   2.458  11.980 -1.0943  0.0724 -0.7418
14315TIP3   OH264435   3.090   0.913  10.660  0.5233 -0.5240  0.7493
14315TIP3    H164436   3.168   0.965  10.646  1.8404 -2.6459 -0.4766
14315TIP3    H264437   3.119   0.822  10.646 -1.4766 -1.6977  3.2914
14316TIP3   OH264438   2.209   4.305   0.292 -0.2063  0.2960  0.0136
14316TIP3    H164439   2.186   4.388   0.333  0.8639  0.7040 -0.1956
14316TIP3    H264440   2.271   4.328   0.223  0.4353 -0.7189  0.2302
14317TIP3   OH264441   0.861   4.135   2.801  0.1737  0.0244  0.0612
14317TIP3    H164442   0.910   4.106   2.878 -0.1165  0.9056  0.5966
14317TIP3    H264443   0.819   4.216   2.829 -0.4607  0.0170 -0.8299
14318TIP3   OH264444   4.501   5.916  12.444 -0.3599 -0.2883 -0.3500
14318TIP3    H164445   4.575   5.876  12.398 -0.6803 -2.2289  0.6986
14318TIP3    H264446   4.479   5.993  12.392  1.5745 -0.3826 -1.3841
14319TIP3   OH264447   1.748   4.733  13.627 -0.6377  0.3712  0.3545
14319TIP3    H164448   1.798   4.773  13.555  0.0882 -1.3084 -0.1294
14319TIP3    H264449   1.662   4.775  13.623  0.1462  2.0345  0.0460
14320TIP3   OH264450   3.719   4.210  14.373 -0.2743  0.2315 -0.0324
14320TIP3    H164451   3.641   4.167  14.337 -1.4162  0.4178  2.0376
14320TIP3    H264452   3.712   4.301  14.343 -0.3803  0.0506 -0.5685
14321TIP3   OH264453   4.030   4.301  11.082 -0.6545  0.2894 -0.2545
14321TIP3    H164454   3.986   4.220  11.058 -2.1849  0.6995  0.9634
14321TIP3    H264455   4.089   4.319  11.009 -0.3401 -1.8525 -0.5895
14322TIP3   OH264456   6.000   6.525  13.058 -0.5272 -0.1667  0.4673
14322TIP3    H164457   6.016   6.617  13.036  2.1067 -0.7226 -0.3379
14322TIP3    H264458   6.040   6.476  12.986 -1.3406 -1.9765  1.1741
14323TIP3   OH264459   2.823   1.861   1.975 -0.0248 -0.2995 -0.1836
14323TIP3    H164460   2.845   1.951   1.999 -1.2377 -0.2413  0.8158
14323TIP3    H264461   2.885   1.807   2.023  0.3316 -0.0249 -0.3297
14324TIP3   OH264462   3.660   6.294  15.881 -0.4306  0.0179 -0.2956
14324TIP3    H164463   3.609   6.243  15.944  2.2410 -0.9763  1.2307
14324TIP3    H264464   3.690   6.371  15.931 -1.1088  1.0418 -1.4107
14325TIP3   OH264465   0.092   0.717  14.358 -0.1719  0.0915 -0.0590
14325TIP3    H164466   0.039   0.645  14.391 -3.3202  1.2757 -2.0440
14325TIP3    H264467   0.158   0.675  14.303  0.3810 -1.3886  1.6388
14326TIP3   OH264468   6.670   0.129   3.415  0.3787 -0.2313 -0.2157
14326TIP3    H164469   6.763   0.138   3.436  0.7604  1.3071 -2.3274
14326TIP3    H264470   6.627   0.191   3.474  0.8086 -0.0749 -0.0596
14327TIP3   OH264471   5.386   1.445  12.186 -0.1697 -0.1096  0.2912
14327TIP3    H164472   5.418   1.509  12.122  0.6997  1.2991  2.0611
14327TIP3    H264473   5.353   1.497  12.259 -1.1320 -1.6671  1.0181
14328TIP3   OH264474   3.842   6.562   1.266  0.1690 -0.5601 -0.4240
14328TIP3    H164475   3.902   6.636   1.259  1.9213 -1.4616  2.7665
14328TIP3    H264476   3.766   6.598   1.312  0.1378 -0.2956 -0.6847
14329TIP3   OH264477   3.001   0.940  11.927 -0.3062  0.5843  0.5184
14329TIP3    H164478   2.910   0.945  11.958 -0.5036  0.4448 -0.0291
14329TIP3    H264479   3.053   0.965  12.003 -0.7130 -0.8237  1.2973
14330TIP3   OH264480   1.621   4.495  11.838 -0.3007  0.0088 -0.0935
14330TIP3    H164481   1.708   4.518  11.872 -0.5302  2.7982 -1.1290
14330TIP3    H264482   1.575   4.457  11.913  1.1164  0.4865  1.0657
14331TIP3   OH264483   5.002   1.935  11.607  0.5949 -0.1017 -0.0896
14331TIP3    H164484   4.954   1.996  11.551 -0.0818 -0.9526 -0.4472
14331TIP3    H264485   4.999   1.851  11.561  3.0602 -0.0627 -0.4854
14332TIP3   OH264486   6.411   4.563   1.381  0.2026 -0.3730 -0.6939
14332TIP3    H164487   6.494   4.601   1.350  0.0674 -0.1941 -0.8334
14332TIP3    H264488   6.426   4.547   1.474  0.3024 -0.0914 -0.6598
14333TIP3   OH264489   4.298   0.444   4.695 -0.0130 -0.1942 -0.0148
14333TIP3    H164490   4.209   0.413   4.712  0.3413 -1.9357 -1.0239
14333TIP3    H264491   4.305   0.445   4.599  0.4343  1.9108 -0.0063
14334TIP3   OH264492   6.523   2.797   1.080 -0.4304  0.1786 -0.5738
14334TIP3    H164493   6.460   2.786   1.008 -0.3854 -1.2001 -0.4445
14334TIP3    H264494   6.574   2.874   1.056 -0.3904 -0.2672 -2.0457
14335TIP3   OH264495   5.834   3.243   0.131  0.0755  0.6088  0.1253
14335TIP3    H164496   5.741   3.266   0.127  0.2076  0.9712 -1.9614
14335TIP3    H264497   5.851   3.229   0.224 -2.0501  0.5751  0.5645
14336TIP3   OH264498   1.139   5.065   4.650  0.0669 -0.1200  0.3214
14336TIP3    H164499   1.178   4.983   4.679 -0.4501 -0.1311  1.0237
14336TIP3    H264500   1.205   5.131   4.668  0.3042 -0.3248  0.1961
14337TIP3   OH264501   1.381   1.108  16.661  0.4690  0.3182 -0.3961
14337TIP3    H164502   1.359   1.087  16.570  3.1269 -0.5543 -0.9063
14337TIP3    H264503   1.328   1.185  16.680 -1.8207 -0.7547 -1.9085
14338TIP3   OH264504   6.467   2.376  14.880  0.4912 -0.0611  0.3953
14338TIP3    H164505   6.554   2.411  14.899  0.8640 -0.3700 -0.6699
14338TIP3    H264506   6.466   2.290  14.921  1.0207 -0.4188 -0.3129
14339TIP3   OH264507   6.423   3.897  16.977  0.1883  0.3540 -0.1429
14339TIP3    H164508   6.386   3.869  16.893  0.1837 -1.4416  0.4120
14339TIP3    H264509   6.512   3.924  16.957  0.0865  0.2310 -0.7661
14340TIP3   OH264510   3.844   1.648   6.344 -0.2330 -0.4746 -0.4588
14340TIP3    H164511   3.766   1.693   6.379  1.4544  0.8271  1.9057
14340TIP3    H264512   3.892   1.717   6.298  0.6622 -0.6925  0.1432
14341TIP3   OH264513   3.083   4.157   6.428  0.2440  0.4494  0.3749
14341TIP3    H164514   3.128   4.132   6.348  0.0552  0.5191  0.2470
14341TIP3    H264515   3.153   4.166   6.493  0.2953 -0.6468  0.4917
14342TIP3   OH264516   2.680   0.445   3.361 -0.4361 -0.0976 -0.1043
14342TIP3    H164517   2.639   0.472   3.443 -1.2794 -1.2980 -0.1028
14342TIP3    H264518   2.656   0.513   3.298  0.4763  0.9948  0.6817
14343TIP3   OH264519   6.433   5.179   3.013 -0.2546  0.0650  0.2283
14343TIP3    H164520   6.389   5.231   3.080  1.1247  0.0820  1.1635
14343TIP3    H264521   6.483   5.243   2.962  0.4515 -0.1975  0.5877
14344TIP3   OH264522   4.316   4.818   0.816 -0.1544  0.1741 -0.2644
14344TIP3    H164523   4.347   4.843   0.903  1.1099  0.3938 -0.7479
14344TIP3    H264524   4.259   4.743   0.831 -1.5777  1.4508  0.9279
14345TIP3   OH264525   6.227   0.936  12.345  0.0931 -0.0716 -0.1871
14345TIP3    H164526   6.314   0.967  12.373  0.0400 -0.5126  0.4818
14345TIP3    H264527   6.196   0.883  12.418 -0.3079 -0.7667 -0.8475
14346TIP3   OH264528   1.008   0.299  16.338 -0.3023 -0.0899 -0.6687
14346TIP3    H164529   1.000   0.204  16.349 -3.6163  0.1961  0.5184
14346TIP3    H264530   1.083   0.310  16.279  1.2270 -3.3050  0.4102
14347TIP3   OH264531   4.796   6.309  16.438 -0.2151  0.0339  0.3033
14347TIP3    H164532   4.844   6.252  16.378 -0.7973 -1.8826  1.6006
14347TIP3    H264533   4.836   6.396  16.425 -0.2402 -0.3040 -2.7246
14348TIP3   OH264534   1.136   6.720   4.310  0.0320  0.0414 -0.4876
14348TIP3    H164535   1.173   6.632   4.319 -2.6812 -1.1746 -0.3654
14348TIP3    H264536   1.112   6.745   4.399 -0.3931  0.3443 -0.6839
14349TIP3   OH264537   5.171   1.970  13.500 -0.1983 -0.0252 -0.1736
14349TIP3    H164538   5.185   2.059  13.467 -0.1370 -0.1842 -0.5863
14349TIP3    H264539   5.142   1.921  13.423  2.7383 -1.1038 -0.7033
14350TIP3   OH264540   0.103   5.765   2.870 -0.3704  0.1173  0.7597
14350TIP3    H164541   0.147   5.682   2.851  0.9250 -0.0578  3.9444
14350TIP3    H264542   0.015   5.755   2.833  0.0475 -2.2933  0.2651
14351TIP3   OH264543   6.734   2.610   1.095  0.6881 -0.2053 -0.0784
14351TIP3    H164544   6.772   2.648   1.016  2.0335  0.0015  0.6397
14351TIP3    H264545   6.643   2.637   1.093  0.5576 -0.6645 -1.8395
14352TIP3   OH264546   1.462   4.978   4.585 -0.0657 -0.0973  0.2252
14352TIP3    H164547   1.501   5.043   4.644 -0.9926  0.1252  0.6082
14352TIP3    H264548   1.429   4.909   4.643 -0.0569 -0.3827 -0.1064
14353TIP3   OH264549   0.583   6.255   4.167 -0.3800 -0.0169 -0.1553
14353TIP3    H164550   0.524   6.305   4.112  0.0051  1.9841  1.1530
14353TIP3    H264551   0.535   6.244   4.250  0.3155 -0.0812  0.2472
14354TIP3   OH264552   6.655   0.219  11.609  0.2270 -0.0595 -0.4391
14354TIP3    H164553   6.595   0.293  11.622  0.7577  0.3507 -0.2950
14354TIP3    H264554   6.603   0.142  11.631  0.4974  0.4479  2.3635
14355TIP3   OH264555   5.230   5.713  11.743 -0.3727 -0.1920  0.6223
14355TIP3    H164556   5.180   5.746  11.668  0.0571  0.6368  0.6911
14355TIP3    H264557   5.280   5.640  11.707  0.2740  0.5666 -0.0491
14356TIP3   OH264558   1.805   5.728  15.116 -0.3770  0.6703 -0.1093
14356TIP3    H164559   1.897   5.701  15.108 -0.2121  1.2410 -0.1395
14356TIP3    H264560   1.808   5.822  15.133 -1.0080  1.1497 -2.3212
14357TIP3   OH264561   1.453   3.038   1.928 -0.2825  0.3847  0.2006
14357TIP3    H164562   1.419   2.956   1.893  1.1156  0.0938 -0.5578
14357TIP3    H264563   1.395   3.060   2.001 -0.9835 -0.9995  0.0755
14358TIP3   OH264564   5.941   3.046  13.765 -0.2773  0.1846  0.1653
14358TIP3    H164565   5.915   2.956  13.786 -1.0205  0.1373 -0.8495
14358TIP3    H264566   5.864   3.099  13.786 -0.2402  0.4269 -0.2813
14359TIP3   OH264567   3.483   6.233  14.889 -0.7380  0.0019  0.3861
14359TIP3    H164568   3.454   6.312  14.843 -0.5940  0.5549  1.2202
14359TIP3    H264569   3.569   6.257  14.925  0.8913 -1.6175 -2.1079
14360TIP3   OH264570   2.903   4.974  12.843 -0.2655  0.8922 -0.8833
14360TIP3    H164571   2.821   5.005  12.806  0.4100  0.8325 -2.4988
14360TIP3    H264572   2.879   4.936  12.928 -2.0543 -0.0804 -1.7874
14361TIP3   OH264573   1.567   2.086  12.135 -0.0145  1.0806 -0.0886
14361TIP3    H164574   1.625   2.162  12.146  0.7882  0.6593 -1.2027
14361TIP3    H264575   1.590   2.051  12.050 -0.8698 -0.0157  0.1122
14362TIP3   OH264576   2.384   5.617  15.110 -0.5364 -0.3633  0.6581
14362TIP3    H164577   2.401   5.685  15.176  1.5883  0.2925 -0.4374
14362TIP3    H264578   2.462   5.620  15.054 -1.5252 -2.0374 -0.8853
14363TIP3   OH264579   6.094   5.516   1.354 -0.1568  0.1882 -0.0189
14363TIP3    H164580   6.051   5.462   1.288  0.2101 -1.5812  1.1054
14363TIP3    H264581   6.187   5.501   1.340 -0.0874 -1.0149  1.4634
14364TIP3   OH264582   3.043   4.485   4.805  0.1816 -0.2407  0.4134
14364TIP3    H164583   3.138   4.484   4.800  0.1373  0.3081 -2.1617
14364TIP3    H264584   3.016   4.405   4.759 -0.6001 -0.0231  0.4815
14365TIP3   OH264585   2.066   3.714  15.528  0.0467 -0.2420 -0.1861
14365TIP3    H164586   2.006   3.760  15.469 -2.1471 -2.3787  0.2316
14365TIP3    H264587   2.014   3.692  15.604  1.4208 -2.0058  0.3185
14366TIP3   OH264588   2.699   6.058   1.587 -0.6450 -0.3481  0.5288
14366TIP3    H164589   2.783   6.020   1.609 -0.3832  0.3897  0.8450
14366TIP3    H264590   2.719   6.125   1.522 -0.9782 -0.1421  0.6331
14367TIP3   OH264591   4.175   6.743   0.215 -0.1173 -0.8790  0.1521
14367TIP3    H164592   4.263   6.708   0.229 -0.0310 -0.8158 -0.2416
14367TIP3    H264593   4.139   6.689   0.145 -0.2037 -0.5667 -0.0444
14368TIP3   OH264594   3.348   3.977  11.150 -0.5106 -0.7717 -0.0281
14368TIP3    H164595   3.284   4.041  11.118 -1.1354 -2.2848 -1.9597
14368TIP3    H264596   3.296   3.911  11.194 -0.0862 -1.1195 -0.0452
14369TIP3   OH264597   4.799   0.201   2.567  0.4807 -0.7115 -0.3648
14369TIP3    H164598   4.864   0.190   2.636  1.9308 -0.7980 -1.6657
14369TIP3    H264599   4.810   0.124   2.511 -2.3108 -1.8706  0.5404
14370TIP3   OH264600   2.826   6.533  14.740 -0.7145  0.1696 -0.1541
14370TIP3    H164601   2.863   6.575  14.817 -2.4536 -0.5803  1.1736
14370TIP3    H264602   2.873   6.449  14.733 -0.4801  0.2863  0.0156
14371TIP3   OH264603   1.696   3.304   0.923 -0.0035  0.1563  0.0975
14371TIP3    H164604   1.667   3.276   0.836  0.2149  0.2119  0.0058
14371TIP3    H264605   1.713   3.222   0.970  0.2760  0.1302 -0.0485
14372TIP3   OH264606   4.531   2.391   4.149 -0.0060  0.4734 -0.6473
14372TIP3    H164607   4.463   2.354   4.205  0.0311  0.7636 -0.4040
14372TIP3    H264608   4.535   2.333   4.073 -2.0408  1.6241 -1.7255
14373TIP3   OH264609   0.449   0.207  15.617 -0.0391  0.1916 -0.1568
14373TIP3    H164610   0.464   0.161  15.534 -0.6997  0.2569 -0.3200
14373TIP3    H264611   0.355   0.225  15.617 -0.6301 -2.2710  1.8707
14374TIP3   OH264612   3.051   3.853  14.852  0.0871  0.4391 -0.0894
14374TIP3    H164613   3.116   3.785  14.867  1.0721  1.2097 -0.6873
14374TIP3    H264614   3.014   3.832  14.766  0.8690  0.9951 -0.5828
14375TIP3   OH264615   5.004   0.973  14.633 -0.3716  0.0947  0.0158
14375TIP3    H164616   5.053   0.966  14.551 -0.0786  0.5064  0.1503
14375TIP3    H264617   4.924   0.922  14.618 -1.5454  2.2255 -1.4525
14376TIP3   OH264618   4.437   0.319  14.159 -0.5085 -0.1676  0.3221
14376TIP3    H164619   4.425   0.258  14.085  0.1449  0.5715 -0.4125
14376TIP3    H264620   4.531   0.329  14.167 -0.5810 -0.0339  1.1034
14377TIP3   OH264621   6.479   6.617  16.809  0.1498  0.7611  0.2020
14377TIP3    H164622   6.428   6.656  16.881  0.4858 -0.0068  0.8789
14377TIP3    H264623   6.456   6.524  16.813  0.6160  0.6251 -0.3266
14378TIP3   OH264624   4.452   0.638  15.296 -0.2006 -0.3002  0.0686
14378TIP3    H164625   4.436   0.547  15.322  0.2287  0.1304  2.0146
14378TIP3    H264626   4.546   0.641  15.275 -0.7555 -0.9146 -2.9573
14379TIP3   OH264627   4.672   6.021   1.028 -0.0646  0.2196 -0.4730
14379TIP3    H164628   4.710   6.083   0.966  0.0376 -0.0045 -0.6377
14379TIP3    H264629   4.715   6.041   1.111  1.4460 -0.9041 -0.9264
14380TIP3   OH264630   3.991   0.091  16.462 -0.6421  1.1698 -0.5512
14380TIP3    H164631   3.982   0.164  16.402 -1.5955 -0.2525 -2.2116
14380TIP3    H264632   3.912   0.094  16.516 -0.7574  1.2561 -0.7260
14381TIP3   OH264633   5.438   1.854   4.731  0.1723 -0.0619 -0.2272
14381TIP3    H164634   5.354   1.815   4.706  1.2255 -1.6611 -1.4050
14381TIP3    H264635   5.482   1.871   4.648  1.4511 -0.2048  0.4068
14382TIP3   OH264636   3.962   3.228   0.547  0.3151  0.0561 -0.2015
14382TIP3    H164637   4.037   3.258   0.495 -0.3023 -0.8284 -1.6889
14382TIP3    H264638   3.893   3.290   0.527  0.4889  0.5644  0.7490
14383TIP3   OH264639   0.888   4.856  11.944 -0.0487  0.1135 -0.5886
14383TIP3    H164640   0.977   4.889  11.956 -0.0013  0.3298 -1.5103
14383TIP3    H264641   0.835   4.909  12.002  0.3804  0.1783 -0.2489
14384TIP3   OH264642   1.283   0.674  12.188  0.1559  0.0574 -0.6375
14384TIP3    H164643   1.334   0.748  12.221 -0.8018  1.7573 -2.7337
14384TIP3    H264644   1.348   0.609  12.160  1.0221  0.3484  0.6568
14385TIP3   OH264645   3.694   2.980  10.252  0.5992  0.3791 -0.4153
14385TIP3    H164646   3.662   2.917  10.188  0.1075 -0.1985  0.3745
14385TIP3    H264647   3.774   2.940  10.286 -0.7561 -0.8602  1.5407
14386TIP3   OH264648   3.241   5.967  17.106  0.7002 -0.5014 -0.4073
14386TIP3    H164649   3.178   6.038  17.095  0.5001 -0.9899 -2.7904
14386TIP3    H264650   3.216   5.926  17.189  0.5143  1.8519  0.7927
14387TIP3   OH264651   4.267   3.283  14.615  0.6337 -0.1098 -0.6471
14387TIP3    H164652   4.201   3.217  14.591  0.4936  0.0139 -0.6029
14387TIP3    H264653   4.223   3.338  14.680  0.9039 -0.2458 -0.3472
14388TIP3   OH264654   5.774   3.628   0.468 -0.1876  0.1610 -0.1197
14388TIP3    H164655   5.842   3.693   0.480 -0.8377  0.8062  0.1503
14388TIP3    H264656   5.703   3.675   0.424  0.6395 -1.1753 -3.1890
14389TIP3   OH264657   1.068   0.787  14.204 -0.0064  0.0981 -0.0940
14389TIP3    H164658   1.091   0.695  14.212 -0.1217  0.0298 -0.5379
14389TIP3    H264659   1.151   0.833  14.210 -0.0295  0.0366  1.0589
14390TIP3   OH264660   5.074   5.308   0.352 -0.4197 -0.1269  0.6697
14390TIP3    H164661   5.089   5.288   0.260  0.0544  0.1934  0.6728
14390TIP3    H264662   5.085   5.403   0.359 -1.0157 -0.0680  0.9553
14391TIP3   OH264663   6.494   1.871   5.148 -0.1045  0.5433 -0.8712
14391TIP3    H164664   6.429   1.882   5.078 -2.5981  0.8137  1.3534
14391TIP3    H264665   6.475   1.784   5.184 -0.1375  1.1483  0.6325
14392TIP3   OH264666   0.939   1.151   2.955  0.3353 -0.2051 -0.8183
14392TIP3    H164667   0.853   1.134   2.995 -0.1298 -0.1074 -1.7291
14392TIP3    H264668   0.994   1.181   3.027  0.0290 -1.6807  0.0679
14393TIP3   OH264669   3.723   4.592   0.015  0.4292  0.3035 -0.1776
14393TIP3    H164670   3.815   4.617   0.031  0.7817  0.4536 -2.2007
14393TIP3    H264671   3.681   4.673  -0.011 -0.2880  0.2092  0.6377
14394TIP3   OH264672   3.167   6.628  16.288  0.2463  0.8444 -0.5410
14394TIP3    H164673   3.206   6.683  16.220 -1.2766  1.0759 -1.2617
14394TIP3    H264674   3.091   6.588  16.246  0.9273 -1.3152  0.1645
14395TIP3   OH264675   4.661   1.195   2.693 -0.2086 -0.5431  0.7003
14395TIP3    H164676   4.602   1.154   2.629 -1.8164  0.2347  1.6007
14395TIP3    H264677   4.637   1.155   2.777  2.7423 -2.4798  0.7519
14396TIP3   OH264678   5.392   6.496  15.780 -0.2479 -0.1207  0.0179
14396TIP3    H164679   5.386   6.583  15.819 -0.9761 -0.3077  0.3290
14396TIP3    H264680   5.442   6.509  15.699  2.2809  0.0943  1.5107
14397TIP3   OH264681   5.687   2.164  11.453  0.4362 -0.9460  0.2970
14397TIP3    H164682   5.689   2.247  11.501  0.5880 -0.9141  0.2381
14397TIP3    H264683   5.647   2.185  11.369 -0.4830 -1.1468  0.6750
14398TIP3   OH264684   0.003   2.699  15.294 -0.0429  0.5612 -0.6857
14398TIP3    H164685   0.081   2.733  15.250 -0.0824  0.3773 -0.9001
14398TIP3    H264686   0.028   2.612  15.325 -1.1887 -1.0059 -3.7874
14399TIP3   OH264687   1.387   5.573   0.711 -0.0391  0.2737  0.9860
14399TIP3    H164688   1.433   5.517   0.774  1.0179  0.1358  0.1127
14399TIP3    H264689   1.403   5.533   0.626  1.7529  2.5147  0.1793
14400TIP3   OH264690   3.462   0.830   1.613  0.2502  0.7812 -0.5271
14400TIP3    H164691   3.429   0.882   1.540  0.3325  1.9435  0.2543
14400TIP3    H264692   3.557   0.838   1.607  0.4076 -1.1754 -1.7520
14401TIP3   OH264693   0.443   1.251   0.154  0.0042 -0.2638 -0.0078
14401TIP3    H164694   0.488   1.168   0.166  0.7322 -0.0357 -1.0095
14401TIP3    H264695   0.465   1.302   0.232  0.6329 -0.5388  0.0005
14402TIP3   OH264696   5.462   5.731   5.940 -0.2982 -0.0326  0.9223
14402TIP3    H164697   5.557   5.733   5.929 -0.4082  0.4294 -0.0671
14402TIP3    H264698   5.448   5.677   6.017  0.6160 -3.1186 -0.8745
14403TIP3   OH264699   1.554   5.630   2.723  0.2621 -0.3635  0.0551
14403TIP3    H164700   1.476   5.685   2.725 -0.3530 -1.2259  1.2634
14403TIP3    H264701   1.574   5.619   2.630  0.4429  1.8927 -0.2336
14404TIP3   OH264702   3.312   0.819   4.301  0.4433  0.5076  0.0656
14404TIP3    H164703   3.354   0.904   4.317 -0.9052  1.0882  0.6780
14404TIP3    H264704   3.263   0.801   4.382 -0.2698 -0.2520 -0.5212
14405TIP3   OH264705   3.170   1.845  16.076  0.2232  0.3892  0.2537
14405TIP3    H164706   3.232   1.893  16.021 -0.6567  0.1586 -0.9625
14405TIP3    H264707   3.201   1.860  16.165  1.3313  1.2562 -0.2570
14406TIP3   OH264708   3.248   1.878  14.551  0.0174 -0.0598 -0.1563
14406TIP3    H164709   3.194   1.799  14.549  1.6003 -1.2327  0.9296
14406TIP3    H264710   3.261   1.900  14.458 -0.3832 -1.1027 -0.4766
14407TIP3   OH264711   6.005   2.060   4.546 -0.9645 -0.0877 -0.3928
14407TIP3    H164712   5.989   2.154   4.538 -2.6687 -0.3886 -1.0936
14407TIP3    H264713   6.096   2.049   4.521 -0.7009  1.3917 -0.1799
14408TIP3   OH264714   6.455   3.475  13.378  0.0185 -0.0073 -0.4202
14408TIP3    H164715   6.433   3.509  13.291 -2.8810  0.3844  0.3644
14408TIP3    H264716   6.371   3.465  13.422  1.4334  1.2220  2.8992
14409TIP3   OH264717   2.847   0.479  15.639  0.5171 -0.1339  0.0774
14409TIP3    H164718   2.768   0.459  15.588  0.0393 -0.5957  0.9822
14409TIP3    H264719   2.820   0.548  15.700  1.0825  0.4029 -0.2607
14410TIP3   OH264720   1.198   6.389  15.139 -0.3320  0.2161  0.1953
14410TIP3    H164721   1.228   6.470  15.097  1.6981 -1.1201 -1.0900
14410TIP3    H264722   1.222   6.401  15.231 -0.5775  1.2946  0.1361
14411TIP3   OH264723   0.372   3.347  14.762  0.5899  0.6384  0.2820
14411TIP3    H164724   0.401   3.285  14.696 -1.0009  0.2553 -0.1173
14411TIP3    H264725   0.367   3.431  14.715  1.0457  0.7104  0.3589
14412TIP3   OH264726   0.011   6.477   4.934  0.0031 -0.1655 -0.4521
14412TIP3    H164727  -0.004   6.449   5.024 -1.3047 -0.9291 -0.8759
14412TIP3    H264728   0.095   6.438   4.910  0.9380  0.9850  0.7706
14413TIP3   OH264729   2.217   3.817   4.706  0.2119  1.2043  0.0968
14413TIP3    H164730   2.233   3.877   4.779  1.5584  1.9736 -0.7910
14413TIP3    H264731   2.217   3.873   4.629 -0.6329  0.3249 -0.5705
14414TIP3   OH264732   1.578   6.424  14.258  0.4203  0.2196 -0.0977
14414TIP3    H164733   1.626   6.504  14.280 -0.1478  0.5011  0.1568
14414TIP3    H264734   1.573   6.376  14.340  1.3414 -0.4016 -0.3974
14415TIP3   OH264735   5.459   4.277   5.183 -0.3819  0.2086  0.1124
14415TIP3    H164736   5.391   4.303   5.120  0.6248  1.3438 -0.5457
14415TIP3    H264737   5.446   4.336   5.258  1.1426  1.9120 -0.8825
14416TIP3   OH264738   0.810   2.711   0.450 -0.4147 -0.2415 -0.2707
14416TIP3    H164739   0.790   2.803   0.466 -0.0589  0.1468 -1.8119
14416TIP3    H264740   0.725   2.667   0.456 -0.7854  0.3899 -0.7076
14417TIP3   OH264741   3.045   4.431  15.411 -0.1456 -0.2086 -0.3823
14417TIP3    H164742   3.000   4.348  15.398  0.0901 -0.2229 -1.2058
14417TIP3    H264743   3.131   4.418  15.372  0.1483  0.1980  0.1148
14418TIP3   OH264744   2.623   6.272  11.009 -0.1674  0.4011  0.9761
14418TIP3    H164745   2.617   6.275  10.913 -1.8565  1.5680  1.0823
14418TIP3    H264746   2.675   6.194  11.027  1.6776  1.0934 -0.9353
14419TIP3   OH264747   3.198   3.768  13.472 -0.6179 -0.2904 -0.2247
14419TIP3    H164748   3.199   3.693  13.412 -1.0008 -0.8043  0.3922
14419TIP3    H264749   3.107   3.773  13.501 -1.1950  1.9348 -2.0984
14420TIP3   OH264750   3.856   0.846  16.909 -0.1103 -0.3763  0.2045
14420TIP3    H164751   3.862   0.751  16.907 -0.0109 -0.3546 -0.8765
14420TIP3    H264752   3.786   0.867  16.847  1.1558  0.3450 -1.0140
14421TIP3   OH264753   2.414   5.673  16.149  0.0709  0.0744  0.0320
14421TIP3    H164754   2.329   5.696  16.112  0.4728  0.9879 -0.3759
14421TIP3    H264755   2.405   5.691  16.243  0.2478  1.6215 -0.2201
14422TIP3   OH264756   5.323   3.480  10.908 -0.2174 -0.0040  0.6266
14422TIP3    H164757   5.418   3.486  10.915 -0.1939  0.3248  0.0922
14422TIP3    H264758   5.307   3.397  10.863 -0.2911 -1.1707  2.6782
14423TIP3   OH264759   4.201   5.059  14.862 -0.0127  0.2759 -0.7432
14423TIP3    H164760   4.279   5.077  14.915 -0.5919  0.0039  0.2292
14423TIP3    H264761   4.172   5.144  14.830 -0.3103  0.5818  0.3267
14424TIP3   OH264762   3.804   0.117  14.581 -0.0361 -0.5939 -0.3059
14424TIP3    H164763   3.721   0.130  14.535 -0.9867 -1.4342  1.0942
14424TIP3    H264764   3.833   0.205  14.604 -0.1660 -0.2438 -1.4245
14425TIP3   OH264765   3.786   4.464  13.527 -0.1791 -0.1100  0.6936
14425TIP3    H164766   3.740   4.539  13.489  1.0075 -0.3498 -1.3261
14425TIP3    H264767   3.817   4.496  13.612 -0.8335  1.2398  0.4529
14426TIP3   OH264768   0.756   6.610  14.795 -0.0337  0.7448 -0.3973
14426TIP3    H164769   0.680   6.668  14.793 -1.3814 -0.9765 -2.8360
14426TIP3    H264770   0.754   6.564  14.712  2.9803 -0.3246  0.0012
14427TIP3   OH264771   1.400   6.423  11.614 -0.2142 -0.2803  0.3100
14427TIP3    H164772   1.384   6.491  11.549  0.2377  1.2357  1.7358
14427TIP3    H264773   1.324   6.425  11.672 -0.4235 -1.3405  0.1017
14428TIP3   OH264774   6.788   0.135  15.916 -0.3810 -0.1621  0.0828
14428TIP3    H164775   6.760   0.118  16.005 -0.4275 -0.6096 -0.0164
14428TIP3    H264776   6.883   0.128  15.918 -0.4793 -1.8242 -0.2424
14429TIP3   OH264777   0.818   0.915   5.417  0.1119  1.2614  0.1283
14429TIP3    H164778   0.736   0.913   5.467  1.0057  2.9290  1.7566
14429TIP3    H264779   0.885   0.935   5.482  1.9978 -0.9691 -0.9965
14430TIP3   OH264780   5.692   1.599   6.678 -0.0960 -0.6523  0.0634
14430TIP3    H164781   5.664   1.691   6.681  1.2673 -0.2131 -0.2083
14430TIP3    H264782   5.738   1.585   6.760  1.0475 -0.6149 -0.5425
14431TIP3   OH264783   6.230   4.168  15.473 -0.1306 -0.2117  0.2911
14431TIP3    H164784   6.191   4.135  15.392 -0.3338  1.0991 -0.1779
14431TIP3    H264785   6.296   4.231  15.443  0.1113 -0.0525  1.1392
14432TIP3   OH264786   6.222   4.074  17.108 -0.9995 -0.2813  0.5726
14432TIP3    H164787   6.295   4.029  17.067 -1.3355 -0.3095  0.0010
14432TIP3    H264788   6.148   4.014  17.100 -0.8440 -0.7367  2.1511
14433TIP3   OH264789   0.513   2.700   0.254 -0.4614  0.3382 -0.2843
14433TIP3    H164790   0.548   2.612   0.266  1.1062  0.8395 -0.8752
14433TIP3    H264791   0.452   2.712   0.326 -0.5787 -1.1662 -0.1105
14434TIP3   OH264792   2.106   6.206   1.698  0.1050 -0.0502  0.1840
14434TIP3    H164793   2.178   6.163   1.744 -0.5590 -2.9807 -1.2583
14434TIP3    H264794   2.054   6.247   1.767  0.9019 -1.4772  1.7050
14435TIP3   OH264795   3.133   0.838  17.086 -0.2443 -0.2642 -0.3269
14435TIP3    H164796   3.164   0.786  17.011 -3.2980 -0.3782 -1.6417
14435TIP3    H264797   3.096   0.917  17.047 -4.3526 -1.5003  0.6309
14436TIP3   OH264798   4.374   1.516   5.320 -0.1199  0.1056  0.0334
14436TIP3    H164799   4.331   1.583   5.266 -0.8228 -0.4204 -0.0628
14436TIP3    H264800   4.321   1.438   5.308  0.8455 -0.5486 -0.0512
14437TIP3   OH264801   6.564   3.926  13.295  0.5169  0.3569  0.3646
14437TIP3    H164802   6.650   3.968  13.289  0.4092  0.5230 -0.0576
14437TIP3    H264803   6.537   3.913  13.204  0.1739  0.1399  0.4959
14438TIP3   OH264804   2.160   0.893  14.204 -0.4983 -0.5187  0.1195
14438TIP3    H164805   2.248   0.875  14.172  0.3412  1.2803  1.2142
14438TIP3    H264806   2.141   0.821  14.264 -1.1280 -2.6198 -2.4151
14439TIP3   OH264807   5.139   1.969   0.314  0.3074  0.3815 -0.1788
14439TIP3    H164808   5.169   1.991   0.226  0.7059 -0.1300 -0.1776
14439TIP3    H264809   5.175   2.037   0.370  2.1562 -0.6216 -0.0634
14440TIP3   OH264810   2.710   0.324  15.420 -0.2934 -0.2362 -0.9853
14440TIP3    H164811   2.640   0.259  15.411 -1.5702  1.1924 -1.9813
14440TIP3    H264812   2.780   0.292  15.364 -1.2888 -0.2965 -2.2430
14441TIP3   OH264813   2.473   5.125  17.003 -0.2831 -0.2766 -0.1440
14441TIP3    H164814   2.395   5.093  16.958 -0.7031  0.1090  0.3022
14441TIP3    H264815   2.463   5.097  17.093  0.7061 -1.3074 -0.3343
14442TIP3   OH264816   0.147   0.760   3.027 -0.1653  0.5266  0.0172
14442TIP3    H164817   0.182   0.671   3.038 -2.6253 -0.4151  0.7958
14442TIP3    H264818   0.126   0.766   2.934 -1.3755 -0.2925  0.2192
14443TIP3   OH264819   3.088   3.771  16.387  0.1112  0.3467 -0.0597
14443TIP3    H164820   3.015   3.833  16.379  0.4397  0.6184 -1.0989
14443TIP3    H264821   3.115   3.778  16.479 -0.0165  1.5690 -0.0981
14444TIP3   OH264822   5.183   1.626   3.476 -0.1700 -0.0966 -0.7094
14444TIP3    H164823   5.182   1.718   3.452 -1.1777  0.0254 -0.2638
14444TIP3    H264824   5.111   1.587   3.426  0.9519 -0.8859 -1.7626
14445TIP3   OH264825   2.914   5.803  15.731  0.2939  0.5251  0.1295
14445TIP3    H164826   2.938   5.883  15.683 -0.0263  2.0261  2.3415
14445TIP3    H264827   2.826   5.820  15.764  0.1935 -0.7936  0.6020
14446TIP3   OH264828   1.688   3.622  13.426  0.0048  0.5986  0.1146
14446TIP3    H164829   1.682   3.706  13.472  2.2770  1.5692 -1.1849
14446TIP3    H264830   1.608   3.616  13.375  1.3719  4.0091 -2.8619
14447TIP3   OH264831   5.868   2.790  11.332  0.1345 -1.2125 -0.0876
14447TIP3    H164832   5.863   2.883  11.355 -1.2311 -1.1092 -0.7245
14447TIP3    H264833   5.959   2.778  11.304  1.0352 -0.6721  2.3881
14448TIP3   OH264834   1.456   2.785   5.426  0.4214  0.0462 -0.5569
14448TIP3    H164835   1.416   2.834   5.354 -1.9721  1.3133  1.4639
14448TIP3    H264836   1.403   2.705   5.432 -0.3252  0.6125  0.6491
14449TIP3   OH264837   1.947   2.176  15.443  0.1145  0.3453 -0.3091
14449TIP3    H164838   1.851   2.172  15.447  0.0722  1.4922  0.9570
14449TIP3    H264839   1.974   2.169  15.535  1.2325  0.2533 -0.6374
14450TIP3   OH264840   1.889   0.228   1.657  0.3104 -0.4263 -0.6505
14450TIP3    H164841   1.862   0.206   1.746  0.1541 -1.2839 -0.8956
14450TIP3    H264842   1.985   0.229   1.661  0.2967  0.2116 -0.3290
14451TIP3   OH264843   5.351   5.994  12.566 -0.0698 -0.2585  0.0135
14451TIP3    H164844   5.265   5.998  12.524 -0.7203 -1.4306  1.1407
14451TIP3    H264845   5.387   5.910  12.538 -0.1980 -0.7105  1.1368
14452TIP3   OH264846   6.030   1.191  13.807  0.2675  0.1836 -0.1288
14452TIP3    H164847   6.107   1.158  13.761  1.7620  3.0216  0.1031
14452TIP3    H264848   6.059   1.273  13.847 -2.9628  1.5748 -0.3000
14453TIP3   OH264849   1.798   1.082   3.967  0.7433 -0.2371  0.6692
14453TIP3    H164850   1.829   1.064   4.056  1.1121  2.6118  1.2179
14453TIP3    H264851   1.703   1.072   3.973  0.7729 -0.1941  1.3563
14454TIP3   OH264852   4.672   1.012  15.740 -0.7457  0.0421  0.3926
14454TIP3    H164853   4.693   1.059  15.659  1.6130  0.5784  1.2359
14454TIP3    H264854   4.606   1.066  15.783  2.8358  3.6245  2.0008
14455TIP3   OH264855   4.513   1.851   5.606  0.1706 -0.0531 -0.3765
14455TIP3    H164856   4.428   1.894   5.613  0.9956  1.5406  0.7610
14455TIP3    H264857   4.553   1.863   5.693  1.1333 -1.6997 -0.5460
14456TIP3   OH264858   4.560   6.368   6.327 -0.0517  0.0039  0.2434
14456TIP3    H164859   4.541   6.303   6.395 -0.5100 -0.6506 -0.4919
14456TIP3    H264860   4.501   6.346   6.255  0.0081  1.0448 -0.1539
14457TIP3   OH264861   3.947   4.814  13.459 -0.3725  0.2437 -0.6365
14457TIP3    H164862   3.866   4.832  13.506 -1.5941 -0.5478 -2.3281
14457TIP3    H264863   3.994   4.752  13.515 -1.0725  0.4525  0.2053
14458TIP3   OH264864   4.083   0.115   3.767  0.4068 -0.1809 -0.3320
14458TIP3    H164865   4.034   0.046   3.811  0.0597 -0.1150 -0.6175
14458TIP3    H264866   4.174   0.101   3.794  0.0984  0.3629  1.0761
14459TIP3   OH264867   1.891   0.128   2.311 -0.4414  0.4026  0.1436
14459TIP3    H164868   1.960   0.084   2.262 -2.1644 -1.9274 -0.3432
14459TIP3    H264869   1.810   0.106   2.265 -1.8715  0.3168  2.5087
14460TIP3   OH264870   1.503   1.830  13.377  0.8190 -0.3755  0.2728
14460TIP3    H164871   1.582   1.855  13.331  0.4892  2.0062  0.8670
14460TIP3    H264872   1.524   1.841  13.470 -1.0944  3.9106  0.4477
14461TIP3   OH264873   4.157   4.176   2.793  0.1816 -0.5700 -0.5607
14461TIP3    H164874   4.094   4.106   2.774 -0.6470  0.0523 -0.1851
14461TIP3    H264875   4.155   4.232   2.715  0.4027 -0.6394 -0.6175
14462TIP3   OH264876   2.294   1.391  13.479  0.3616  0.2782  0.1387
14462TIP3    H164877   2.231   1.414  13.411  1.1286  0.1558 -0.6302
14462TIP3    H264878   2.243   1.389  13.560 -0.6701 -0.0773 -0.5063
14463TIP3   OH264879   4.873   2.583   4.848  0.0047  0.6146 -0.3840
14463TIP3    H164880   4.819   2.541   4.781 -0.1328  3.0357 -1.9332
14463TIP3    H264881   4.956   2.536   4.844 -0.2773  0.1592 -1.6909
14464TIP3   OH264882   3.363   1.572  14.616 -0.3579  0.0711  0.2374
14464TIP3    H164883   3.410   1.557  14.697 -0.8807  0.3751  0.6037
14464TIP3    H264884   3.354   1.667  14.610  2.1334  0.2756 -1.6072
14465TIP3   OH264885   5.691   6.382  13.044 -0.5687 -0.2828 -0.1626
14465TIP3    H164886   5.621   6.425  13.093  0.2345  0.3584  0.4689
14465TIP3    H264887   5.768   6.438  13.058 -0.0593 -0.6490 -1.3069
14466TIP3   OH264888   6.232   0.374  12.563 -0.2415 -0.7139 -0.0249
14466TIP3    H164889   6.211   0.356  12.472  2.3749  2.0281 -1.3281
14466TIP3    H264890   6.326   0.356  12.571  0.5700  2.9921  0.8479
14467TIP3   OH264891   4.439   0.417   4.086  0.3327 -0.1268 -0.2072
14467TIP3    H164892   4.493   0.457   4.017 -1.2865 -0.1586 -1.5531
14467TIP3    H264893   4.396   0.491   4.128 -0.0364 -0.2145 -0.4236
14468TIP3   OH264894   3.067   3.114  15.364 -0.1008 -0.2833  0.1904
14468TIP3    H164895   3.060   3.208  15.348 -1.8926 -0.3818  0.1713
14468TIP3    H264896   3.087   3.107  15.458  0.4327  0.1229  0.1052
14469TIP3   OH264897   3.126   6.568   0.205 -0.4088  0.6265  0.1557
14469TIP3    H164898   3.097   6.521   0.284  0.4542  2.4329  1.6408
14469TIP3    H264899   3.189   6.508   0.164 -1.3721 -0.6304  0.4368
14470TIP3   OH264900   3.892   5.951  12.546  0.4235 -0.6468 -0.4626
14470TIP3    H164901   3.956   5.908  12.490  0.0560  0.3815 -1.7190
14470TIP3    H264902   3.864   6.027  12.496  1.3645  1.3441  1.7973
14471TIP3   OH264903   6.288   0.599   0.504 -0.1137  0.1527 -0.1057
14471TIP3    H164904   6.205   0.641   0.526  0.3129  1.0384 -0.1188
14471TIP3    H264905   6.335   0.593   0.587 -0.5897 -1.2975  0.0833
14472TIP3   OH264906   2.022   4.787  12.805  0.3447  0.6369  0.6675
14472TIP3    H164907   2.032   4.859  12.867  2.6639  0.9112  0.0446
14472TIP3    H264908   2.075   4.716  12.841  0.1496  0.1227 -0.0303
14473TIP3   OH264909   3.349   0.381   4.557 -0.1084 -0.4833  0.1157
14473TIP3    H164910   3.419   0.445   4.543  0.0282 -0.7091 -0.2571
14473TIP3    H264911   3.389   0.297   4.534 -1.3002 -0.3472 -2.9800
14474TIP3   OH264912   0.435   1.942  15.941 -0.0579  0.5286  0.1320
14474TIP3    H164913   0.432   1.981  15.854  1.2550 -0.3460 -0.3297
14474TIP3    H264914   0.508   1.880  15.938 -0.1237  0.3127  1.7891
14475TIP3   OH264915   0.605   1.951  11.180  0.3630  0.1810  0.5137
14475TIP3    H164916   0.698   1.935  11.192  0.3967  1.7962  3.1574
14475TIP3    H264917   0.564   1.864  11.188  1.5873 -0.5338 -0.6559
14476TIP3   OH264918   5.508   2.195  17.064  0.1202 -0.0224  0.9074
14476TIP3    H164919   5.438   2.252  17.030 -1.0647 -2.6718 -1.5274
14476TIP3    H264920   5.466   2.145  17.134 -0.3617 -1.2352 -0.2006
14477TIP3   OH264921   3.947   2.099  14.427 -0.1442 -0.1032 -0.1978
14477TIP3    H164922   4.015   2.118  14.491 -0.9312  0.6119  0.4541
14477TIP3    H264923   3.987   2.119  14.342  0.9959 -1.3121  0.0256
14478TIP3   OH264924   3.491   6.353   4.170  0.1626 -0.4220 -0.6557
14478TIP3    H164925   3.511   6.441   4.139 -0.7289  0.3687  0.8823
14478TIP3    H264926   3.576   6.309   4.175  0.5732  0.1840 -1.8365
14479TIP3   OH264927   2.593   2.736   4.951 -0.4776  0.7139 -0.7122
14479TIP3    H164928   2.660   2.742   4.882  0.9873 -0.1645  0.5737
14479TIP3    H264929   2.561   2.646   4.945  0.6660  0.1789  0.5927
14480TIP3   OH264930   4.124   2.248  13.833  0.3802 -0.1378  0.6941
14480TIP3    H164931   4.115   2.277  13.742  0.0173 -1.3842  0.3204
14480TIP3    H264932   4.042   2.274  13.874  0.0848 -0.5603  0.3804
14481TIP3   OH264933   0.969   6.187  11.900  0.5502 -0.0569 -0.0499
14481TIP3    H164934   1.063   6.177  11.907  0.8921  1.3389 -1.8563
14481TIP3    H264935   0.956   6.247  11.826 -1.7892 -1.0127 -0.5149
14482TIP3   OH264936   0.451   6.376   2.996  0.0849  0.7226 -0.4946
14482TIP3    H164937   0.359   6.398   3.009 -0.4267 -1.4874  0.0087
14482TIP3    H264938   0.482   6.352   3.083  1.3345  1.9702 -0.5526
14483TIP3   OH264939   3.109   3.076  16.637  0.3380  0.3833  0.6687
14483TIP3    H164940   3.182   3.123  16.677 -0.2710  1.2383  0.7929
14483TIP3    H264941   3.137   2.984  16.637  1.7577  0.7876 -0.0441
14484TIP3   OH264942   5.110   5.134  16.661  0.0666 -0.4896 -0.4417
14484TIP3    H164943   5.203   5.124  16.679  0.0167 -0.6782 -0.2844
14484TIP3    H264944   5.095   5.229  16.663  0.3956 -0.4151 -1.1982
14485TIP3   OH264945   3.586   3.909   1.734  0.2407  0.6831 -0.5164
14485TIP3    H164946   3.658   3.972   1.729 -0.2105  1.1197 -2.7941
14485TIP3    H264947   3.511   3.957   1.699 -0.1067 -1.1058 -2.4022
14486TIP3   OH264948   1.632   1.544   4.853  0.6250 -0.0375 -0.8818
14486TIP3    H164949   1.551   1.546   4.906 -0.2694  1.2847 -2.2304
14486TIP3    H264950   1.690   1.607   4.896  1.3455 -1.6269  0.6115
14487TIP3   OH264951   0.382   6.831   0.508 -0.6962  0.0003  0.7170
14487TIP3    H164952   0.367   6.848   0.415 -3.4643  0.1824  1.1386
14487TIP3    H264953   0.438   6.753   0.509  0.1951  0.5619 -1.0768
14488TIP3   OH264954   6.366   0.564  14.941 -0.5409 -0.4255  0.2884
14488TIP3    H164955   6.303   0.619  14.987  0.3236  1.4264 -0.6482
14488TIP3    H264956   6.441   0.558  14.999 -1.3075 -2.2297  1.1905
14489TIP3   OH264957   2.813   2.598   3.988 -0.4093  0.3791 -0.0645
14489TIP3    H164958   2.847   2.558   3.909 -2.6479 -1.2793 -0.2839
14489TIP3    H264959   2.729   2.636   3.962 -1.4160 -0.5897  1.5729
14490TIP3   OH264960   1.372   2.988  13.556 -0.5961 -0.6947 -0.0537
14490TIP3    H164961   1.386   3.003  13.650 -0.2668  0.2601 -0.2434
14490TIP3    H264962   1.290   3.034  13.536  0.3954  0.9072 -0.6341
14491TIP3   OH264963   4.502   1.935   3.550 -0.6378 -0.0758 -0.0911
14491TIP3    H164964   4.555   1.970   3.621 -1.3545 -0.9030  0.8739
14491TIP3    H264965   4.509   2.000   3.480  3.2638 -1.0134 -0.8088
14492TIP3   OH264966   1.583   5.383  12.365 -0.4233  0.0735 -0.3458
14492TIP3    H164967   1.535   5.460  12.395  0.4977  0.6518 -0.3267
14492TIP3    H264968   1.675   5.406  12.376 -0.1293 -1.4222  0.6413
14493TIP3   OH264969   4.386   3.339  12.003 -0.3663 -0.3584  0.4194
14493TIP3    H164970   4.314   3.395  12.034 -1.7740 -1.5218 -0.5975
14493TIP3    H264971   4.364   3.252  12.035  0.8452 -0.6591  0.4549
14494TIP3   OH264972   1.175   6.410   3.919 -0.8152  0.1456 -0.5978
14494TIP3    H164973   1.215   6.373   3.840  2.3231 -0.2378  1.0422
14494TIP3    H264974   1.128   6.337   3.959  0.8695 -0.7262 -0.1451
14495TIP3   OH264975   6.091   2.817   5.484  0.8174  0.0135  0.3212
14495TIP3    H164976   6.168   2.870   5.503  0.3249  0.3057  1.5837
14495TIP3    H264977   6.043   2.814   5.566 -0.0652 -0.9257 -0.2052
14496TIP3   OH264978   1.911   4.285   5.882  0.3518  0.1248  0.6650
14496TIP3    H164979   1.847   4.290   5.810  0.4569  0.5959  0.5993
14496TIP3    H264980   1.932   4.192   5.889 -0.7531 -0.1101  1.0536
14497TIP3   OH264981   4.288   0.962  13.673  0.3430 -0.7109 -0.0733
14497TIP3    H164982   4.236   0.884  13.656 -1.2805 -0.3298  2.5851
14497TIP3    H264983   4.378   0.935  13.659 -0.2813 -2.6265 -0.6348
14498TIP3   OH264984   5.098   6.778   2.302 -0.1428  0.0761  0.0329
14498TIP3    H164985   5.149   6.700   2.325 -0.0507  0.0198 -0.3577
14498TIP3    H264986   5.016   6.743   2.269 -0.6052  0.1756  1.0473
14499TIP3   OH264987   5.215   5.167  14.932 -0.3039  0.2631 -0.0832
14499TIP3    H164988   5.175   5.130  15.010  0.2796  1.2222  0.6918
14499TIP3    H264989   5.308   5.172  14.952 -0.4891  3.6813  0.5813
14500TIP3   OH264990   4.908   5.241   5.803 -0.6163  0.2901  0.0079
14500TIP3    H164991   4.905   5.245   5.708  1.0694  0.3149 -0.0665
14500TIP3    H264992   4.932   5.150   5.823 -2.6105 -0.1923  0.5076
14501TIP3   OH264993   5.599   1.985   2.328 -0.5538 -0.1455 -0.2926
14501TIP3    H164994   5.522   2.037   2.307 -1.6188 -1.9280 -1.0066
14501TIP3    H264995   5.569   1.926   2.397  0.9905  0.9951  1.4435
14502TIP3   OH264996   6.352   1.336  12.057  0.2223 -0.0174 -0.2125
14502TIP3    H164997   6.259   1.357  12.047 -0.1146 -0.5741  1.4002
14502TIP3    H264998   6.367   1.266  11.994 -0.4257  0.1328 -0.5485
14503TIP3   OH264999   6.108   6.369  13.916 -0.0471 -0.0698 -0.3689
14503TIP3    H165000   6.196   6.351  13.950 -0.5323 -0.4178  0.7437
14503TIP3    H265001   6.054   6.297  13.949 -0.3259 -1.1874 -2.9555
14504TIP3   OH265002   0.192   5.842  13.276 -0.0096 -0.3032 -0.1204
14504TIP3    H165003   0.185   5.753  13.309  0.6184 -0.6288 -0.8439
14504TIP3    H265004   0.248   5.887  13.340 -0.4395 -0.3915  0.3146
14505TIP3   OH265005   0.957   5.732   3.371 -0.0921  1.0053 -0.0371
14505TIP3    H165006   0.990   5.685   3.295 -1.2496 -0.8520  0.5470
14505TIP3    H265007   0.968   5.671   3.444  0.6041  2.5772  1.2461
14506TIP3   OH265008   4.055   0.560   0.863 -0.2746 -0.2827 -0.3921
14506TIP3    H165009   4.086   0.579   0.951 -0.1074 -0.0231 -0.5066
14506TIP3    H265010   3.964   0.589   0.863 -0.4872 -0.9185 -0.0981
14507TIP3   OH265011   4.581   6.155   4.362 -0.1719 -0.9019  0.0951
14507TIP3    H165012   4.664   6.199   4.347  0.0986 -0.5841  2.1645
14507TIP3    H265013   4.544   6.199   4.439 -0.6809 -3.1258  1.2197
14508TIP3   OH265014   3.414   3.197   4.312  0.0876  0.0805  0.0647
14508TIP3    H165015   3.395   3.258   4.240  0.9029 -0.3859 -0.5584
14508TIP3    H265016   3.433   3.114   4.269  1.0300 -0.0923  0.7860
14509TIP3   OH265017   3.175   3.176  17.185 -0.2495 -0.1431  0.0505
14509TIP3    H165018   3.163   3.234  17.110  0.2456 -0.0262  0.0522
14509TIP3    H265019   3.267   3.150  17.181 -0.0148  0.4544  1.0306
14510TIP3   OH265020   6.777   5.244  16.817 -0.5026  0.2239 -0.0082
14510TIP3    H165021   6.715   5.253  16.746  0.1414  0.1268 -0.5919
14510TIP3    H265022   6.815   5.157  16.806  1.3395  1.1084 -0.9950
14511TIP3   OH265023   0.413   1.771  15.065  0.1932  0.8126  0.4056
14511TIP3    H165024   0.391   1.778  15.157 -0.2813  0.1579  0.3500
14511TIP3    H265025   0.338   1.727  15.025  0.7933  0.2348 -0.1216
14512TIP3   OH265026   5.723   1.262  13.477 -0.2486 -0.4769  0.0788
14512TIP3    H165027   5.637   1.246  13.515  0.1959 -2.0594  0.4720
14512TIP3    H265028   5.744   1.182  13.429  0.6265  0.2314 -0.7587
14513TIP3   OH265029   3.103   1.717   2.939 -0.2464 -0.1650 -0.1863
14513TIP3    H165030   3.191   1.755   2.938 -0.3319  0.2592  2.3514
14513TIP3    H265031   3.063   1.752   3.018 -1.9294 -2.0673 -0.1312
14514TIP3   OH265032   6.599   1.040  15.084 -0.1746 -0.2573 -0.0045
14514TIP3    H165033   6.512   1.014  15.054  0.4956 -1.5964 -0.9280
14514TIP3    H265034   6.656   1.020  15.009  1.0433 -0.2134  0.8913
14515TIP3   OH265035   5.640   6.556   4.835  0.3290  0.2892  0.8819
14515TIP3    H165036   5.637   6.511   4.920 -0.0811 -2.0782 -0.3160
14515TIP3    H265037   5.694   6.501   4.780 -2.1670 -0.1287 -1.3714
14516TIP3   OH265038   3.669   3.448   1.107  0.0074 -0.1928 -0.1513
14516TIP3    H165039   3.676   3.509   1.181  1.5901 -0.2801 -0.1947
14516TIP3    H265040   3.585   3.405   1.119 -0.3366  0.7244  0.8754
14517TIP3   OH265041   1.611   2.629  13.514 -0.0372  0.1279  0.0971
14517TIP3    H165042   1.527   2.596  13.481  1.2004 -2.6938 -0.4209
14517TIP3    H265043   1.628   2.576  13.592  0.6428  1.6566  1.0279
14518TIP3   OH265044   1.842   3.524   0.174 -0.2464 -0.2839  0.3372
14518TIP3    H165045   1.879   3.452   0.226 -0.9518 -1.8898 -1.2838
14518TIP3    H265046   1.750   3.526   0.200 -0.0107  0.8243  1.1836
14519TIP3   OH265047   1.463   0.390  14.425 -0.2894 -0.3681 -0.1654
14519TIP3    H165048   1.394   0.456  14.428 -0.6441 -0.7688  1.3064
14519TIP3    H265049   1.544   0.439  14.440 -0.5890 -0.2913  1.2855
14520TIP3   OH265050   2.325   1.795  12.816 -0.8155  0.3094  0.3222
14520TIP3    H165051   2.394   1.849  12.776 -1.6045 -0.4709 -2.2986
14520TIP3    H265052   2.259   1.858  12.844 -0.6339  0.8591 -0.4423
14521TIP3   OH265053   1.522   2.882  13.370 -0.4260  0.2696 -0.0606
14521TIP3    H165054   1.463   2.911  13.439 -1.2020 -1.5824  0.0968
14521TIP3    H265055   1.599   2.848  13.417 -0.7897 -0.6313 -0.0920
14522TIP3   OH265056   2.698   2.839  12.216  0.4842 -0.0066  0.1501
14522TIP3    H165057   2.688   2.815  12.308  0.1439  0.1848  0.1634
14522TIP3    H265058   2.777   2.794  12.188 -0.7528 -2.1488 -0.1498
14523TIP3   OH265059   3.033   0.408  12.211 -0.2509  0.5670 -0.0572
14523TIP3    H165060   3.013   0.403  12.305  1.0148 -3.3823  0.1791
14523TIP3    H265061   3.125   0.433  12.208 -0.2673  0.6044 -0.2240
14524TIP3   OH265062   3.369   5.357  17.057  0.1568  0.0584  0.7305
14524TIP3    H165063   3.359   5.279  17.111  1.1055 -0.3062  0.4017
14524TIP3    H265064   3.324   5.426  17.106 -1.7460 -0.9343  0.4465
14525TIP3   OH265065   4.283   4.697   5.558 -0.3315  0.6449  0.2763
14525TIP3    H165066   4.262   4.666   5.470  2.7959  0.1506 -0.4348
14525TIP3    H265067   4.206   4.747   5.585 -1.3644  0.9297 -2.7596
14526TIP3   OH265068   2.498   3.044  13.422 -0.0463  0.3703 -0.2722
14526TIP3    H165069   2.493   2.959  13.464 -0.6710  0.3193 -0.4480
14526TIP3    H265070   2.489   3.107  13.494  3.8872  0.4010  0.4276
14527TIP3   OH265071   6.736   0.498  12.598  0.1749 -0.2129 -0.6380
14527TIP3    H165072   6.724   0.447  12.517 -0.4929  1.0395 -1.3559
14527TIP3    H265073   6.812   0.553  12.581 -0.1447  0.2676 -0.5426
14528TIP3   OH265074   5.911   2.429   0.854  0.1898 -0.1064  0.4845
14528TIP3    H165075   5.933   2.436   0.761 -1.3092 -0.4563  0.0718
14528TIP3    H265076   5.995   2.422   0.899  0.8867 -2.3542 -1.0454
14529TIP3   OH265077   1.523   4.275   2.763  0.4721  0.4816  0.3063
14529TIP3    H165078   1.552   4.206   2.704  1.0350  0.8049  0.2021
14529TIP3    H265079   1.570   4.260   2.845  0.7214  0.8288  0.2326
14530TIP3   OH265080   4.742   6.682  15.215  0.7044 -0.2983 -0.0649
14530TIP3    H165081   4.671   6.671  15.152 -0.2755  1.2586  0.6821
14530TIP3    H265082   4.817   6.710  15.163 -0.2206  1.4456 -0.5481
14531TIP3   OH265083   4.469   1.741  11.492 -0.0490 -0.2373  0.2677
14531TIP3    H165084   4.499   1.789  11.415 -0.3686  0.7343  0.7305
14531TIP3    H265085   4.392   1.693  11.462 -0.7050  0.8327  0.1833
14532TIP3   OH265086   3.334   6.256   1.815 -0.3206 -0.0727  0.9425
14532TIP3    H165087   3.264   6.295   1.763  0.9392 -0.0420 -0.8209
14532TIP3    H265088   3.347   6.169   1.776 -0.8311 -0.9503  2.6640
14533TIP3   OH265089   2.984   4.892   0.856  0.0388 -0.1499  0.1362
14533TIP3    H165090   3.068   4.925   0.824  0.0521 -1.2083 -0.9789
14533TIP3    H265091   3.000   4.872   0.948  1.0223 -0.3522 -0.0651
14534TIP3   OH265092   0.518   3.937   3.080 -0.2393 -0.0179 -0.1363
14534TIP3    H165093   0.536   3.966   3.170 -0.5799 -1.1329  0.3158
14534TIP3    H265094   0.575   3.860   3.069  2.1126  1.8382 -1.9721
14535TIP3   OH265095   0.686   0.954   3.740  0.1020  0.0057  0.0444
14535TIP3    H165096   0.642   1.022   3.791 -1.0627 -0.3707 -0.4301
14535TIP3    H265097   0.668   0.873   3.788  2.3457  0.0957  1.1807
14536TIP3   OH265098   5.376   3.218  14.279  0.0141 -0.4721  0.4006
14536TIP3    H165099   5.291   3.194  14.315 -0.8889 -1.3718 -2.1220
14536TIP3    H265100   5.377   3.313  14.280 -1.4510 -0.4326 -0.4171
14537TIP3   OH265101   4.742   5.942   4.989 -0.1786  0.1431 -0.2661
14537TIP3    H165102   4.823   5.906   5.026 -1.1834 -2.8953 -0.7638
14537TIP3    H265103   4.682   5.947   5.063  0.3663  2.4662  0.1167
14538TIP3   OH265104   2.056   6.049  14.556 -0.3880  0.5082  0.6523
14538TIP3    H165105   2.013   5.964  14.560 -0.6180  0.6623  1.8575
14538TIP3    H265106   2.121   6.047  14.626  0.3797  0.9186 -0.0319
14539TIP3   OH265107   3.162   6.308   2.145 -0.1698 -0.0094 -1.2533
14539TIP3    H165108   3.123   6.230   2.185  1.2013 -0.8963 -1.5851
14539TIP3    H265109   3.141   6.379   2.205  0.9812 -1.1340  0.5592
14540TIP3   OH265110   4.117   4.319   6.600  0.0448  0.3972  0.7306
14540TIP3    H165111   4.084   4.404   6.570  1.3650  0.7178  0.1179
14540TIP3    H265112   4.161   4.282   6.523 -0.6707 -0.9318  0.9378
14541TIP3   OH265113   1.679   4.997   2.947 -0.0392 -0.6229 -0.4557
14541TIP3    H165114   1.592   5.003   2.907 -1.1829  0.2992  1.9840
14541TIP3    H265115   1.738   5.038   2.883 -1.9002  1.6565 -0.8202
14542TIP3   OH265116   5.647   1.748   0.315 -0.2848  0.0713 -0.3763
14542TIP3    H165117   5.652   1.822   0.376 -2.7876  0.1186 -0.1470
14542TIP3    H265118   5.715   1.688   0.345 -0.3175  0.8610  1.4103
14543TIP3   OH265119   0.521   0.744   3.582 -0.7288  0.2343 -0.2972
14543TIP3    H165120   0.599   0.767   3.633 -1.4660 -0.5281  1.2251
14543TIP3    H265121   0.539   0.779   3.495  0.4908  1.7752  0.5104
14544TIP3   OH265122   4.433   1.357  12.510  0.1513  0.4752 -0.7171
14544TIP3    H165123   4.510   1.323  12.556 -0.2992  1.3853  0.8080
14544TIP3    H265124   4.380   1.280  12.492 -0.8044  0.2011  2.5766
14545TIP3   OH265125   0.006   5.354  16.379  0.2432  0.5131  0.1014
14545TIP3    H165126  -0.011   5.383  16.290  0.2103  0.0310 -0.0518
14545TIP3    H265127   0.094   5.386  16.398  1.1670 -1.2504 -0.9196
14546TIP3   OH265128   3.039   2.657  14.343  1.0551  0.2940 -0.8400
14546TIP3    H165129   2.951   2.620  14.329  1.8804 -1.4719 -1.6900
14546TIP3    H265130   3.023   2.750  14.358 -0.9141  0.1686 -1.7495
14547TIP3   OH265131   1.810   3.002   5.770  0.3254 -0.1838 -0.0546
14547TIP3    H165132   1.815   2.911   5.798  2.2144  0.2794  1.2966
14547TIP3    H265133   1.752   3.001   5.694  0.5599 -2.5544 -0.2566
14548TIP3   OH265134   0.958   2.324   1.110  0.6150  0.0786 -0.3746
14548TIP3    H165135   0.903   2.251   1.083  1.0537  0.2342 -1.7779
14548TIP3    H265136   0.955   2.322   1.205 -0.4055 -0.9772 -0.4033
14549TIP3   OH265137   4.885   2.127  11.402  0.4894  0.3800 -0.0792
14549TIP3    H165138   4.853   2.167  11.322 -1.2372  0.7157  0.7376
14549TIP3    H265139   4.957   2.183  11.431 -1.2046  2.3990  0.4922
14550TIP3   OH265140   2.709   3.524   0.631  0.3892  1.0176  0.1309
14550TIP3    H165141   2.759   3.457   0.584 -1.0163  0.4881 -0.6798
14550TIP3    H265142   2.672   3.478   0.707  2.0791  1.7022  1.4135
14551TIP3   OH265143   0.978   4.804  15.253 -0.2147  0.0355 -0.2355
14551TIP3    H165144   1.008   4.894  15.240 -0.7453  0.2287 -0.1503
14551TIP3    H265145   1.042   4.766  15.314 -1.4448  1.1650  1.8571
14552TIP3   OH265146   2.750   0.160  11.485 -0.1417  0.4419  0.1491
14552TIP3    H165147   2.738   0.251  11.457  1.5261  0.4657 -0.6242
14552TIP3    H265148   2.701   0.108  11.421 -0.8845  0.7590  0.4432
14553TIP3   OH265149   1.366   5.065   3.948 -0.2617  0.3198 -0.7393
14553TIP3    H165150   1.300   4.996   3.939 -0.3427  0.3729 -0.5703
14553TIP3    H265151   1.448   5.023   3.925 -0.0890 -0.2513  0.7722
14554TIP3   OH265152   4.144   0.523   1.414 -0.6401  0.3400  0.0616
14554TIP3    H165153   4.207   0.489   1.477  1.4157  3.8850  0.1930
14554TIP3    H265154   4.089   0.583   1.466 -0.8012  1.1086 -0.9711
14555TIP3   OH265155   1.224   3.434   4.472  0.7280 -0.4744  0.8252
14555TIP3    H165156   1.243   3.347   4.437 -0.2225 -0.9086  1.3513
14555TIP3    H265157   1.151   3.420   4.532 -0.5563  0.9650 -0.3424
14556TIP3   OH265158   0.452   4.451   2.930  0.0319 -0.4232 -0.3036
14556TIP3    H165159   0.506   4.406   2.865 -0.0696 -1.6405  0.4464
14556TIP3    H265160   0.504   4.528   2.954  0.7621 -0.7891 -0.6845
14557TIP3   OH265161   4.081   1.444  12.555  0.7993  0.0164 -0.5399
14557TIP3    H165162   4.112   1.443  12.465  0.3216 -0.5715 -0.7036
14557TIP3    H265163   3.996   1.486  12.551  0.7626 -0.0405 -0.3696
14558TIP3   OH265164   4.770   0.840   1.818 -0.0305 -0.0269  0.6093
14558TIP3    H165165   4.854   0.872   1.851  0.9380 -0.4659 -1.2852
14558TIP3    H265166   4.705   0.893   1.863  1.3231  1.4873  0.8748
14559TIP3   OH265167   1.202   6.570   1.505  0.6954 -0.2618  0.3473
14559TIP3    H165168   1.107   6.570   1.509  0.7236 -0.8985  2.2106
14559TIP3    H265169   1.227   6.478   1.518  1.5623 -0.4238 -1.9907
14560TIP3   OH265170   1.134   2.562  13.859 -0.5901  0.3499  0.0382
14560TIP3    H165171   1.096   2.608  13.785 -0.9099  1.6071  0.9567
14560TIP3    H265172   1.103   2.472  13.850 -1.9115  0.8391 -0.4892
14561TIP3   OH265173   4.996   2.470   3.213 -0.0078  0.0169 -0.1757
14561TIP3    H165174   4.958   2.460   3.300 -1.9579 -3.1943 -1.2280
14561TIP3    H265175   5.075   2.415   3.214  0.8782  1.2392 -0.0339
14562TIP3   OH265176   2.015   3.483   5.931 -0.2803 -0.6115  0.0255
14562TIP3    H165177   2.016   3.389   5.912  2.3527 -0.3886 -1.3594
14562TIP3    H265178   2.106   3.511   5.924 -0.9474  2.0451  0.5780
14563TIP3   OH265179   3.058   6.588   4.862 -0.3335 -0.1328  0.8628
14563TIP3    H165180   3.125   6.561   4.925  1.0334  0.2452 -0.3707
14563TIP3    H265181   3.086   6.676   4.834 -0.4783 -0.5798 -0.7951
14564TIP3   OH265182   5.862   4.997   1.623 -0.6485  0.2553  0.8455
14564TIP3    H165183   5.818   4.986   1.708 -1.3801  1.1081  0.5895
14564TIP3    H265184   5.796   4.969   1.559  0.4648 -2.0456  0.5838
14565TIP3   OH265185   0.944   4.193  11.047  0.5229 -0.2068 -0.5631
14565TIP3    H165186   1.001   4.267  11.066  3.4201 -2.4772  0.3227
14565TIP3    H265187   0.896   4.219  10.969  1.7175  2.4078 -0.5242
14566TIP3   OH265188   3.421   1.220   0.980  0.3937  0.7155  0.1020
14566TIP3    H165189   3.390   1.163   0.910  1.0589 -0.4353  0.7271
14566TIP3    H265190   3.374   1.192   1.058 -0.4828  2.1198  0.1058
14567TIP3   OH265191   1.079   6.625   0.772  0.0389 -0.2860 -0.8236
14567TIP3    H165192   1.157   6.594   0.818  0.3849  1.6082 -0.0495
14567TIP3    H265193   1.110   6.652   0.686  0.0010 -0.6972 -0.9680
14568TIP3   OH265194   6.398   3.841  12.627 -0.2674 -0.0497  0.0824
14568TIP3    H165195   6.311   3.871  12.653 -0.2753  0.9528 -1.0058
14568TIP3    H265196   6.439   3.919  12.589  0.4310 -0.9672 -1.1033
14569TIP3   OH265197   4.821   3.339   2.505 -0.1027 -0.2094  0.1974
14569TIP3    H165198   4.783   3.386   2.431  0.1988  0.2966  0.3619
14569TIP3    H265199   4.800   3.393   2.582 -0.9619 -1.0452  0.5674
14570TIP3   OH265200   2.881   5.523  16.412  0.8102  0.2418 -0.2612
14570TIP3    H165201   2.814   5.586  16.438 -0.2267 -0.8955 -0.1006
14570TIP3    H265202   2.964   5.570  16.423  0.0565  1.6587 -0.4146
14571TIP3   OH265203   2.139   3.113  16.418  0.2223  0.1810 -0.5050
14571TIP3    H165204   2.189   3.039  16.453 -0.3776 -0.4287 -0.9124
14571TIP3    H265205   2.188   3.190  16.447 -0.0455 -0.2952  1.3513
14572TIP3   OH265206   3.419   1.410  15.922 -0.5073  0.5365  0.1191
14572TIP3    H165207   3.440   1.485  15.865 -1.0004  0.7456  0.2050
14572TIP3    H265208   3.355   1.445  15.984  0.5917  0.5213  1.3064
14573TIP3   OH265209   4.568   2.803   2.006 -0.7426  0.6298 -0.5094
14573TIP3    H165210   4.609   2.771   2.087 -0.2596 -1.6671 -1.6002
14573TIP3    H265211   4.558   2.898   2.021 -0.1721  0.3757  2.0016
14574TIP3   OH265212   4.541   6.125  15.147 -0.4404 -0.5408  0.4553
14574TIP3    H165213   4.515   6.069  15.074 -0.7824 -0.5397  0.5767
14574TIP3    H265214   4.598   6.069  15.200  0.3963 -0.3202 -0.1882
14575TIP3   OH265215   6.276   5.461   4.293  0.0510 -0.7968 -0.8057
14575TIP3    H165216   6.366   5.459   4.325 -0.8002 -0.3271  1.9712
14575TIP3    H265217   6.281   5.431   4.202  2.9290 -1.0906 -0.6386
14576TIP3   OH265218   1.159   5.902   2.187  0.3062 -0.6403  0.3291
14576TIP3    H165219   1.122   5.987   2.210  1.5992  0.2629 -0.7906
14576TIP3    H265220   1.090   5.859   2.137 -0.7272 -0.6977  1.7129
14577TIP3   OH265221   6.568   4.447  16.550  0.2676 -0.0181 -0.0032
14577TIP3    H165222   6.549   4.468  16.641  2.1396  1.1731  0.1730
14577TIP3    H265223   6.600   4.357  16.553  1.2835  0.3435  0.6981
14578TIP3   OH265224   2.134   2.119  11.193  0.1421  0.3317  0.1492
14578TIP3    H165225   2.040   2.100  11.193  0.5511 -1.9694 -0.7143
14578TIP3    H265226   2.166   2.082  11.110  1.4794  3.1305 -0.7151
14579TIP3   OH265227   4.279   1.798  11.199 -0.5290  0.4576 -0.1629
14579TIP3    H165228   4.288   1.779  11.105 -0.6337  0.3961 -0.1606
14579TIP3    H265229   4.362   1.840  11.222  1.2022 -2.9437  0.5354
14580TIP3   OH265230   0.328   0.110  12.478  0.5742 -0.9961  0.1082
14580TIP3    H165231   0.370   0.099  12.563 -0.2590  0.3847  0.7409
14580TIP3    H265232   0.239   0.138  12.499  0.2892 -0.8392 -1.2223
14581TIP3   OH265233   6.649   5.013  10.309 -0.1630 -0.0408 -0.3516
14581TIP3    H165234   6.608   5.023  10.394 -0.8374  1.7591 -0.8488
14581TIP3    H265235   6.580   5.033  10.246 -0.1069 -2.8262 -1.4245
14582TIP3   OH265236   4.584   4.994  15.638  0.4865 -0.6206 -0.1300
14582TIP3    H165237   4.661   5.017  15.586  0.4928 -1.4737 -0.5224
14582TIP3    H265238   4.606   4.909  15.677 -0.1707 -0.7774 -0.0850
14583TIP3   OH265239   5.990   5.722   2.883 -0.1575  0.5430  0.0441
14583TIP3    H165240   6.045   5.782   2.833  0.7370 -0.8047 -0.6649
14583TIP3    H265241   5.952   5.663   2.817  0.3385 -0.7179  0.8429
14584TIP3   OH265242   3.984   5.463   5.850  0.1893  0.1715 -0.2549
14584TIP3    H165243   4.022   5.450   5.937 -0.7358  0.6094  0.2202
14584TIP3    H265244   3.902   5.413   5.852  1.3895 -2.0296 -1.7815
14585TIP3   OH265245   4.847   4.795  17.052 -0.1538 -0.1437 -0.1393
14585TIP3    H165246   4.804   4.710  17.044  0.5436 -0.6469  1.1694
14585TIP3    H265247   4.845   4.831  16.963  1.5678 -2.5525 -1.2869
14586TIP3   OH265248   2.147   6.338  13.762  0.1299 -0.0741 -0.2685
14586TIP3    H165249   2.108   6.392  13.832 -3.4068 -1.6837 -0.7642
14586TIP3    H265250   2.103   6.367  13.682 -0.9147 -2.6641 -0.7339
14587TIP3   OH265251   4.407   5.162   2.124  0.1447  0.1230  0.1686
14587TIP3    H165252   4.380   5.137   2.212  0.6908  0.2965  0.3887
14587TIP3    H265253   4.326   5.184   2.079 -0.1000  0.3807  0.7352
14588TIP3   OH265254   0.065   2.477  16.871  0.3923 -0.2990 -0.0440
14588TIP3    H165255   0.040   2.569  16.868 -1.2884 -0.7348 -0.2872
14588TIP3    H265256   0.083   2.460  16.963  1.0158  0.3424 -0.0426
14589TIP3   OH265257   4.878   1.465   4.879  0.1750  0.3158 -0.5109
14589TIP3    H165258   4.835   1.544   4.913 -1.4979 -0.7709 -0.0175
14589TIP3    H265259   4.873   1.475   4.784 -2.4371 -0.3580 -0.5265
14590TIP3   OH265260   5.550   3.144  14.966  0.3024  0.6732 -0.2556
14590TIP3    H165261   5.463   3.112  14.993  0.7459 -0.0247  0.3779
14590TIP3    H265262   5.534   3.187  14.882 -1.0488  2.5095  0.8770
14591TIP3   OH265263   2.867   3.585  14.417  0.3142  0.0913  0.1725
14591TIP3    H165264   2.869   3.671  14.375  3.4623  0.8843  1.5862
14591TIP3    H265265   2.915   3.528  14.356 -0.2883 -0.2420  0.0091
14592TIP3   OH265266   6.471   3.804   6.046 -0.2867 -0.0433 -0.3793
14592TIP3    H165267   6.492   3.808   6.139 -0.8086  0.0662 -0.2662
14592TIP3    H265268   6.507   3.720   6.018 -1.5157 -0.8155  0.2751
14593TIP3   OH265269   2.241   4.412  15.087  0.6047  0.1636  0.1777
14593TIP3    H165270   2.273   4.472  15.154 -0.2850  2.4036 -1.2610
14593TIP3    H265271   2.264   4.454  15.004  0.6454 -1.9261 -0.9471
14594TIP3   OH265272   4.595   5.556   1.082  0.1663  0.0263  0.1828
14594TIP3    H165273   4.580   5.614   1.157  0.4703 -0.6006  0.7315
14594TIP3    H265274   4.609   5.616   1.008  0.8077  0.6569  0.8033
14595TIP3   OH265275   6.787   3.019   3.194 -1.2544  0.7615 -0.4255
14595TIP3    H165276   6.762   3.034   3.286  0.4732  0.0129  0.2169
14595TIP3    H265277   6.803   2.924   3.190 -2.4814  0.5895 -1.8345
14596TIP3   OH265278   0.473   4.288   6.473  0.1031  0.5423 -0.3589
14596TIP3    H165279   0.529   4.323   6.542 -1.0332  0.9603  0.3633
14596TIP3    H265280   0.522   4.213   6.439 -0.2313 -1.0094  2.3367
14597TIP3   OH265281   6.432   1.157   0.321  0.1400  0.0311 -0.0503
14597TIP3    H165282   6.422   1.103   0.243 -0.7104  0.1773 -0.0527
14597TIP3    H265283   6.346   1.156   0.362 -0.2013  2.2159 -0.5857
14598TIP3   OH265284   0.723   6.696   5.037 -0.3056  0.8151 -0.5254
14598TIP3    H165285   0.663   6.642   4.986 -0.7539 -0.3519  1.1375
14598TIP3    H265286   0.665   6.746   5.095  0.1423  2.6575 -1.5916
14599TIP3   OH265287   6.471   1.960  11.609  0.4243 -0.3219 -0.1840
14599TIP3    H165288   6.463   1.886  11.549  0.3291 -0.2897 -0.2107
14599TIP3    H265289   6.411   2.026  11.574  0.3688 -0.3029 -0.0530
14600TIP3   OH265290   1.353   0.295   3.561  0.0141  0.3397 -0.9189
14600TIP3    H165291   1.259   0.289   3.545 -0.3166 -0.2292  0.9820
14600TIP3    H265292   1.371   0.389   3.566 -0.5728  0.4466 -0.7141
14601TIP3   OH265293   3.528   1.255  13.127  0.6057  0.0530  0.6277
14601TIP3    H165294   3.462   1.301  13.179 -0.5081 -2.2828  1.4254
14601TIP3    H265295   3.599   1.318  13.117 -1.3843  2.4049  0.4045
14602TIP3   OH265296   2.693   3.200  11.576 -0.1785  0.3913 -0.4071
14602TIP3    H165297   2.653   3.118  11.606  1.4465 -0.8129 -1.3604
14602TIP3    H265298   2.638   3.226  11.502 -0.7884  0.2308 -0.0175
14603TIP3   OH265299   6.702   5.808  11.312  0.0254  0.0117 -0.3396
14603TIP3    H165300   6.706   5.813  11.408  1.2309  0.4646 -0.3950
14603TIP3    H265301   6.661   5.891  11.286  1.5660  0.8325 -0.2863
14604TIP3   OH265302   5.902   0.116  14.513  0.7113 -0.4181 -0.4102
14604TIP3    H165303   5.998   0.120  14.508  0.7178 -0.9065 -0.7671
14604TIP3    H265304   5.879   0.042  14.458  0.1791 -0.8298  0.3479
14605TIP3   OH265305   3.016   3.201  14.492 -0.2158 -0.0613  0.5607
14605TIP3    H165306   3.090   3.256  14.516  0.3576 -1.7412  3.0642
14605TIP3    H265307   2.939   3.254  14.510  0.3492  0.7507  0.6028
14606TIP3   OH265308   3.848   1.787  16.057  0.3458  0.3614  0.0076
14606TIP3    H165309   3.895   1.735  16.123 -1.7406 -0.0465  1.2454
14606TIP3    H265310   3.905   1.783  15.980  1.6209 -1.3671  0.9406
14607TIP3   OH265311   4.156   0.631   5.758 -0.9696  0.1509  0.3091
14607TIP3    H165312   4.141   0.643   5.852  0.1183 -0.0127  0.5174
14607TIP3    H265313   4.244   0.664   5.744 -0.3727 -1.6158 -0.2803
14608TIP3   OH265314   3.873   4.206  12.302 -0.1128 -0.1268 -0.6119
14608TIP3    H165315   3.815   4.266  12.255 -0.2942  0.2071  0.0288
14608TIP3    H265316   3.926   4.165  12.233  0.5846  1.3681 -0.9991
14609TIP3   OH265317   3.767   3.469   0.840 -0.0939 -0.1250 -0.1707
14609TIP3    H165318   3.674   3.451   0.826 -0.0920 -0.5819  0.3939
14609TIP3    H265319   3.774   3.490   0.934  0.3928 -0.2054 -0.1858
14610TIP3   OH265320   1.349   2.972  16.087  0.4541  0.7853  0.2616
14610TIP3    H165321   1.290   2.913  16.040  0.3728  1.4850 -0.5395
14610TIP3    H265322   1.324   2.963  16.179 -1.6848  1.8778 -0.1460
14611TIP3   OH265323   3.203   1.187   0.070 -0.4507 -0.0820  0.3018
14611TIP3    H165324   3.165   1.251   0.010 -1.1785 -0.1301  0.6997
14611TIP3    H265325   3.289   1.167   0.033 -0.3155  0.9405  0.0450
14612TIP3   OH265326   0.260   5.426   4.452  0.0709 -0.7862  0.0026
14612TIP3    H165327   0.236   5.460   4.539  2.1654  0.0230  0.3191
14612TIP3    H265328   0.216   5.485   4.391  0.7558  0.3195  0.5468
14613TIP3   OH265329   0.959   4.387   1.033 -0.8203  0.4215 -0.2197
14613TIP3    H165330   0.906   4.419   0.960 -2.8484 -0.7673  0.6343
14613TIP3    H265331   0.996   4.304   1.002  1.9017  1.9450 -1.3440
14614TIP3   OH265332   6.022   3.709   2.363  0.1409 -0.5532 -0.4020
14614TIP3    H165333   6.038   3.771   2.433 -0.5604 -0.1733 -0.5636
14614TIP3    H265334   5.927   3.698   2.362  0.2334 -1.4986 -0.4885
14615TIP3   OH265335   3.233   3.731   4.108  0.5440  0.0268  0.1957
14615TIP3    H165336   3.311   3.729   4.053 -0.5004  1.4086 -1.4362
14615TIP3    H265337   3.195   3.644   4.101  1.7205 -0.5471  0.7329
14616TIP3   OH265338   0.816   1.036   4.081 -0.2948  0.4204  0.1905
14616TIP3    H165339   0.883   1.102   4.062 -0.5547  0.7017  0.2256
14616TIP3    H265340   0.769   1.071   4.157 -0.8894  0.5440 -0.2198
14617TIP3   OH265341   1.162   2.104   1.261  0.0719  0.3645  0.1980
14617TIP3    H165342   1.250   2.091   1.225 -0.4867  0.5073 -1.2933
14617TIP3    H265343   1.171   2.179   1.319  0.7848  0.8785 -0.5513
14618TIP3   OH265344   3.327   4.037   2.009 -0.0772 -0.0063 -0.4821
14618TIP3    H165345   3.281   3.994   1.937 -0.0956  0.7307 -0.9233
14618TIP3    H265346   3.299   4.129   2.003  0.2310  0.1357  0.2185
14619TIP3   OH265347   5.242   5.352  11.990  0.3782 -0.0550  0.0045
14619TIP3    H165348   5.280   5.317  11.909 -1.7080 -0.2724 -0.9508
14619TIP3    H265349   5.303   5.420  12.018  1.3307 -0.2193 -1.5577
14620TIP3   OH265350   1.047   0.802   5.230  0.1769  0.8718  0.4523
14620TIP3    H165351   0.962   0.844   5.240  0.8536  2.2442  0.7558
14620TIP3    H265352   1.083   0.800   5.319  2.1472  4.1315 -0.1010
14621TIP3   OH265353   1.790   6.814  13.939  0.1412  0.2224  0.1855
14621TIP3    H165354   1.875   6.788  13.975 -1.1097 -3.0991  1.1034
14621TIP3    H265355   1.734   6.824  14.016 -0.4085  2.3322 -0.4140
14622TIP3   OH265356   4.408   1.286  16.363  0.3290  0.2684 -0.1717
14622TIP3    H165357   4.398   1.207  16.417  0.0793 -0.3520 -1.0930
14622TIP3    H265358   4.365   1.263  16.280  0.1514  1.4240 -0.4051
14623TIP3   OH265359   1.743   2.513  15.937 -0.7739 -0.5684  0.0131
14623TIP3    H165360   1.676   2.551  15.994 -0.7164  0.3720 -0.5209
14623TIP3    H265361   1.698   2.496  15.855 -0.3917  0.0231 -0.3337
14624TIP3   OH265362   2.693   4.187  14.622  0.2422  0.2691 -0.0128
14624TIP3    H165363   2.641   4.197  14.542 -0.3292 -2.5971 -0.1196
14624TIP3    H265364   2.632   4.208  14.693  0.4856  1.9192 -0.2572
14625TIP3   OH265365   2.282   0.156   6.062 -0.1953  0.0321  0.0910
14625TIP3    H165366   2.302   0.093   6.131  0.9901  0.7762  0.4531
14625TIP3    H265367   2.279   0.241   6.107 -2.1352  0.2268 -0.3213
14626TIP3   OH265368   4.448   5.555   5.720  0.3175 -0.1275 -0.0980
14626TIP3    H165369   4.353   5.549   5.733  0.2109  1.8095  0.2717
14626TIP3    H265370   4.458   5.616   5.647  1.2713 -1.4086 -1.0813
14627TIP3   OH265371   1.298   3.848   4.138 -0.1681  0.6201  0.5287
14627TIP3    H165372   1.290   3.849   4.043  2.1989  0.8376  0.2820
14627TIP3    H265373   1.288   3.756   4.163  0.7271  0.3421 -0.1083
14628TIP3   OH265374   4.901   4.935   0.404  0.0061  0.8278  0.0863
14628TIP3    H165375   4.873   5.018   0.367  1.3446  1.5177  0.5364
14628TIP3    H265376   4.979   4.957   0.456 -0.2001 -0.5444  1.0382
14629TIP3   OH265377   1.716   4.320  12.700  0.1332  0.1548  0.3959
14629TIP3    H165378   1.781   4.252  12.683  0.7729  1.3125 -2.0777
14629TIP3    H265379   1.767   4.398  12.722 -0.5932 -0.0005  2.9645
14630TIP3   OH265380   3.770   4.244   0.955  0.2948  0.5462 -0.3018
14630TIP3    H165381   3.703   4.226   1.021 -0.8510 -0.9490 -1.7697
14630TIP3    H265382   3.760   4.173   0.891  0.8478  2.3256 -2.4769
14631TIP3   OH265383   4.175   6.103  10.673  0.0236  0.2596  0.2312
14631TIP3    H165384   4.128   6.028  10.710  0.2493 -0.3057 -0.6157
14631TIP3    H265385   4.123   6.179  10.700 -1.0268 -0.3023 -0.1300
14632TIP3   OH265386   3.563   2.009  13.631  0.1332  0.0966  0.0100
14632TIP3    H165387   3.578   1.917  13.610  0.3436  0.3778 -1.1442
14632TIP3    H265388   3.482   2.031  13.585 -1.3794 -0.1754  2.3949
14633TIP3   OH265389   5.631   0.233   2.653 -0.3474 -0.1586  0.4728
14633TIP3    H165390   5.633   0.319   2.610 -1.4442 -1.0198 -1.4623
14633TIP3    H265391   5.595   0.250   2.739 -1.5029  1.2134 -0.2369
14634TIP3   OH265392   4.523   4.115  16.466 -0.3388  0.4364  0.1525
14634TIP3    H165393   4.575   4.195  16.455 -0.6947  0.4631 -1.5706
14634TIP3    H265394   4.457   4.138  16.531 -1.4548  2.1075 -1.4774
14635TIP3   OH265395   2.067   4.610   0.022  0.2688 -0.3730  0.0122
14635TIP3    H165396   2.146   4.661   0.038  0.7061 -0.9100 -0.3807
14635TIP3    H265397   2.099   4.523  -0.004 -0.4429 -0.5474 -0.3193
14636TIP3   OH265398   1.993   5.430   5.108  0.1047  0.1868 -0.3235
14636TIP3    H165399   2.057   5.491   5.144 -0.1092  0.1897  0.0581
14636TIP3    H265400   1.978   5.367   5.178 -0.5802  0.3918 -0.2787
14637TIP3   OH265401   3.996   4.454   2.713 -0.1112 -0.9811  0.2121
14637TIP3    H165402   3.919   4.405   2.680 -0.8028  0.0064  0.3210
14637TIP3    H265403   4.063   4.440   2.646 -0.5874 -1.3431 -0.2026
14638TIP3   OH265404   5.143   3.934   4.884  0.1653  0.1605 -0.2799
14638TIP3    H165405   5.209   4.000   4.862 -0.7219  1.4738  0.8392
14638TIP3    H265406   5.064   3.985   4.905 -0.2273 -1.1593  1.7235
14639TIP3   OH265407   0.692   4.415  12.625  0.2729 -0.6104  0.3672
14639TIP3    H165408   0.786   4.419  12.639  0.8824 -1.9419 -2.6580
14639TIP3    H265409   0.674   4.480  12.557 -0.2269 -2.9599 -1.9354
14640TIP3   OH265410   0.867   4.858   4.630  0.4680 -0.1994 -0.7987
14640TIP3    H165411   0.900   4.899   4.711  1.5577 -0.2981 -1.1777
14640TIP3    H265412   0.893   4.919   4.561 -2.8989  1.3552 -0.8995
14641TIP3   OH265413   3.352   5.173  16.459  0.2684  0.1335  0.9703
14641TIP3    H165414   3.339   5.167  16.364  0.5838 -0.0989  0.9438
14641TIP3    H265415   3.279   5.123  16.496  0.2182  0.1155  0.8474
14642TIP3   OH265416   0.261   0.348   6.917  0.4181 -0.3492  0.2835
14642TIP3    H165417   0.311   0.296   6.853  1.3225  0.0786  0.6317
14642TIP3    H265418   0.179   0.368   6.872  0.7419 -0.6793 -0.4737
14643TIP3   OH265419   6.049   5.506  14.196  0.0944  0.1250  0.4584
14643TIP3    H165420   6.076   5.552  14.275 -0.9849  1.2009  0.2330
14643TIP3    H265421   6.127   5.458  14.168  0.8676  0.7760  1.4465
14644TIP3   OH265422   4.666   3.992   2.408 -0.4549 -0.0924 -0.1596
14644TIP3    H165423   4.624   3.907   2.396 -2.0106  0.6922 -0.5486
14644TIP3    H265424   4.758   3.977   2.386 -0.8532 -1.5078 -0.9431
14645TIP3   OH265425   2.621   5.179  13.487  0.2144 -0.2780  0.5899
14645TIP3    H165426   2.650   5.100  13.533  1.2044 -0.6539 -0.6163
14645TIP3    H265427   2.702   5.231  13.477  0.3165 -0.7893 -1.8021
14646TIP3   OH265428   1.449   4.443  14.118  0.0297  0.4662  0.1168
14646TIP3    H165429   1.470   4.530  14.085 -1.8591  0.2906 -1.7033
14646TIP3    H265430   1.408   4.459  14.203 -0.8851  1.4309 -0.4850
14647TIP3   OH265431   3.251   2.534  13.242  0.1184  0.1972  0.1194
14647TIP3    H165432   3.346   2.544  13.236  0.0984 -0.0666 -0.8624
14647TIP3    H265433   3.218   2.622  13.259  0.5499  0.2433  0.7710
14648TIP3   OH265434   6.600   5.087   0.855 -0.0968  0.0004  0.4239
14648TIP3    H165435   6.665   5.016   0.857 -0.4676 -0.3511  0.2209
14648TIP3    H265436   6.595   5.112   0.763  2.2454  2.3821  0.8192
14649TIP3   OH265437   0.341   3.344  13.184  0.1233 -0.4757  0.1066
14649TIP3    H165438   0.276   3.414  13.194 -0.8007 -1.3568  0.3644
14649TIP3    H265439   0.420   3.379  13.226 -0.3415  0.3912  0.2854
14650TIP3   OH265440   5.595   5.766   3.365 -0.0197 -1.1461  0.8186
14650TIP3    H165441   5.542   5.727   3.296 -1.3030  0.3809  0.8966
14650TIP3    H265442   5.548   5.747   3.446 -0.0619 -0.4429  0.9651
14651TIP3   OH265443   1.048   1.122   0.121 -0.2714 -0.2934  0.4389
14651TIP3    H165444   1.041   1.068   0.199 -0.6730 -1.5234 -0.4165
14651TIP3    H265445   1.138   1.108   0.091  0.2681  1.1219  1.3199
14652TIP3   OH265446   2.058   0.912   6.402  0.0156  0.8561 -0.2874
14652TIP3    H165447   2.145   0.952   6.404  0.4233 -0.0222  0.0801
14652TIP3    H265448   2.008   0.960   6.468  0.4740  0.8362  0.0805
14653TIP3   OH265449   2.177   0.022  13.038 -0.2992  0.1344  0.2077
14653TIP3    H165450   2.188  -0.037  13.112 -0.5324  0.4286  0.4823
14653TIP3    H265451   2.266   0.046  13.013 -0.2208  0.0690  0.4225
14654TIP3   OH265452   2.704   0.259   6.672 -0.4714 -0.2206 -0.7294
14654TIP3    H165453   2.795   0.234   6.684 -1.0506 -1.7589  0.8460
14654TIP3    H265454   2.706   0.354   6.663  1.2778 -0.2402 -0.8514
14655TIP3   OH265455   3.991   5.893   1.358 -0.7202 -0.1816  0.3427
14655TIP3    H165456   3.953   5.939   1.432 -0.0631 -0.8658  1.1216
14655TIP3    H265457   4.083   5.920   1.357 -0.3887 -1.2490  0.6463
14656TIP3   OH265458   4.265   3.203   6.142 -0.5342  0.0695 -0.3750
14656TIP3    H165459   4.180   3.160   6.156 -0.2538 -0.6789 -0.8670
14656TIP3    H265460   4.259   3.286   6.189 -2.1428  0.7752 -1.7244
14657TIP3   OH265461   6.254   1.236  17.157  0.7313 -0.2969  0.0367
14657TIP3    H165462   6.236   1.329  17.172  1.1808 -0.3204  0.7487
14657TIP3    H265463   6.241   1.195  17.242  0.8420 -0.8406 -0.2048
14658TIP3   OH265464   1.205   6.828  11.288 -0.0129  0.6640  0.2095
14658TIP3    H165465   1.174   6.763  11.351  0.9421 -1.1608 -1.1127
14658TIP3    H265466   1.125   6.868  11.254 -0.6950 -0.5738  0.3002
14659TIP3   OH265467   1.418   1.855   0.024 -0.4229  0.2644  0.0613
14659TIP3    H165468   1.403   1.762   0.007  0.4782  0.1816 -0.3221
14659TIP3    H265469   1.420   1.896  -0.063  1.4083  0.2728  0.0605
14660TIP3   OH265470   1.217   0.465   3.967 -0.8390 -0.2266 -0.2254
14660TIP3    H165471   1.286   0.512   3.920 -0.5116  0.5025  0.9207
14660TIP3    H265472   1.191   0.526   4.036 -1.8932 -0.9224  0.0029
14661TIP3   OH265473   6.222   5.110  12.664 -0.0512  0.2928 -0.7910
14661TIP3    H165474   6.301   5.097  12.612 -0.6060 -0.2440 -1.5238
14661TIP3    H265475   6.229   5.046  12.735 -0.1796 -0.2745 -1.2851
14662TIP3   OH265476   1.223   5.761   3.760  0.0212 -0.1728  0.2897
14662TIP3    H165477   1.150   5.707   3.730 -0.2275 -0.1963  0.9180
14662TIP3    H265478   1.278   5.772   3.683 -0.9650  0.3678 -0.3477
14663TIP3   OH265479   0.375   4.283   5.427  0.2929  0.1499 -0.3303
14663TIP3    H165480   0.360   4.365   5.475  0.6000  0.2242 -0.3543
14663TIP3    H265481   0.394   4.219   5.495  0.5267  0.2090 -0.3378
14664TIP3   OH265482   1.915   2.812  12.152  0.0357  1.0822  0.0797
14664TIP3    H165483   1.898   2.805  12.246 -1.1545 -0.1897 -0.2035
14664TIP3    H265484   2.004   2.778  12.141 -0.0956  0.5393  0.6599
14665TIP3   OH265485   0.899   0.796   4.811  0.0477  0.1523 -0.2700
14665TIP3    H165486   0.880   0.775   4.719 -0.2109  0.9490 -0.4064
14665TIP3    H265487   0.911   0.891   4.812  0.8355  0.0545  0.3907
14666TIP3   OH265488   2.960   5.824  14.341 -0.2126 -0.5820  0.1316
14666TIP3    H165489   2.906   5.867  14.275  0.1128 -0.3580  0.0102
14666TIP3    H265490   2.914   5.841  14.424  0.8565  1.6068  0.3456
14667TIP3   OH265491   6.734   4.953  15.690 -0.6097 -0.0546 -0.1343
14667TIP3    H165492   6.768   4.881  15.636 -0.5673 -0.5056  0.4739
14667TIP3    H265493   6.640   4.936  15.694 -0.5255 -0.4239  0.4897
14668TIP3   OH265494   1.934   4.680  16.180 -0.1279  0.4275  0.2911
14668TIP3    H165495   1.975   4.709  16.099 -1.2504 -1.1767 -0.9296
14668TIP3    H265496   2.007   4.652  16.236  0.5645 -0.5982 -1.0748
14669TIP3   OH265497   5.283   1.513  12.945  0.0301  0.0204 -0.0757
14669TIP3    H165498   5.256   1.544  13.032  0.2120  0.1371 -0.0596
14669TIP3    H265499   5.212   1.540  12.887 -0.0994 -0.0712  0.0402
14670TIP3   OH265500   1.738   2.738   0.017  0.2673  0.5963 -0.1915
14670TIP3    H165501   1.764   2.828  -0.001 -1.0869  1.2854  1.0880
14670TIP3    H265502   1.649   2.731  -0.017  0.1202 -0.0592  0.3013
14671TIP3   OH265503   1.209   6.003  12.613  0.6082  0.0048  0.0856
14671TIP3    H165504   1.235   6.095  12.615 -0.0410  0.2093 -0.5452
14671TIP3    H265505   1.246   5.966  12.694 -0.0038  1.0595  0.8787
14672TIP3   OH265506   6.073   2.034   0.500  0.2866 -0.6283 -0.4342
14672TIP3    H165507   6.007   2.100   0.478 -0.0532 -0.8541 -0.1127
14672TIP3    H265508   6.118   2.071   0.577 -0.5483 -1.1907  0.3480
14673TIP3   OH265509   0.515   6.813  16.543 -0.4058 -0.6085 -0.1447
14673TIP3    H165510   0.521   6.742  16.607 -0.7429  0.1687  0.7759
14673TIP3    H265511   0.606   6.838  16.527 -0.3513  0.2787  1.3190
14674TIP3   OH265512   6.358   5.836  14.807 -0.1820  0.4079 -0.1457
14674TIP3    H165513   6.441   5.881  14.793  0.4563 -0.9265 -0.8886
14674TIP3    H265514   6.378   5.768  14.871 -0.5638 -0.2290 -0.6800
14675TIP3   OH265515   3.394   3.170   6.065  0.3190  0.2774 -0.1532
14675TIP3    H165516   3.380   3.264   6.079 -1.4335  0.1130 -0.6108
14675TIP3    H265517   3.321   3.128   6.110 -0.2586 -0.7329 -1.9622
14676TIP3   OH265518   6.365   4.510   2.495 -0.1788 -0.1894  0.0744
14676TIP3    H165519   6.399   4.423   2.515 -0.5787 -0.4482 -0.3549
14676TIP3    H265520   6.442   4.563   2.477  0.0742 -0.4207  0.4551
14677TIP3   OH265521   3.338   0.379   2.260  0.5568  0.7229 -0.0136
14677TIP3    H165522   3.278   0.375   2.335 -0.9720  0.2703 -1.2108
14677TIP3    H265523   3.311   0.457   2.212  0.8498  0.4476 -0.6366
14678TIP3   OH265524   5.149   1.118  16.320 -0.2209  0.0518  0.3872
14678TIP3    H165525   5.098   1.197  16.301 -1.4500 -0.6150  0.8494
14678TIP3    H265526   5.115   1.052  16.261  2.4880  0.4350 -1.7926
14679TIP3   OH265527   1.038   2.880  12.151 -0.1820  0.1095 -0.2571
14679TIP3    H165528   1.054   2.786  12.151  1.0878  0.2900 -1.3208
14679TIP3    H265529   1.092   2.915  12.222  0.2764  0.1582 -0.6252
14680TIP3   OH265530   0.814   4.264  14.253  0.0991 -0.4512  0.5846
14680TIP3    H165531   0.842   4.349  14.219 -1.2884 -1.0882 -2.5995
14680TIP3    H265532   0.893   4.210  14.253  0.6106  0.2922  0.6892
14681TIP3   OH265533   5.567   4.437   3.795  0.6934  0.1745  0.0741
14681TIP3    H165534   5.525   4.403   3.874 -0.5038  1.5292  0.0790
14681TIP3    H265535   5.650   4.473   3.825  0.3726  0.4291  0.6732
14682TIP3   OH265536   3.113   0.788   3.393  0.3791 -0.0796 -0.0425
14682TIP3    H165537   3.204   0.797   3.364  0.7338 -0.2774  0.9743
14682TIP3    H265538   3.108   0.838   3.475 -0.5224  0.2229 -0.2662
14683TIP3   OH265539   2.886   4.596  15.221  0.3930 -0.1125  0.6600
14683TIP3    H165540   2.800   4.577  15.184  0.8859 -0.5398 -0.2937
14683TIP3    H265541   2.920   4.511  15.248  0.4076  0.0900  1.3036
14684TIP3   OH265542   5.231   1.960   3.658 -0.4608 -0.3530 -0.0278
14684TIP3    H165543   5.192   2.018   3.593  0.6387  2.4609  1.6476
14684TIP3    H265544   5.178   1.971   3.736 -0.2399 -1.6897  0.3409
14685TIP3   OH265545   2.720   6.079  13.330  0.4837 -0.0826  0.4133
14685TIP3    H165546   2.745   6.150  13.389  1.2390 -0.5515  0.6732
14685TIP3    H265547   2.773   6.093  13.251 -0.7273  0.7063 -0.2954
14686TIP3   OH265548   5.251   5.323  14.418 -0.5274 -0.9883  0.3372
14686TIP3    H165549   5.334   5.368  14.399 -0.5534 -1.3079 -0.5700
14686TIP3    H265550   5.233   5.345  14.509  1.4272 -2.2927  1.0914
14687TIP3   OH265551   3.938   4.295  16.754 -0.1470  0.4261 -0.2767
14687TIP3    H165552   3.904   4.219  16.800  0.8041  0.2911  0.2157
14687TIP3    H265553   3.944   4.267  16.662 -0.8744  0.2900 -0.2864
14688TIP3   OH265554   3.183   0.896   2.902 -0.0539 -0.2633 -0.1788
14688TIP3    H165555   3.164   0.944   2.822 -0.3527  1.5167  0.9119
14688TIP3    H265556   3.236   0.956   2.954 -0.3063 -1.1738  1.1809
14689TIP3   OH265557   4.682   2.498   6.211 -0.0273 -0.0494  0.5770
14689TIP3    H165558   4.696   2.568   6.275 -0.5825  2.0314 -1.4400
14689TIP3    H265559   4.621   2.438   6.254 -0.2556  1.1702  2.0465
14690TIP3   OH265560   4.211   0.036  15.285 -0.0476  0.1148  0.3164
14690TIP3    H165561   4.229   0.069  15.373 -0.6980 -1.0234  0.9011
14690TIP3    H265562   4.290   0.054  15.235  0.0374  1.4879  0.9155
14691TIP3   OH265563   4.854   1.361  16.792 -0.4000  0.0873  0.5024
14691TIP3    H165564   4.863   1.301  16.865  0.1327  0.5500  0.8319
14691TIP3    H265565   4.841   1.447  16.833  1.9333  0.6883  0.1342
14692TIP3   OH265566   2.865   5.973   3.149 -0.9862  0.1662  0.1116
14692TIP3    H165567   2.940   5.972   3.209 -0.5768 -0.0113 -0.4023
14692TIP3    H265568   2.892   6.029   3.077 -0.7841 -1.0213 -0.7784
14693TIP3   OH265569   3.954   1.240  13.753  0.3059 -0.0335 -0.0430
14693TIP3    H165570   3.989   1.217  13.667  0.0418 -0.6670  0.0176
14693TIP3    H265571   3.933   1.157  13.794 -0.8958  0.3071  0.0778
14694TIP3   OH265572   0.193   5.727  16.995  0.0681  0.2845  0.1941
14694TIP3    H165573   0.126   5.740  16.928  1.5090  1.0615 -1.1508
14694TIP3    H265574   0.276   5.732  16.948  1.2725  3.5087  2.3246
14695TIP3   OH265575   2.917   3.773   1.660  0.6724 -0.5093 -0.0532
14695TIP3    H165576   2.921   3.820   1.743 -0.2881  0.9780 -0.7974
14695TIP3    H265577   2.906   3.681   1.684  1.4011 -0.2292  1.4469
14696TIP3   OH265578   5.179   1.514   1.727 -0.0714 -1.0346 -0.5189
14696TIP3    H165579   5.268   1.480   1.733 -0.6310 -2.3787  0.6816
14696TIP3    H265580   5.124   1.443   1.760 -1.4196  0.4801  0.6559
14697TIP3   OH265581   0.003   6.772   4.200  0.0223  0.1773 -0.0213
14697TIP3    H165582   0.064   6.822   4.146  1.7296 -2.7546 -1.0358
14697TIP3    H265583  -0.059   6.734   4.138 -0.2644 -0.2658  0.5210
14698TIP3   OH265584   2.388   1.495  11.776  0.1925  0.5347 -0.4896
14698TIP3    H165585   2.339   1.491  11.858  2.3621 -2.5591  0.8768
14698TIP3    H265586   2.327   1.461  11.710 -0.2270 -1.3437  0.7829
14699TIP3   OH265587   6.552   4.101  11.599  0.0377  0.0331  0.3238
14699TIP3    H165588   6.562   4.040  11.526  0.1222 -0.1083  0.4535
14699TIP3    H265589   6.479   4.157  11.573  0.7391  0.6652 -0.3379
14700TIP3   OH265590   5.585   3.782  14.379 -0.5491  0.2243 -0.2990
14700TIP3    H165591   5.611   3.834  14.303 -1.0125 -2.4925 -2.4907
14700TIP3    H265592   5.668   3.755  14.420 -0.1038 -1.0187 -1.9083
14701TIP3   OH265593   0.973   6.381  17.060  0.6907 -0.2103  0.2489
14701TIP3    H165594   0.981   6.465  17.106  1.1408 -1.4569  2.6180
14701TIP3    H265595   1.055   6.372  17.012  0.5254  0.8253 -0.2377
14702TIP3   OH265596   2.871   4.837   3.527 -0.1102  0.4201 -0.2267
14702TIP3    H165597   2.925   4.856   3.451 -0.9897  0.3490 -0.8851
14702TIP3    H265598   2.824   4.757   3.504  0.3875 -0.1985  0.8137
14703TIP3   OH265599   0.447   4.781  11.213 -0.0512 -0.5493 -0.5905
14703TIP3    H165600   0.421   4.697  11.177  2.0663 -1.7913  0.5878
14703TIP3    H265601   0.372   4.809  11.266 -0.5906 -1.9257 -0.5920
14704TIP3   OH265602   5.699   1.049   5.541 -0.7705 -0.6561  0.9184
14704TIP3    H165603   5.692   0.996   5.461 -1.4556 -0.6706  0.9752
14704TIP3    H265604   5.673   0.990   5.611  2.5924 -1.5165  1.5734
14705TIP3   OH265605   4.367   1.583  13.421  0.1423 -0.2608 -0.7041
14705TIP3    H165606   4.430   1.565  13.490 -1.2908 -2.2798  0.1575
14705TIP3    H265607   4.403   1.540  13.343  1.0375  0.7746 -0.8832
14706TIP3   OH265608   4.663   6.016  12.636  0.6355 -0.0068  0.2677
14706TIP3    H165609   4.601   5.984  12.570  0.1857 -2.1152  1.6103
14706TIP3    H265610   4.703   5.937  12.672  2.8546  1.2154  0.6755
14707TIP3   OH265611   0.116   0.706   1.847  0.2561  0.2694  0.3473
14707TIP3    H165612   0.188   0.653   1.882 -0.7565  0.1696  2.4895
14707TIP3    H265613   0.139   0.796   1.868  0.5850  0.4174 -0.6097
14708TIP3   OH265614   0.259   0.945   1.832 -0.2641 -0.0148 -0.3045
14708TIP3    H165615   0.242   0.987   1.917 -0.5894 -2.6412  1.0454
14708TIP3    H265616   0.353   0.956   1.819  0.5217 -2.4764  2.2222
14709TIP3   OH265617   0.784   5.614   2.454 -0.2072  0.4014  0.5961
14709TIP3    H165618   0.701   5.651   2.424 -0.1426 -0.6808 -1.0433
14709TIP3    H265619   0.836   5.690   2.479 -1.5248  1.1208  1.2549
14710TIP3   OH265620   3.960   3.847  14.742 -0.1927  0.2294 -0.5276
14710TIP3    H165621   3.903   3.799  14.803 -0.2758  0.7054 -0.2281
14710TIP3    H265622   3.899   3.893  14.684 -0.1176 -0.4467 -1.1642
14711TIP3   OH265623   3.676   4.055   4.081 -0.4638 -0.0810 -0.2201
14711TIP3    H165624   3.643   4.035   4.168 -0.5088 -2.9622 -0.7960
14711TIP3    H265625   3.714   3.973   4.051  0.2244  1.0400 -2.6321
14712TIP3   OH265626   1.646   2.045   0.784  0.1017  0.3054 -0.2697
14712TIP3    H165627   1.590   2.018   0.711 -0.3854  0.4173  0.0572
14712TIP3    H265628   1.690   1.965   0.811  0.3482  0.2801 -0.7425
14713TIP3   OH265629   5.074   4.778   6.062 -0.2581  0.7243  0.4166
14713TIP3    H165630   5.079   4.851   6.124  0.6507  1.1954 -0.1871
14713TIP3    H265631   5.043   4.704   6.114 -0.5680  1.3854  1.1849
14714TIP3   OH265632   3.292   5.798  15.144 -0.1536 -0.1760  0.5058
14714TIP3    H165633   3.359   5.750  15.096 -0.1018 -1.1220  1.4958
14714TIP3    H265634   3.287   5.883  15.100  0.6985 -0.6038 -0.4412
14715TIP3   OH265635   4.649   1.117   0.409 -0.1104  0.1890 -0.0547
14715TIP3    H165636   4.722   1.136   0.351 -1.7723 -1.0963 -2.7631
14715TIP3    H265637   4.626   1.202   0.447 -0.3453  1.6241 -3.1069
14716TIP3   OH265638   1.398   6.099   2.116 -0.2909 -0.6737 -0.3313
14716TIP3    H165639   1.352   6.016   2.130  0.9367 -1.1182  1.5027
14716TIP3    H265640   1.353   6.140   2.042 -2.9880 -1.5108  0.7320
14717TIP3   OH265641   4.358   3.005   1.222  0.5997 -0.4793 -0.4104
14717TIP3    H165642   4.365   2.912   1.242  1.3922 -0.2502  0.4442
14717TIP3    H265643   4.328   3.008   1.131 -0.0042 -1.5596 -0.2573
14718TIP3   OH265644   2.123   0.416  14.528 -0.1796  0.8329 -0.2474
14718TIP3    H165645   2.103   0.330  14.565 -2.7939  0.7210 -1.6955
14718TIP3    H265646   2.173   0.396  14.448 -0.6990  0.6283 -0.5314
14719TIP3   OH265647   4.022   0.568  16.891 -0.9615  0.0518 -0.2999
14719TIP3    H165648   4.008   0.474  16.905 -0.4044 -0.3141 -1.9494
14719TIP3    H265649   3.997   0.582  16.800 -1.1034  1.5371 -0.0555
14720TIP3   OH265650   5.645   1.902   5.995  0.0765  0.1455  0.5675
14720TIP3    H165651   5.705   1.899   6.069  1.4507 -0.8271 -0.5337
14720TIP3    H265652   5.648   1.993   5.966  1.2227  0.0688  0.3909
14721TIP3   OH265653   0.089   5.074   4.558 -0.1548 -0.5835 -0.1739
14721TIP3    H165654   0.001   5.075   4.595 -0.3582 -2.1732 -0.5413
14721TIP3    H265655   0.143   5.117   4.625 -0.7428 -2.1773  1.4286
14722TIP3   OH265656   3.054   3.193   4.077  0.6181  0.6656  0.4816
14722TIP3    H165657   2.958   3.192   4.079  0.5400  1.3811 -1.4382
14722TIP3    H265658   3.079   3.123   4.138 -1.1630 -1.1295 -0.7068
14723TIP3   OH265659   4.706   2.091   3.688 -0.1469 -0.7570  0.2056
14723TIP3    H165660   4.736   2.113   3.600  2.5012  2.2630  1.6703
14723TIP3    H265661   4.754   2.012   3.711  1.0404 -0.1707 -0.1991
14724TIP3   OH265662   1.456   5.490   1.389 -0.3765 -0.1066 -0.2733
14724TIP3    H165663   1.467   5.585   1.399 -0.4839  0.1142 -1.8855
14724TIP3    H265664   1.522   5.452   1.447 -0.3662  0.9595  0.4347
14725TIP3   OH265665   3.081   3.474   4.465 -0.3454 -0.0821 -0.0705
14725TIP3    H165666   3.000   3.457   4.513  0.2834 -0.5230  0.8683
14725TIP3    H265667   3.066   3.558   4.422 -2.2174 -1.2894 -1.9405
14726TIP3   OH265668   3.022   2.367   6.144 -0.3264 -0.3882  0.4117
14726TIP3    H165669   3.020   2.272   6.141 -0.7566 -0.4684  2.0552
14726TIP3    H265670   2.938   2.391   6.184 -0.2735  0.6871 -0.0933
14727TIP3   OH265671   1.172   3.812   2.684 -0.1741 -0.2376  0.2290
14727TIP3    H165672   1.175   3.836   2.777 -1.0041 -0.1571  0.2342
14727TIP3    H265673   1.124   3.729   2.682  0.7761 -0.8056 -0.0225
14728TIP3   OH265674   3.814   6.201   3.891 -0.5813  0.0074 -0.4128
14728TIP3    H165675   3.904   6.228   3.876 -0.3556 -0.6843 -0.3540
14728TIP3    H265676   3.805   6.119   3.843 -0.8900 -0.4142  0.3385
14729TIP3   OH265677   5.777   0.616  14.954 -0.7350  0.3933  0.3889
14729TIP3    H165678   5.784   0.641  15.046  2.0772  0.1989  0.3136
14729TIP3    H265679   5.773   0.699  14.907 -2.6906  0.4958  0.6397
14730TIP3   OH265680   4.339   2.526  16.694  0.6170  0.3671 -0.1677
14730TIP3    H165681   4.335   2.527  16.790  0.4629  0.9315 -0.1778
14730TIP3    H265682   4.377   2.611  16.671 -0.1498  0.5857 -0.6414
14731TIP3   OH265683   0.128   4.050   3.797 -0.2252  0.0267  0.0778
14731TIP3    H165684   0.099   3.966   3.831 -3.1873  0.3816 -1.2265
14731TIP3    H265685   0.070   4.114   3.839  0.4664  1.1536 -0.6414
14732TIP3   OH265686   4.173   2.830  12.593 -0.0163  0.1975  0.4515
14732TIP3    H165687   4.150   2.920  12.616 -2.1799 -0.1898  0.0068
14732TIP3    H265688   4.268   2.831  12.584  0.1214  2.1389  1.6744
14733TIP3   OH265689   5.713   6.325   0.425  0.0512 -0.2479 -0.4745
14733TIP3    H165690   5.630   6.371   0.410 -0.3118 -0.7652 -0.1140
14733TIP3    H265691   5.695   6.268   0.500  0.9362  0.1376  0.0461
14734TIP3   OH265692   3.880   1.983  14.711  0.4817 -0.2002  0.4161
14734TIP3    H165693   3.972   1.959  14.721 -0.2960 -2.7346  2.4634
14734TIP3    H265694   3.855   1.945  14.626  1.6038  1.8784 -0.9452
14735TIP3   OH265695   1.662   0.469  12.461  0.4659 -0.1922 -0.0187
14735TIP3    H165696   1.740   0.457  12.408  0.3990 -2.4455  0.2971
14735TIP3    H265697   1.589   0.446  12.403  0.3464 -1.9263  0.7388
14736TIP3   OH265698   3.893   6.245  14.097 -0.6940  0.3611 -0.5481
14736TIP3    H165699   3.972   6.233  14.043 -0.6614  0.5903 -0.5526
14736TIP3    H265700   3.846   6.316  14.054 -1.1927 -0.1538 -0.8806
14737TIP3   OH265701   0.545   0.388  12.519  0.1451  0.6942  0.0508
14737TIP3    H165702   0.600   0.388  12.441  0.4247 -0.7756  0.2323
14737TIP3    H265703   0.607   0.386  12.592 -0.1201  1.7981  0.3230
14738TIP3   OH265704   5.862   2.593  11.635  0.5397  0.3693 -0.1917
14738TIP3    H165705   5.914   2.671  11.618  0.1930  0.7155  0.3360
14738TIP3    H265706   5.776   2.626  11.659 -0.3300 -0.2096 -2.2675
14739TIP3   OH265707   5.216   1.357   5.180 -0.2014  0.3800 -0.2766
14739TIP3    H165708   5.164   1.279   5.199 -1.6514  1.7131  1.5825
14739TIP3    H265709   5.301   1.340   5.219 -0.0719 -0.7411 -1.0000
14740TIP3   OH265710   0.306   2.518   5.076  0.0185  0.7104 -0.5317
14740TIP3    H165711   0.313   2.483   4.987 -0.2576  0.5450 -0.4886
14740TIP3    H265712   0.290   2.441   5.131  0.7970  0.7308 -0.2552
14741TIP3   OH265713   0.086   2.493  15.419 -0.1192 -0.1387 -0.6531
14741TIP3    H165714   0.131   2.488  15.503 -1.1627 -1.0587 -0.1285
14741TIP3    H265715   0.022   2.422  15.421 -0.5496  0.1713 -2.0018
14742TIP3   OH265716   5.896   0.449  11.767  0.1989  0.5401  0.1888
14742TIP3    H165717   5.855   0.396  11.835  1.8435 -0.4180  0.5005
14742TIP3    H265718   5.945   0.516  11.814  2.0236 -0.6257  0.0735
14743TIP3   OH265719   2.734   1.109   0.648  0.9414  0.3921 -0.3857
14743TIP3    H165720   2.674   1.148   0.711  1.3240  0.2509  0.0713
14743TIP3    H265721   2.790   1.182   0.620  0.9645  0.3941 -0.3350
14744TIP3   OH265722   2.787   5.678   3.793  0.1190 -0.2828  0.7428
14744TIP3    H165723   2.735   5.674   3.712  1.0414  1.1037  0.0340
14744TIP3    H265724   2.725   5.655   3.862 -1.4118  1.0318 -0.0995
14745TIP3   OH265725   2.147   2.068   2.175  0.5978 -0.4892  0.4233
14745TIP3    H165726   2.098   2.112   2.244  0.8358 -1.1731  1.0411
14745TIP3    H265727   2.124   1.976   2.183  2.4928 -0.9417  1.2007
14746TIP3   OH265728   4.010   5.208   0.265 -0.5247 -0.1760  0.5268
14746TIP3    H165729   3.993   5.235   0.355 -1.6177 -1.8024  0.8653
14746TIP3    H265730   4.018   5.113   0.270 -0.9447 -0.3334 -1.1400
14747TIP3   OH265731   6.431   4.706  15.079  0.0485 -0.5039  0.4261
14747TIP3    H165732   6.514   4.663  15.099  0.1163 -0.0793  1.0898
14747TIP3    H265733   6.452   4.768  15.009  0.5651  0.4462  1.3828
14748TIP3   OH265734   2.049   2.357   0.340 -0.1405  0.3941 -0.5238
14748TIP3    H165735   1.985   2.290   0.313  0.6845 -0.8367  0.4556
14748TIP3    H265736   2.023   2.436   0.292 -1.5731 -0.4368 -1.1753
14749TIP3   OH265737   2.276   2.646  10.500 -0.3343  0.5039 -0.1746
14749TIP3    H165738   2.369   2.669  10.510  0.3163 -1.5065 -1.0163
14749TIP3    H265739   2.229   2.726  10.522  1.5697  1.3912  0.9650
14750TIP3   OH265740   6.458   1.969   5.465  0.3390 -0.4229  0.3164
14750TIP3    H165741   6.534   1.944   5.412  0.8985  1.6063  0.0919
14750TIP3    H265742   6.495   2.005   5.546 -0.3913  0.1508  0.4115
14751TIP3   OH265743   3.537   0.601  13.010 -0.3513 -0.0463 -0.0601
14751TIP3    H165744   3.501   0.517  12.981 -0.7440 -0.0504  0.4196
14751TIP3    H265745   3.469   0.637  13.066  0.6772 -0.3549  1.4330
14752TIP3   OH265746   2.689   4.909  12.547  0.0179 -0.2105 -0.5514
14752TIP3    H165747   2.711   4.984  12.493  0.5168 -1.8426 -2.7331
14752TIP3    H265748   2.598   4.890  12.527 -0.6411  0.7516  1.2725
14753TIP3   OH265749   1.550   6.568  14.616 -0.0642  0.1017 -0.6462
14753TIP3    H165750   1.594   6.627  14.679 -0.9166 -0.9723  1.0312
14753TIP3    H265751   1.478   6.620  14.581 -0.9805  0.0261  1.0321
14754TIP3   OH265752   2.209   0.562  12.894 -0.2440  0.2483  0.2104
14754TIP3    H165753   2.178   0.644  12.857 -0.2281 -0.4818 -1.5383
14754TIP3    H265754   2.199   0.572  12.989 -0.9076  1.9715 -0.0137
14755TIP3   OH265755   5.455   4.924  11.896  0.0639 -0.3372  0.7821
14755TIP3    H165756   5.529   4.965  11.942 -0.4212 -0.0102  1.2848
14755TIP3    H265757   5.491   4.843  11.860  1.0529  0.5419 -0.2668
14756TIP3   OH265758   2.463   1.716   1.825 -0.5383  0.0381 -0.4439
14756TIP3    H165759   2.489   1.709   1.917 -1.6526 -0.2128 -0.1389
14756TIP3    H265760   2.532   1.670   1.777  0.1588  0.3524  0.2367
14757TIP3   OH265761   3.498   5.984   0.176  0.5353  0.2205 -0.4302
14757TIP3    H165762   3.475   6.020   0.261  1.0238  0.0554 -0.2246
14757TIP3    H265763   3.576   5.931   0.192  2.5980  2.6942 -1.4898
14758TIP3   OH265764   1.819   0.199  13.787  0.0258 -0.0248  0.2972
14758TIP3    H165765   1.753   0.132  13.803  0.4013 -0.1768  1.3187
14758TIP3    H265766   1.769   0.280  13.773 -0.3930  0.0669  2.0373
14759TIP3   OH265767   1.762   2.590   2.706  0.2747  0.2036 -0.0819
14759TIP3    H165768   1.793   2.679   2.723  0.1991  0.3409 -0.6420
14759TIP3    H265769   1.786   2.541   2.785 -0.3719  0.8863  0.5536
14760TIP3   OH265770   2.847   0.025   5.193  0.5007 -0.2126  0.5661
14760TIP3    H165771   2.754   0.011   5.175  0.7118  0.0228 -0.8593
14760TIP3    H265772   2.853   0.113   5.229  0.1914 -0.1438  0.4471
14761TIP3   OH265773   4.311   4.190  13.153  0.5390 -0.2399 -0.3107
14761TIP3    H165774   4.383   4.129  13.171  1.0967  0.4575 -0.1492
14761TIP3    H265775   4.236   4.152  13.199  0.4600 -1.6347 -1.4801
14762TIP3   OH265776   3.760   4.180  14.069  0.3120 -0.1511  0.5208
14762TIP3    H165777   3.829   4.133  14.115 -0.0829 -1.9008 -0.5730
14762TIP3    H265778   3.680   4.133  14.091 -0.1447  0.1921 -0.3615
14763TIP3   OH265779   6.185   4.729   2.637  0.0423 -0.8884 -0.4000
14763TIP3    H165780   6.184   4.706   2.730 -0.4273 -0.3747 -0.2725
14763TIP3    H265781   6.221   4.652   2.594  1.1059 -0.8103  0.2929
14764TIP3   OH265782   6.187   2.572  16.982 -0.5993 -0.1770  0.1332
14764TIP3    H165783   6.204   2.660  17.015 -2.5407  0.3036 -0.0036
14764TIP3    H265784   6.148   2.587  16.895 -1.1653 -1.1480  0.2051
14765TIP3   OH265785   3.779   0.618   0.836  0.1550  0.1490  0.7637
14765TIP3    H165786   3.691   0.616   0.799  0.1637 -0.1887  0.7581
14765TIP3    H265787   3.768   0.659   0.922 -0.0256  0.0192  0.8035
14766TIP3   OH265788   3.294   3.436  11.938  0.0007 -0.5600 -0.0558
14766TIP3    H165789   3.280   3.388  11.856  0.7391 -1.2327  0.1981
14766TIP3    H265790   3.374   3.488  11.922  0.7270 -1.4573  0.5557
14767TIP3   OH265791   0.335   5.136  17.129  0.1296 -0.3675 -0.0837
14767TIP3    H165792   0.296   5.049  17.139  0.2006 -0.3471  0.4048
14767TIP3    H265793   0.354   5.143  17.035 -1.6436 -0.1217 -0.4774
14768TIP3   OH265794   3.606   3.593  11.663  0.0152  0.3429  0.0061
14768TIP3    H165795   3.576   3.502  11.673 -1.7785  0.9432  0.6019
14768TIP3    H265796   3.616   3.604  11.569  0.9906 -0.6767 -0.0324
14769TIP3   OH265797   6.304   4.247   3.485 -0.0655  0.1647 -0.4827
14769TIP3    H165798   6.393   4.220   3.508  0.2066  2.5829  1.8196
14769TIP3    H265799   6.248   4.198   3.545  0.2487  2.6857  2.0402
14770TIP3   OH265800   0.007   5.895   3.091 -0.6561  0.6978  0.1859
14770TIP3    H165801  -0.066   5.916   3.032  0.1681  1.9709 -0.4286
14770TIP3    H265802   0.059   5.832   3.043 -0.1790  1.4618 -0.3112
14771TIP3   OH265803   3.212   0.508  14.129 -0.0394  0.1590  0.4258
14771TIP3    H165804   3.147   0.541  14.191 -1.2521  0.8839 -1.1481
14771TIP3    H265805   3.218   0.577  14.062  1.2680 -0.5474 -0.2198
14772TIP3   OH265806   3.411   3.512   5.266 -0.5016  0.0934 -0.2335
14772TIP3    H165807   3.426   3.545   5.355 -1.4472 -0.7744  0.2735
14772TIP3    H265808   3.339   3.449   5.276 -0.3250 -0.3443 -1.5456
14773TIP3   OH265809   6.039   5.509  15.349  0.3787 -0.0154  0.1704
14773TIP3    H165810   6.038   5.495  15.444 -0.3301  1.8709  0.4727
14773TIP3    H265811   6.100   5.581  15.336 -0.2015  0.3347 -0.7068
14774TIP3   OH265812   4.235   1.258  10.827 -0.3543  0.1656  0.1493
14774TIP3    H165813   4.160   1.302  10.786 -0.3527 -0.0329 -0.0768
14774TIP3    H265814   4.267   1.198  10.759 -0.4248 -0.2579  0.4829
14775TIP3   OH265815   4.528   2.050  15.682 -0.5784  1.1563 -0.7384
14775TIP3    H165816   4.590   2.030  15.613  0.7394  0.1639  0.6653
14775TIP3    H265817   4.444   2.059  15.637 -0.1549 -1.4926 -2.2482
14776TIP3   OH265818   0.467   3.153  17.090 -0.7711 -0.1787 -0.1493
14776TIP3    H165819   0.515   3.110  17.161  0.4307 -0.1451 -0.9258
14776TIP3    H265820   0.522   3.227  17.065 -0.7637 -0.6681 -1.6696
14777TIP3   OH265821   2.909   5.210  13.184  0.2054  0.1406 -0.6693
14777TIP3    H165822   2.852   5.251  13.118 -0.4142 -0.1885 -0.3510
14777TIP3    H265823   2.985   5.181  13.134  0.0868  0.5624 -1.1125
14778TIP3   OH265824   5.558   3.975  13.461 -0.5409 -0.3029  0.3872
14778TIP3    H165825   5.485   4.020  13.503 -1.7452 -2.0067  0.2241
14778TIP3    H265826   5.519   3.930  13.386  0.4704 -2.0409  0.8308
14779TIP3   OH265827   3.752   4.000   2.891 -0.3100  0.0851  0.5539
14779TIP3    H165828   3.699   3.988   2.812 -0.4988  0.1320  0.6728
14779TIP3    H265829   3.757   3.912   2.929  3.0669 -0.8287 -1.5583
14780TIP3   OH265830   6.595   1.205   2.600  0.0057  0.3069  0.5638
14780TIP3    H165831   6.675   1.174   2.558  0.9257  1.1941  1.6009
14780TIP3    H265832   6.576   1.141   2.668 -1.3247 -0.9742 -0.9164
14781TIP3   OH265833   3.393   6.381  10.203  0.1850 -0.0708 -0.3575
14781TIP3    H165834   3.429   6.300  10.168  2.7554  0.6727  0.3149
14781TIP3    H265835   3.312   6.356  10.246  1.0693 -2.3514  0.0901
14782TIP3   OH265836   5.351   2.468   1.657 -0.4043 -0.1389 -0.2144
14782TIP3    H165837   5.413   2.487   1.587 -2.6083  1.4556 -1.9107
14782TIP3    H265838   5.302   2.392   1.625 -0.7141 -0.0637  0.0734
14783TIP3   OH265839   5.675   4.673   4.186  0.0629  0.0130 -0.2775
14783TIP3    H165840   5.703   4.617   4.257  1.2564  0.0218 -0.7093
14783TIP3    H265841   5.719   4.757   4.203 -1.4245  0.7382  0.1794
14784TIP3   OH265842   5.231   4.226   3.812  0.0405 -0.5126 -0.2113
14784TIP3    H165843   5.235   4.318   3.841 -0.3477 -0.4781 -0.2675
14784TIP3    H265844   5.320   4.194   3.824 -0.1325 -0.5361  1.1528
14785TIP3   OH265845   5.176   3.502  11.139 -0.0844  0.1239  0.1602
14785TIP3    H165846   5.213   3.463  11.060 -1.3671 -0.5589 -0.1288
14785TIP3    H265847   5.242   3.565  11.168  1.9759 -2.0718  0.5277
14786TIP3   OH265848   4.652   2.651   4.425 -0.4169  0.0889 -0.0183
14786TIP3    H165849   4.707   2.631   4.349 -0.3336  1.2325 -0.2823
14786TIP3    H265850   4.704   2.714   4.476 -0.7445 -0.1770  0.6485
14787TIP3   OH265851   6.351   4.418  15.154  0.0482  0.0066  1.1434
14787TIP3    H165852   6.430   4.453  15.196 -1.2564  2.3380  1.8574
14787TIP3    H265853   6.371   4.419  15.061  0.2043  2.7047  1.1105
14788TIP3   OH265854   6.021   1.941   4.112 -0.0743 -1.0886 -0.2471
14788TIP3    H165855   5.934   1.980   4.107  0.4513  0.3251  0.7663
14788TIP3    H265856   6.021   1.893   4.195  0.0624 -1.2018 -0.3118
14789TIP3   OH265857   3.677   4.116   4.717  0.5311  0.2111  0.7553
14789TIP3    H165858   3.703   4.076   4.800  1.0757  1.9198  1.4648
14789TIP3    H265859   3.706   4.055   4.650  0.1352 -1.1783  1.8026
14790TIP3   OH265860   5.716   6.678  12.360 -0.1427 -0.0616  0.4826
14790TIP3    H165861   5.755   6.712  12.441 -0.5282 -0.7240  0.9496
14790TIP3    H265862   5.675   6.596  12.385  1.0916 -1.0925 -0.7137
14791TIP3   OH265863   4.520   3.675  12.421 -0.9259 -0.2785 -0.2132
14791TIP3    H165864   4.562   3.756  12.451  0.7852 -1.0822 -0.3129
14791TIP3    H265865   4.566   3.653  12.340 -0.7408 -1.8151  0.2862
14792TIP3   OH265866   2.488   4.124  13.007  0.4811 -0.5705  0.3353
14792TIP3    H165867   2.425   4.139  13.078  0.9315  1.9882  0.2782
14792TIP3    H265868   2.436   4.132  12.927  0.3219 -1.5835  0.3301
14793TIP3   OH265869   3.271   2.188  13.894  0.1841 -0.3121  0.2713
14793TIP3    H165870   3.359   2.161  13.921  1.0644 -0.0006 -2.0325
14793TIP3    H265871   3.228   2.107  13.867 -0.8676 -0.6944  2.8270
14794TIP3   OH265872   2.427   6.379   3.129  0.2607 -0.5580  0.4268
14794TIP3    H165873   2.443   6.474   3.127 -1.7081 -0.1491 -2.4261
14794TIP3    H265874   2.495   6.342   3.074  0.7147 -0.7484  1.1115
14795TIP3   OH265875   6.497   1.280  15.199 -0.0631 -0.2329 -0.1804
14795TIP3    H165876   6.537   1.193  15.195  1.8999  0.4194  2.4801
14795TIP3    H265877   6.442   1.278  15.278  0.3246  1.0009  0.1555
14796TIP3   OH265878   1.023   3.069  11.391  0.6103 -0.2934 -0.6545
14796TIP3    H165879   1.039   3.054  11.298  1.0369 -0.3552 -0.5750
14796TIP3    H265880   1.110   3.061  11.432  0.7452  1.5999 -0.4887
14797TIP3   OH265881   3.855   6.076  14.320 -0.4580  0.2251  0.2510
14797TIP3    H165882   3.949   6.074  14.337 -0.2936  2.2495 -0.1825
14797TIP3    H265883   3.847   6.107  14.230 -1.5324 -0.6332  0.0325
14798TIP3   OH265884   6.140   0.644  16.638  0.7165  0.2293 -0.3448
14798TIP3    H165885   6.102   0.726  16.668 -0.1742 -0.2235 -0.1760
14798TIP3    H265886   6.209   0.625  16.702  0.1439  0.2639  0.2988
14799TIP3   OH265887   0.935   5.701   1.193  0.1200  0.0789  0.0143
14799TIP3    H165888   1.007   5.757   1.221 -0.3018  1.3725 -1.3630
14799TIP3    H265889   0.867   5.762   1.162 -1.1097 -1.1351  0.1943
14800TIP3   OH265890   3.032   6.361  13.040 -0.2827  0.1782 -0.2121
14800TIP3    H165891   2.999   6.277  13.071 -0.7107  0.0161 -1.0674
14800TIP3    H265892   2.971   6.386  12.970 -0.8332  1.7489  0.7900
14801TIP3   OH265893   3.147   3.123  16.266  0.5487 -0.3952 -0.6880
14801TIP3    H165894   3.164   3.144  16.174  0.2780 -0.2309 -0.6996
14801TIP3    H265895   3.184   3.035  16.276  0.4999 -0.4522 -0.9776
14802TIP3   OH265896   5.500   4.383  11.367  0.1609 -0.1196  0.0332
14802TIP3    H165897   5.458   4.339  11.293  0.8960 -0.2836 -0.2997
14802TIP3    H265898   5.469   4.337  11.444  0.0594 -0.5067 -0.2363
14803TIP3   OH265899   6.382   4.559   5.790 -0.1779  0.4364  0.2987
14803TIP3    H165900   6.425   4.591   5.710 -0.5532  2.4484  0.8372
14803TIP3    H265901   6.449   4.507   5.834  0.4307  0.3198 -0.7289
14804TIP3   OH265902   3.130   3.627  12.117 -0.4128  0.7575  0.0896
14804TIP3    H165903   3.152   3.558  12.056  1.0540  0.5256  0.8439
14804TIP3    H265904   3.041   3.653  12.093 -0.4965 -0.4824 -1.0279
14805TIP3   OH265905   3.905   1.553   2.118  0.2639 -0.2405  0.0241
14805TIP3    H165906   3.975   1.558   2.183 -1.1645 -0.9989  1.6907
14805TIP3    H265907   3.866   1.640   2.117 -0.3301 -0.4907  0.9161
14806TIP3   OH265908   4.064   6.176  16.829 -0.2387 -0.3391  0.2143
14806TIP3    H165909   3.993   6.166  16.766  0.7229 -1.1260 -0.7821
14806TIP3    H265910   4.089   6.269  16.822 -1.1439 -0.0552  0.5745
14807TIP3   OH265911   3.013   6.710   4.179 -0.5420 -0.2596 -0.3043
14807TIP3    H165912   3.101   6.698   4.143 -0.9619  0.3273 -1.5801
14807TIP3    H265913   3.012   6.656   4.259  0.9291 -0.3439 -0.3209
14808TIP3   OH265914   6.180   2.302  14.272 -0.4552  0.4147  0.1524
14808TIP3    H165915   6.132   2.331  14.350  2.1209  1.0948  1.5702
14808TIP3    H265916   6.159   2.368  14.206 -2.0399  0.2683  0.4569
14809TIP3   OH265917   6.052   2.049   1.096 -0.4671  0.4853 -0.3064
14809TIP3    H165918   5.985   2.117   1.101  0.3033  1.2444  0.2250
14809TIP3    H265919   6.135   2.098   1.095  0.1026 -0.4428  0.0068
14810TIP3   OH265920   6.268   1.690   5.433  0.0114 -0.5784 -0.0300
14810TIP3    H165921   6.317   1.772   5.433 -1.8069  0.6246 -2.2183
14810TIP3    H265922   6.295   1.645   5.353 -0.0613 -1.4464  0.4218
14811TIP3   OH265923   3.504   1.032   0.133  0.2004  0.2744  0.1881
14811TIP3    H165924   3.542   0.959   0.085 -0.2998 -0.0616  0.2845
14811TIP3    H265925   3.425   0.995   0.173  0.2874  0.7028  0.7675
14812TIP3   OH265926   2.688   3.040  13.698  0.4569 -0.2365 -0.0803
14812TIP3    H165927   2.604   3.001  13.672 -0.0604  0.3641  0.6146
14812TIP3    H265928   2.753   2.974  13.677 -0.2918 -1.0631  0.1451
14813TIP3   OH265929   3.349   0.895   1.072 -0.5035  0.0304  0.5611
14813TIP3    H165930   3.384   0.869   0.987  1.4484 -0.2517  1.3918
14813TIP3    H265931   3.301   0.818   1.103  2.1274 -1.4196  1.3842
14814TIP3   OH265932   1.036   5.614   3.958  0.2926  0.6768 -0.1641
14814TIP3    H165933   0.967   5.548   3.967 -0.2164  0.9726 -1.7161
14814TIP3    H265934   1.101   5.573   3.900  0.8345  0.8864  0.2812
14815TIP3   OH265935   0.362   4.624   0.022  0.2258  0.4515  0.0181
14815TIP3    H165936   0.447   4.581   0.011  0.3297  0.9458 -1.1583
14815TIP3    H265937   0.341   4.611   0.115 -0.1851 -2.9846 -0.4207
14816TIP3   OH265938   6.415   2.647   2.681  0.5926  0.1365 -0.6689
14816TIP3    H165939   6.402   2.635   2.775  0.0865 -1.2546 -0.8902
14816TIP3    H265940   6.436   2.560   2.649  1.3389  0.7069 -1.7648
14817TIP3   OH265941   1.406   5.591  15.153  0.0604  0.7115 -0.2134
14817TIP3    H165942   1.446   5.621  15.235 -0.1862 -1.2806  0.6968
14817TIP3    H265943   1.324   5.639  15.147  0.5334  1.5954  0.1924
14818TIP3   OH265944   3.336   2.265   4.592 -0.2955  0.1833  0.0927
14818TIP3    H165945   3.252   2.237   4.628 -0.1832  1.3139  1.3079
14818TIP3    H265946   3.358   2.199   4.527 -2.0918 -0.1711 -0.1887
14819TIP3   OH265947   2.390   1.307   0.598  0.3174  0.1087  0.5908
14819TIP3    H165948   2.354   1.219   0.587  1.6400 -0.5154  1.1179
14819TIP3    H265949   2.471   1.295   0.647 -1.1661  1.9390  3.8316
14820TIP3   OH265950   1.598   1.355  12.480  0.3483 -0.5574  0.1905
14820TIP3    H165951   1.535   1.389  12.544  0.1707 -0.9982  0.2494
14820TIP3    H265952   1.583   1.261  12.479 -0.1411 -0.4805 -1.0247
14821TIP3   OH265953   5.252   1.660  14.866  0.5314  0.1527  0.0332
14821TIP3    H165954   5.265   1.566  14.878  1.6643  0.3030  0.0977
14821TIP3    H265955   5.214   1.690  14.949  0.5471 -0.1804  0.1594
14822TIP3   OH265956   6.432   5.971  12.966 -0.2736 -0.0975  0.4853
14822TIP3    H165957   6.481   5.900  13.009  0.2408  0.3035  0.5723
14822TIP3    H265958   6.346   5.933  12.949  0.2057 -0.9831 -0.1001
14823TIP3   OH265959   0.002   4.797   5.391 -0.4106  0.2424  0.2410
14823TIP3    H165960   0.018   4.703   5.385 -0.5198  0.1844  0.8128
14823TIP3    H265961   0.053   4.835   5.320  0.1112 -0.1937  0.3802
14824TIP3   OH265962   2.954   0.940  14.736  0.6167  0.1271  0.5579
14824TIP3    H165963   2.865   0.926  14.768  0.0385 -0.0141 -0.9910
14824TIP3    H265964   2.957   1.033  14.711  0.4619 -0.1617 -0.5981
14825TIP3   OH265965   0.397   4.888   2.405  0.1895  0.3685  0.1444
14825TIP3    H165966   0.430   4.900   2.494 -0.6989 -0.0127  0.5406
14825TIP3    H265967   0.416   4.797   2.384 -0.0783  0.3080  0.1544
14826TIP3   OH265968   6.635   2.296  16.216 -0.2994  0.1085  0.3413
14826TIP3    H165969   6.680   2.276  16.134 -0.0037 -1.0320  0.7564
14826TIP3    H265970   6.623   2.391  16.215  1.2178  0.3142 -0.2343
14827TIP3   OH265971   0.802   0.407   6.696  0.0092  0.7180 -0.0659
14827TIP3    H165972   0.848   0.487   6.723 -1.5570  1.2132  1.3870
14827TIP3    H265973   0.731   0.399   6.759  0.4242 -2.1617  0.1631
14828TIP3   OH265974   4.443   0.371   5.291 -0.1571 -0.0268 -0.1835
14828TIP3    H165975   4.491   0.405   5.215  1.4950  0.2057  0.9194
14828TIP3    H265976   4.509   0.363   5.360 -0.9770 -2.9801  0.4110
14829TIP3   OH265977   4.621   6.715  16.568  0.1858 -0.1125 -0.2635
14829TIP3    H165978   4.591   6.694  16.480 -0.9488  1.7901 -0.3931
14829TIP3    H265979   4.563   6.665  16.626 -0.3313  0.1116 -0.5835
14830TIP3   OH265980   2.418   0.903  14.582  0.1669  0.0746 -0.2656
14830TIP3    H165981   2.349   0.939  14.637 -1.7830  0.2033 -2.6330
14830TIP3    H265982   2.488   0.968  14.585 -0.2835  0.5254  1.2325
14831TIP3   OH265983   0.890   2.253   6.087 -0.0698 -0.0697  0.1936
14831TIP3    H165984   0.836   2.264   6.009 -0.7406  0.8021  0.7595
14831TIP3    H265985   0.892   2.159   6.103 -2.4903 -0.0577  0.8679
14832TIP3   OH265986   0.870   5.483   6.444  0.0609 -0.0696  0.3958
14832TIP3    H165987   0.843   5.556   6.388  0.1073  0.7033  1.3534
14832TIP3    H265988   0.879   5.522   6.531  0.0766 -1.2316  0.9270
14833TIP3   OH265989   5.341   4.855  15.647  0.6407  0.2286  0.1707
14833TIP3    H165990   5.378   4.926  15.594  0.6490 -1.6730 -2.6092
14833TIP3    H265991   5.415   4.796  15.663 -0.1662 -1.4100 -1.6593
14834TIP3   OH265992   2.034   3.159  12.665 -0.2542  0.0962  0.2524
14834TIP3    H165993   2.074   3.185  12.748  1.0214 -1.1647  0.0845
14834TIP3    H265994   2.075   3.216  12.600 -0.0099 -0.0169  0.3031
14835TIP3   OH265995   5.381   4.327  11.138  0.3895  0.2118 -0.6395
14835TIP3    H165996   5.292   4.328  11.104 -0.6161 -1.4831  1.7200
14835TIP3    H265997   5.435   4.301  11.063 -1.3103 -0.4870 -1.6802
14836TIP3   OH265998   0.546   0.353   1.247 -0.1511 -0.2652 -0.5526
14836TIP3    H165999   0.532   0.430   1.192 -1.0142  0.6296  0.8734
14836TIP3    H266000   0.619   0.307   1.205  0.3688  1.3001 -1.4420
14837TIP3   OH266001   5.755   0.271  14.655 -0.0455 -0.2931 -0.2490
14837TIP3    H166002   5.806   0.203  14.609 -0.0452 -0.1436 -0.4694
14837TIP3    H266003   5.819   0.340  14.673  0.5331 -1.3457  2.1003
14838TIP3   OH266004   4.028   2.246   0.507 -0.0692 -0.2470 -0.3394
14838TIP3    H166005   3.954   2.278   0.560 -0.6901 -1.2894 -0.5491
14838TIP3    H266006   4.097   2.228   0.571 -1.2967 -2.8807  0.3753
14839TIP3   OH266007   5.844   4.071   5.702 -0.3616  0.2047 -0.2684
14839TIP3    H166008   5.887   4.016   5.767  0.4211 -0.0986 -1.0203
14839TIP3    H266009   5.903   4.147   5.692  0.3164 -0.4696 -1.6949
14840TIP3   OH266010   0.002   3.644  13.481 -0.2837  0.2260  0.1216
14840TIP3    H166011  -0.032   3.618  13.395 -1.0322 -0.3460  0.5805
14840TIP3    H266012  -0.070   3.690  13.523 -1.8856 -3.8378  2.4262
14841TIP3   OH266013   5.785   1.461  10.550 -0.4631  0.3251 -0.2955
14841TIP3    H166014   5.801   1.555  10.543 -0.3018  0.4675  1.4444
14841TIP3    H266015   5.869   1.420  10.526 -0.0180  0.7102  0.5593
14842TIP3   OH266016   1.800   4.505   0.969  0.2150  0.1477 -0.3822
14842TIP3    H166017   1.816   4.437   1.034 -1.5536 -0.9077 -1.0115
14842TIP3    H266018   1.738   4.565   1.011  0.4277  0.4281 -0.4630
14843TIP3   OH266019   5.151   0.738   5.894  0.5205  0.0461 -0.0271
14843TIP3    H166020   5.236   0.774   5.871 -0.5940  1.3686 -2.4067
14843TIP3    H266021   5.107   0.809   5.941  1.0992 -1.0711  2.3775
14844TIP3   OH266022   2.972   1.950  16.336 -0.4372  0.1455  0.1798
14844TIP3    H166023   2.950   2.042  16.319 -0.6972 -0.1657 -1.3649
14844TIP3    H266024   3.067   1.945  16.323 -0.3012  0.3364  1.0438
14845TIP3   OH266025   3.333   5.096  13.668 -0.2795 -0.0181  0.1050
14845TIP3    H166026   3.351   5.153  13.743  0.6892  1.6066 -1.2817
14845TIP3    H266027   3.420   5.069  13.638 -0.4777  1.2961 -1.8174
14846TIP3   OH266028   6.091   4.638   0.761 -0.2687  0.4178 -0.3486
14846TIP3    H166029   6.104   4.552   0.722 -1.7342  0.2112 -0.4302
14846TIP3    H266030   6.126   4.630   0.850 -2.9479 -1.1937  0.6774
14847TIP3   OH266031   5.731   5.662  16.036 -0.8786  0.3055 -0.4838
14847TIP3    H166032   5.719   5.704  15.951 -1.0363 -1.1156 -1.1873
14847TIP3    H266033   5.758   5.573  16.015 -2.0783 -0.4337  0.9243
14848TIP3   OH266034   6.671   3.047  15.567  0.1158 -0.2512  0.2609
14848TIP3    H166035   6.735   3.118  15.579  0.4296 -0.1215 -1.7505
14848TIP3    H266036   6.622   3.073  15.489 -1.6284 -0.9349  1.0969
14849TIP3   OH266037   5.850   6.413   1.441 -0.0268 -0.0449  0.2348
14849TIP3    H166038   5.770   6.460   1.461  0.0599  0.3880 -0.3950
14849TIP3    H266039   5.916   6.449   1.500  0.0465  0.6646 -0.2633
14850TIP3   OH266040   5.157   2.017   3.087 -0.0986  0.0307  0.2182
14850TIP3    H166041   5.199   2.070   3.018  0.2883  0.3398  0.6828
14850TIP3    H266042   5.072   2.059   3.101  0.7733  1.4611  1.6030
14851TIP3   OH266043   2.239   2.416   1.190  0.2078 -0.2843 -0.2205
14851TIP3    H166044   2.226   2.492   1.133  0.3995  1.3747  1.7983
14851TIP3    H266045   2.169   2.355   1.165 -1.9578  1.8750  0.0927
14852TIP3   OH266046   0.859   6.417   0.560  0.2411  0.3661 -0.1504
14852TIP3    H166047   0.815   6.427   0.645  2.1701 -1.5049  1.1822
14852TIP3    H266048   0.859   6.505   0.522 -1.7010  1.0341  1.2266
14853TIP3   OH266049   3.855   4.989   1.722 -0.2310 -0.6436  0.0035
14853TIP3    H166050   3.882   4.910   1.676 -1.4006 -0.9296 -0.2418
14853TIP3    H266051   3.917   5.056   1.694  2.0068 -1.8556  1.7128
14854TIP3   OH266052   4.191   6.197  13.251 -0.4568 -0.4240 -0.4535
14854TIP3    H166053   4.184   6.225  13.160  0.9614  1.4242 -0.0639
14854TIP3    H266054   4.101   6.175  13.276 -1.8073  3.4990 -1.0389
14855TIP3   OH266055   2.503   0.457  13.567 -0.6733 -0.0046 -0.6824
14855TIP3    H166056   2.434   0.430  13.507 -1.1157 -0.2274 -0.0847
14855TIP3    H266057   2.574   0.394  13.553 -0.8527 -0.1726 -0.8335
14856TIP3   OH266058   3.826   0.406  12.531 -0.6774 -0.3785 -0.0293
14856TIP3    H166059   3.876   0.455  12.466 -1.1773  0.5236  0.2606
14856TIP3    H266060   3.857   0.316  12.521  2.2769  0.3858  1.3208
14857TIP3   OH266061   2.431   5.597  14.253 -0.2190 -0.1193  0.3308
14857TIP3    H166062   2.518   5.638  14.253  0.5135 -1.6157  0.6893
14857TIP3    H266063   2.417   5.570  14.162  1.2195 -2.8835  0.8292
14858TIP3   OH266064   6.540   6.618   5.370  0.4016 -0.2887  0.0612
14858TIP3    H166065   6.477   6.684   5.399 -0.0196  0.1624 -1.7812
14858TIP3    H266066   6.625   6.651   5.399 -0.0469 -0.2665  1.4392
14859TIP3   OH266067   2.716   0.420   2.916  0.6568 -0.3812 -0.0854
14859TIP3    H166068   2.656   0.369   2.970 -0.0370 -1.2616 -1.6310
14859TIP3    H266069   2.684   0.510   2.923 -0.2070 -0.6803 -0.0575
14860TIP3   OH266070   3.698   2.998   4.599  0.3968  0.0987  0.7627
14860TIP3    H166071   3.721   2.912   4.632  0.6313  0.3471  1.2525
14860TIP3    H266072   3.747   3.007   4.518 -2.3492 -1.6907 -1.2822
14861TIP3   OH266073   3.218   4.720  12.777 -0.5032 -0.2036  0.1019
14861TIP3    H166074   3.193   4.805  12.741 -2.3531 -0.9181 -0.4363
14861TIP3    H266075   3.313   4.719  12.775 -0.4383  1.9349  0.3361
14862TIP3   OH266076   2.113   5.670  10.542 -0.0054 -0.4900 -0.0180
14862TIP3    H166077   2.183   5.668  10.477 -0.3987 -1.0441 -0.4337
14862TIP3    H266078   2.063   5.590  10.526  0.9875 -1.6415  2.1910
14863TIP3   OH266079   3.377   5.127  14.251  0.3858 -0.2901  0.2336
14863TIP3    H166080   3.402   5.075  14.175 -0.4913 -0.8154  0.2924
14863TIP3    H266081   3.381   5.066  14.324 -0.4704 -0.2388  0.3305
14864TIP3   OH266082   3.809   4.741   1.275  0.0489  0.5093 -0.0071
14864TIP3    H166083   3.902   4.758   1.265 -0.3244  1.4169 -3.0373
14864TIP3    H266084   3.778   4.723   1.186 -2.4470 -1.1101  1.0743
14865TIP3   OH266085   1.030   3.328   0.179 -0.4967  0.2024 -0.0329
14865TIP3    H166086   1.008   3.387   0.106  1.6255  1.5295  0.3231
14865TIP3    H266087   1.082   3.259   0.138 -0.6274  0.0954 -0.0177
14866TIP3   OH266088   1.753   2.440   2.469 -0.3767  0.2217  0.1705
14866TIP3    H166089   1.829   2.460   2.414 -0.8116  0.1552 -0.4525
14866TIP3    H266090   1.772   2.485   2.552  0.0538  0.7214 -0.1936
14867TIP3   OH266091   5.836   2.932  14.362 -0.4020 -0.0518  0.6299
14867TIP3    H166092   5.888   3.012  14.349  0.5872 -0.5845  1.1359
14867TIP3    H266093   5.793   2.945  14.447 -1.2277  0.4567  0.1379
14868TIP3   OH266094   1.570   3.509   0.244 -0.4416  0.4082 -0.6473
14868TIP3    H166095   1.555   3.455   0.167 -0.1805 -1.9489  0.8452
14868TIP3    H266096   1.538   3.455   0.317  0.6364  1.9353  1.0339
14869TIP3   OH266097   2.065   5.846  14.321  0.0331 -0.0744  0.1678
14869TIP3    H166098   2.021   5.830  14.237 -1.3904 -0.6307  0.9964
14869TIP3    H266099   2.089   5.939  14.317  0.9532 -0.3327 -1.2693
14870TIP3   OH266100   5.942   4.015  12.916 -0.1647  0.0550 -0.0434
14870TIP3    H166101   5.848   4.026  12.910 -0.3285  0.7346  2.5930
14870TIP3    H266102   5.954   3.928  12.955  0.4339 -0.8375 -2.0522
14871TIP3   OH266103   6.026   1.854   3.538  0.0801  0.3495  0.2079
14871TIP3    H166104   6.095   1.806   3.583  0.0700 -0.8647 -1.0210
14871TIP3    H266105   5.961   1.788   3.516  0.2510  0.8008 -1.8835
14872TIP3   OH266106   1.483   4.880   4.309  0.1755  0.4892 -0.1602
14872TIP3    H166107   1.510   4.905   4.397 -0.2467 -2.2605  0.8713
14872TIP3    H266108   1.397   4.840   4.321  0.1255  0.0186 -1.8184
14873TIP3   OH266109   4.456   1.987   1.645 -0.3435 -0.1737 -0.2705
14873TIP3    H166110   4.423   1.922   1.708 -1.1454  0.1430 -0.3475
14873TIP3    H266111   4.550   1.991   1.662  0.0725 -2.7686 -1.5898
14874TIP3   OH266112   4.946   3.716   5.697  0.1278 -0.0288 -0.1804
14874TIP3    H166113   4.911   3.635   5.732  2.6049 -0.7033  0.9698
14874TIP3    H266114   4.902   3.785   5.747 -1.1067 -0.6868 -0.3234
14875TIP3   OH266115   0.207   5.110  16.360  0.0939  0.1938 -0.0979
14875TIP3    H166116   0.196   5.205  16.352 -0.4225  0.1792  0.3345
14875TIP3    H266117   0.253   5.084  16.280  1.6767  1.0145  0.4980
14876TIP3   OH266118   1.761   0.523   5.228  0.4188 -0.3575  0.3354
14876TIP3    H166119   1.851   0.553   5.237  0.9620 -1.6135 -0.6150
14876TIP3    H266120   1.732   0.560   5.144 -0.4308  1.1124  1.2192
14877TIP3   OH266121   1.237   4.463   4.095 -0.1478 -0.3466  0.1244
14877TIP3    H166122   1.322   4.489   4.129  0.5687 -1.6308 -0.6129
14877TIP3    H266123   1.198   4.410   4.164 -1.1709  1.6646  1.2028
14878TIP3   OH266124   6.450   3.241   4.887  0.0878 -0.5546 -0.3856
14878TIP3    H166125   6.517   3.224   4.821 -0.3137 -0.3284 -0.8645
14878TIP3    H266126   6.374   3.192   4.856 -0.9097  1.5615 -1.4905
14879TIP3   OH266127   0.249   3.590  12.274 -0.1612  0.5425  0.1246
14879TIP3    H166128   0.194   3.527  12.228 -0.0339  0.8643 -0.4900
14879TIP3    H266129   0.298   3.538  12.337 -1.4855  0.3177  0.9924
14880TIP3   OH266130   0.305   2.032  15.006 -0.9736 -0.5377  0.5531
14880TIP3    H166131   0.274   1.979  14.932  2.7017  0.0310 -1.6354
14880TIP3    H266132   0.391   1.997  15.027 -0.6970  1.1973  2.6706
14881TIP3   OH266133   0.429   3.695  16.607 -0.2063  0.1155  0.4238
14881TIP3    H166134   0.370   3.767  16.631 -0.5045  0.2037 -0.5460
14881TIP3    H266135   0.436   3.700  16.512  2.1266  0.7104  0.5618
14882TIP3   OH266136   2.071   0.268  11.397 -0.2522  0.4346  0.7190
14882TIP3    H166137   2.059   0.218  11.478 -0.5977 -0.5593  0.0762
14882TIP3    H266138   2.031   0.214  11.329 -0.5520  1.5533 -0.0285
14883TIP3   OH266139   4.083   2.877  13.435  0.4124 -0.2548 -0.2501
14883TIP3    H166140   4.149   2.825  13.388  0.2139 -1.7008  1.0014
14883TIP3    H266141   4.104   2.968  13.413  0.9993 -0.8164 -2.2272
14884TIP3   OH266142   2.822   3.586   0.248 -0.4848 -0.5328 -0.0121
14884TIP3    H166143   2.844   3.567   0.339 -1.1050  2.6480  0.9474
14884TIP3    H266144   2.804   3.681   0.248 -0.6963 -0.4779 -3.4143
14885TIP3   OH266145   0.029   5.146   5.922 -0.2036 -0.2636 -0.5931
14885TIP3    H166146   0.028   5.127   6.016 -0.2054  0.2808 -0.4802
14885TIP3    H266147   0.054   5.238   5.916  1.5370 -0.7222 -1.2057
14886TIP3   OH266148   3.696   0.473  13.691 -0.6256  0.2686 -0.4552
14886TIP3    H166149   3.637   0.465  13.616 -2.3013 -1.1529  0.9303
14886TIP3    H266150   3.694   0.387  13.732  0.1304  1.0350  1.2990
14887TIP3   OH266151   1.042   4.076   3.003  0.3477 -0.7381 -0.8854
14887TIP3    H166152   0.973   4.030   3.049 -0.3485  0.7476 -0.3789
14887TIP3    H266153   1.110   4.091   3.069  0.0239  0.0274 -0.7101
14888TIP3   OH266154   0.826   2.864  11.860 -0.4690 -0.2869 -0.2095
14888TIP3    H166155   0.878   2.927  11.909 -2.6366  1.2959  0.2350
14888TIP3    H266156   0.888   2.799  11.830  1.6856  1.3535  0.4611
14889TIP3   OH266157   1.097   2.609  13.190  0.1018  0.2575  0.3287
14889TIP3    H166158   1.116   2.633  13.100 -0.1321 -1.8504 -0.3177
14889TIP3    H266159   1.010   2.569  13.187  1.3150 -2.6350  0.9084
14890TIP3   OH266160   1.029   6.156   3.981 -0.1227  0.0518  0.2338
14890TIP3    H166161   1.004   6.066   3.964 -0.4298 -0.3397  2.4327
14890TIP3    H266162   0.961   6.209   3.938 -0.7061 -0.8127  0.0705
14891TIP3   OH266163   1.803   3.707  13.117  0.2821  0.2455 -0.9573
14891TIP3    H166164   1.849   3.630  13.151 -1.0191 -0.0202  0.3522
14891TIP3    H266165   1.856   3.781  13.145 -0.7371  0.0401  1.8661
14892TIP3   OH266166   4.053   1.756  16.240  0.3264  0.0764  0.2382
14892TIP3    H166167   4.138   1.749  16.196  0.3421 -1.1853  0.4354
14892TIP3    H266168   4.064   1.706  16.320 -0.6183 -0.1107  0.2548
14893TIP3   OH266169   1.515   2.862   2.175 -0.0205  0.0008  0.0875
14893TIP3    H166170   1.444   2.908   2.129 -0.1132  1.1551  1.3083
14893TIP3    H266171   1.484   2.772   2.183  0.5566 -0.6218 -3.2218
14894TIP3   OH266172   1.031   5.731  15.415  0.3371  0.3364  0.8278
14894TIP3    H166173   0.953   5.766  15.459 -0.5177 -0.6122  0.1125
14894TIP3    H266174   1.086   5.698  15.486  0.5928  1.9435  1.4196
14895TIP3   OH266175   1.162   2.336   3.123  0.1991  0.1860  0.2242
14895TIP3    H166176   1.252   2.317   3.096 -0.2480 -0.6355 -0.7772
14895TIP3    H266177   1.162   2.429   3.146  1.6034 -0.1020  1.5673
14896TIP3   OH266178   4.781   2.402  16.467 -0.3713  0.1730 -0.2313
14896TIP3    H166179   4.834   2.376  16.393  0.4006 -0.7510  0.6228
14896TIP3    H266180   4.694   2.366  16.449  0.7336 -3.6478  1.1140
14897TIP3   OH266181   3.237   1.641   6.217 -0.2420 -0.1598 -0.2464
14897TIP3    H166182   3.176   1.582   6.261  0.0479 -0.8549 -0.7640
14897TIP3    H266183   3.321   1.596   6.219 -0.1172  0.0106 -1.0681
14898TIP3   OH266184   4.111   6.605  15.424 -0.0145 -0.5034  0.3550
14898TIP3    H166185   4.156   6.679  15.463  0.1613 -1.0237  1.1689
14898TIP3    H266186   4.063   6.642  15.350  1.3068  0.1555 -0.2023
14899TIP3   OH266187   4.693   4.874   3.390  0.9355 -0.3105  0.0208
14899TIP3    H166188   4.698   4.787   3.350 -0.9195  0.1538 -1.3418
14899TIP3    H266189   4.718   4.934   3.319  2.3985  0.2919  1.0056
14900TIP3   OH266190   2.605   1.960  13.901 -0.1087 -0.0588 -0.1749
14900TIP3    H166191   2.653   2.029  13.854 -0.0669 -0.7443 -1.1709
14900TIP3    H266192   2.563   1.909  13.832 -0.5090 -0.7642  0.5754
14901TIP3   OH266193   0.291   5.222   4.161 -0.4078 -0.3676 -0.0521
14901TIP3    H166194   0.336   5.244   4.243 -1.7631  1.7049  0.2224
14901TIP3    H266195   0.198   5.220   4.184 -0.6917 -1.7072 -1.1707
14902TIP3   OH266196   3.820   1.782  16.778 -0.4917  0.4869  0.0450
14902TIP3    H166197   3.791   1.691  16.783 -1.0367  0.7114  2.0150
14902TIP3    H266198   3.915   1.777  16.770 -0.4833 -0.2563  0.4886
14903TIP3   OH266199   0.817   3.825   6.366 -0.3866  0.3609  0.3557
14903TIP3    H166200   0.792   3.889   6.300 -2.2247 -0.2476  0.4041
14903TIP3    H266201   0.775   3.855   6.447 -0.1776 -0.1945  0.6810
14904TIP3   OH266202   4.644   0.911   3.992 -0.4284  0.0511  0.6346
14904TIP3    H166203   4.557   0.952   3.990 -0.9729 -1.0815  0.7061
14904TIP3    H266204   4.629   0.820   3.967  0.8765  0.0559 -0.2784
14905TIP3   OH266205   5.407   5.860  15.905  0.2349 -0.0961 -0.5618
14905TIP3    H166206   5.439   5.910  15.980 -2.9960 -1.3119  1.8492
14905TIP3    H266207   5.345   5.918  15.862 -1.1909 -0.8430  0.4014
14906TIP3   OH266208   0.152   6.625   1.168 -0.5477 -1.2190  0.0697
14906TIP3    H166209   0.246   6.610   1.162  0.2998  2.8103  0.1077
14906TIP3    H266210   0.137   6.644   1.261 -1.4024 -1.7941  0.0592
14907TIP3   OH266211   1.580   0.311  12.686  0.4939  0.1853 -0.2398
14907TIP3    H166212   1.562   0.217  12.681 -3.2069  0.7489  0.3172
14907TIP3    H266213   1.568   0.343  12.597 -1.0979  0.5200  0.0763
14908TIP3   OH266214   4.734   3.893   5.816  0.5420 -0.0447 -0.4160
14908TIP3    H166215   4.788   3.876   5.893  2.2897  0.4121 -1.4799
14908TIP3    H266216   4.711   3.986   5.823 -0.7573 -0.3930  0.3855
14909TIP3   OH266217   3.662   0.110   2.131 -0.0089 -0.1946 -0.6783
14909TIP3    H166218   3.622   0.178   2.077 -2.7643 -0.6986  0.5217
14909TIP3    H266219   3.716   0.157   2.194 -0.2683  0.7320 -1.1359
14910TIP3   OH266220   0.809   0.987  11.681 -0.2393 -0.1249 -0.1091
14910TIP3    H166221   0.756   0.907  11.685 -1.5957  0.4508 -3.3526
14910TIP3    H266222   0.754   1.053  11.724 -1.0549 -0.1020 -1.1310
14911TIP3   OH266223   1.597   6.654  13.532  0.1560  0.3438 -0.4021
14911TIP3    H166224   1.689   6.644  13.508  0.3778 -0.0926  0.6009
14911TIP3    H266225   1.552   6.673  13.449  0.7321 -2.0483 -1.3362
14912TIP3   OH266226   1.324   1.273   1.999  0.4519  0.1019 -0.0265
14912TIP3    H166227   1.258   1.253   1.933  2.7536 -2.3864 -1.7947
14912TIP3    H266228   1.339   1.190   2.045  1.8628  0.7510  0.7592
14913TIP3   OH266229   3.873   3.461   3.395 -0.0043 -0.2135  0.0078
14913TIP3    H166230   3.859   3.367   3.408  1.8974 -0.5924 -0.3664
14913TIP3    H266231   3.951   3.481   3.448 -0.1069  1.0595 -0.2933
14914TIP3   OH266232   2.792   2.085   0.095  0.1166 -0.4019  0.3272
14914TIP3    H166233   2.880   2.046   0.096  1.3440  2.1815  1.2056
14914TIP3    H266234   2.788   2.131   0.011 -0.8820 -1.4190 -0.2077
14915TIP3   OH266235   4.660   2.023   4.539  0.2689  0.4528 -0.3638
14915TIP3    H166236   4.732   2.053   4.595  1.1628  0.2639 -1.3743
14915TIP3    H266237   4.687   2.048   4.451  0.4236 -2.0603 -1.1089
14916TIP3   OH266238   6.216   2.083   6.269 -0.2875  0.0622  0.1034
14916TIP3    H166239   6.239   2.137   6.344 -0.3548  1.5849 -0.9247
14916TIP3    H266240   6.132   2.043   6.293  1.7018 -3.1794  2.6491
14917TIP3   OH266241   6.575   6.215   2.952  0.0531 -0.1206 -0.5674
14917TIP3    H166242   6.494   6.239   2.906  0.3732  0.3317 -0.8997
14917TIP3    H266243   6.547   6.203   3.043 -0.7086 -1.6614 -0.9643
14918TIP3   OH266244   4.013   5.118  14.043  0.5996 -0.0079 -0.0689
14918TIP3    H166245   4.077   5.071  14.098  0.0316 -1.1429 -0.3375
14918TIP3    H266246   4.061   5.137  13.962  0.4731 -1.3428 -0.4852
14919TIP3   OH266247   0.269   2.141  14.196 -0.3279  0.2532 -0.8281
14919TIP3    H166248   0.288   2.208  14.262  0.0962 -0.2077 -0.4693
14919TIP3    H266249   0.174   2.143  14.186 -0.3388  0.7494 -0.6504
14920TIP3   OH266250   3.497   0.616   2.090 -0.2562  0.6820  0.4327
14920TIP3    H166251   3.485   0.567   2.009  1.7391 -3.0676  2.1487
14920TIP3    H266252   3.562   0.683   2.068  0.2369 -0.2403 -1.0886
14921TIP3   OH266253   6.154   2.768   0.502 -0.0308 -0.6211  0.2791
14921TIP3    H166254   6.172   2.812   0.419  1.2427 -1.2082  0.2216
14921TIP3    H266255   6.240   2.757   0.543 -0.3289 -2.6999  0.4576
14922TIP3   OH266256   2.552   5.482   0.711  0.0587 -1.0134  0.4779
14922TIP3    H166257   2.626   5.540   0.697  0.1849 -1.0719  0.8689
14922TIP3    H266258   2.493   5.499   0.638 -0.5546  0.6232  1.2980
14923TIP3   OH266259   6.241   3.415  17.145 -0.1940 -1.0398  0.1567
14923TIP3    H166260   6.328   3.384  17.120  0.3180  0.6498 -0.3023
14923TIP3    H266261   6.254   3.507  17.168 -1.9875 -0.5353 -0.6647
14924TIP3   OH266262   0.188   6.804  11.891 -0.1676  0.4656 -1.2017
14924TIP3    H166263   0.184   6.824  11.797 -1.4668  0.5432 -1.1440
14924TIP3    H266264   0.259   6.859  11.924  1.3522 -0.6818 -2.3895
14925TIP3   OH266265   0.600   1.940  10.370  0.1203 -0.3566 -0.2742
14925TIP3    H166266   0.680   1.890  10.354 -0.0764 -0.8491  0.2580
14925TIP3    H266267   0.617   1.989  10.450 -0.5579 -1.4316  0.5436
14926TIP3   OH266268   3.062   0.195   5.748 -0.0559 -0.1258 -0.6205
14926TIP3    H166269   3.074   0.233   5.661  0.0138  1.2355 -0.0525
14926TIP3    H266270   3.150   0.194   5.786 -0.3761  1.3950  0.2329
14927TIP3   OH266271   5.958   3.842  14.300  0.4635 -0.0684 -0.4573
14927TIP3    H166272   5.950   3.747  14.297 -0.9455  0.0148 -0.0251
14927TIP3    H266273   5.876   3.875  14.261  0.0634  0.9448  1.1381
14928TIP3   OH266274   0.476   0.511  16.601  0.0487 -0.2314  0.4704
14928TIP3    H166275   0.512   0.497  16.688 -1.0150 -0.3916  0.8993
14928TIP3    H266276   0.456   0.423  16.569 -2.2828 -0.0502  1.2714
14929TIP3   OH266277   0.086   1.113  14.044  0.6979 -0.0119  0.4792
14929TIP3    H166278   0.101   1.163  14.124  0.3884  1.8910 -0.6014
14929TIP3    H266279   0.111   1.172  13.973 -0.6269 -1.0158 -0.9072
14930TIP3   OH266280   6.298   3.687  17.173  0.4193  0.2118  0.7253
14930TIP3    H166281   6.384   3.693  17.132  0.5861  0.5202  1.1169
14930TIP3    H266282   6.248   3.760  17.137  0.1158 -0.3192  0.0368
14931TIP3   OH266283   3.325   3.932   2.592  0.0185 -0.3587 -0.2933
14931TIP3    H166284   3.283   3.945   2.677  0.6896  1.5752 -0.2096
14931TIP3    H266285   3.345   4.021   2.561  1.4766 -1.1025 -1.6180
14932TIP3   OH266286   2.523   1.794   3.719  0.2823  0.2956  0.5253
14932TIP3    H166287   2.596   1.832   3.768  0.3844  3.1380 -1.5412
14932TIP3    H266288   2.452   1.857   3.728 -1.3851 -1.5731  1.0632
14933TIP3   OH266289   4.006   1.068  11.895 -0.2857 -0.0773 -0.1501
14933TIP3    H166290   4.032   0.992  11.844  3.2031 -0.1413  1.4112
14933TIP3    H266291   4.018   1.142  11.836  0.8557 -0.4015 -0.3578
14934TIP3   OH266292   6.320   3.934   1.813  0.1280  0.4915  0.0824
14934TIP3    H166293   6.314   3.850   1.769  1.0845  1.0521 -1.1813
14934TIP3    H266294   6.314   3.913   1.906  0.7036 -1.0028 -0.1973
14935TIP3   OH266295   3.061   2.466  11.117  0.4090 -0.0871 -0.1176
14935TIP3    H166296   2.996   2.535  11.108  1.0784  0.4816 -0.6697
14935TIP3    H266297   3.146   2.511  11.112  0.8487 -0.8811 -0.0062
14936TIP3   OH266298   5.630   6.614   5.591 -0.1031 -0.0860 -0.3031
14936TIP3    H166299   5.549   6.583   5.632  0.4040 -0.4296  0.4729
14936TIP3    H266300   5.601   6.676   5.524 -0.9463  1.2513  1.2221
14937TIP3   OH266301   6.693   1.117  11.899  0.0534 -0.1749 -0.2407
14937TIP3    H166302   6.664   1.067  11.976 -0.0275  1.0430  0.5357
14937TIP3    H266303   6.783   1.088  11.885 -0.2464 -1.1402 -0.3148
14938TIP3   OH266304   2.108   1.285   2.550 -0.0579  0.1133 -0.2740
14938TIP3    H166305   2.085   1.248   2.635  2.0714 -1.4282 -0.2900
14938TIP3    H266306   2.030   1.273   2.496 -0.5359 -1.3602  0.7033
14939TIP3   OH266307   5.314   2.004   2.098 -0.1756 -0.2729 -0.7771
14939TIP3    H166308   5.291   2.096   2.080 -0.9715 -0.5014 -0.9666
14939TIP3    H266309   5.408   2.000   2.084 -0.1347  0.5164 -0.7845
14940TIP3   OH266310   0.649   0.400   3.392  0.3503  0.1543  0.5307
14940TIP3    H166311   0.582   0.405   3.324 -0.4726  1.0055  1.3713
14940TIP3    H266312   0.731   0.418   3.347  0.3254 -2.6993 -0.8805
14941TIP3   OH266313   5.067   0.525  16.460 -0.0448  0.1485 -0.6237
14941TIP3    H166314   4.986   0.557  16.500 -1.0583 -0.9367 -1.7481
14941TIP3    H266315   5.136   0.558  16.518 -1.2779  0.9659  0.4502
14942TIP3   OH266316   3.608   3.576   6.259  0.3931 -0.2457 -0.1001
14942TIP3    H166317   3.580   3.496   6.303 -2.4516 -0.8983 -2.7410
14942TIP3    H266318   3.550   3.644   6.294  0.1353 -0.1679 -0.6680
14943TIP3   OH266319   0.867   5.146  15.395  0.0672 -0.3236  0.4424
14943TIP3    H166320   0.825   5.227  15.424  0.6365 -0.0879  0.6313
14943TIP3    H266321   0.842   5.081  15.461 -0.3664 -0.2950  0.3082
14944TIP3   OH266322   5.683   2.681   3.475 -0.1387 -0.2691  0.2937
14944TIP3    H166323   5.711   2.679   3.384 -0.3880  0.0714  0.2031
14944TIP3    H266324   5.664   2.590   3.497  0.4637 -0.4214  0.1796
14945TIP3   OH266325   5.571   1.869   3.228 -0.0246  0.8736  0.1929
14945TIP3    H166326   5.571   1.890   3.135  0.4396  0.5801  0.1220
14945TIP3    H266327   5.638   1.926   3.266 -0.4122  1.1980  0.3974
14946TIP3   OH266328   2.998   0.530   1.882  0.3415  0.3744  0.1297
14946TIP3    H166329   3.051   0.564   1.955 -1.0547  2.7377  0.1725
14946TIP3    H266330   2.965   0.446   1.913  1.4003  0.3850  1.3859
14947TIP3   OH266331   5.100   4.606   4.843  0.4490  0.3494 -0.3564
14947TIP3    H166332   5.070   4.519   4.818  1.1495  0.1266 -0.4480
14947TIP3    H266333   5.185   4.615   4.800  0.3781  1.0799 -0.3516
14948TIP3   OH266334   3.025   4.123   0.340 -0.3209 -0.2744  1.3269
14948TIP3    H166335   3.108   4.091   0.304 -0.1153  1.2630  0.3090
14948TIP3    H266336   3.051   4.193   0.400 -0.8280 -0.8842  2.2826
14949TIP3   OH266337   4.798   4.563  12.606  0.1193 -0.2654  0.0898
14949TIP3    H166338   4.779   4.638  12.550 -0.1858 -0.8010 -0.5413
14949TIP3    H266339   4.843   4.501  12.549 -1.1279 -1.2558  0.1272
14950TIP3   OH266340   2.301   6.637   5.437 -0.4647 -0.1016  0.4336
14950TIP3    H166341   2.340   6.557   5.472 -0.4529 -0.5822 -0.6382
14950TIP3    H266342   2.220   6.607   5.395 -0.2652  0.3873 -0.3126
14951TIP3   OH266343   1.254   0.089   5.620 -0.2502  0.0229  0.5906
14951TIP3    H166344   1.349   0.097   5.611 -0.1260 -1.7514 -0.1568
14951TIP3    H266345   1.220   0.177   5.604  1.1913  0.4408 -0.2895
14952TIP3   OH266346   1.789   4.182   1.483 -0.0656 -0.3744 -0.1759
14952TIP3    H166347   1.868   4.224   1.448 -1.7137  2.8116 -0.4045
14952TIP3    H266348   1.738   4.159   1.406 -1.2297  1.5864 -0.0483
14953TIP3   OH266349   4.030   2.480  13.082 -0.5584 -0.0487  0.9554
14953TIP3    H166350   4.042   2.545  13.013 -0.2684 -0.0306  1.0224
14953TIP3    H266351   4.007   2.399  13.035 -0.2843 -0.0563  0.8342
14954TIP3   OH266352   1.819   2.941  14.479  0.1425 -0.2821  0.2820
14954TIP3    H166353   1.846   3.030  14.454  1.8185 -0.9067 -0.2867
14954TIP3    H266354   1.724   2.944  14.480  0.1498  1.2853 -0.6538
14955TIP3   OH266355   5.900   3.047  11.397  0.4117 -0.3476  0.0795
14955TIP3    H166356   5.913   3.083  11.485  0.2645 -0.4322  0.1377
14955TIP3    H266357   5.856   3.116  11.348  0.3403 -0.3635  0.1218
14956TIP3   OH266358   1.868   3.015  16.290 -0.0609  0.4638 -0.4733
14956TIP3    H166359   1.954   3.002  16.330  0.2622 -1.0263 -1.5944
14956TIP3    H266360   1.833   3.092  16.335  0.4184 -0.8693  2.4168
14957TIP3   OH266361   5.752   2.248   0.141 -0.0835 -0.4962  0.2138
14957TIP3    H166362   5.738   2.316   0.207 -1.5510 -1.3482  0.8342
14957TIP3    H266363   5.772   2.297   0.061 -3.2715  0.8708  0.0836
14958TIP3   OH266364   5.326   3.691  16.591 -0.2697  0.1010  0.3455
14958TIP3    H166365   5.374   3.618  16.553  0.1592  1.4516 -1.8715
14958TIP3    H266366   5.256   3.650  16.642  0.8040 -1.8293  0.3551
14959TIP3   OH266367   2.374   1.907  11.698 -0.2110 -0.3048 -0.1637
14959TIP3    H166368   2.365   1.891  11.792 -0.6191  2.6012  0.3705
14959TIP3    H266369   2.447   1.851  11.672 -0.1843 -1.3104  1.8174
14960TIP3   OH266370   4.082   2.787  14.801 -0.5408 -1.0525 -0.0490
14960TIP3    H166371   4.152   2.722  14.806 -0.0830 -0.4837  1.3453
14960TIP3    H266372   4.126   2.868  14.777 -0.6980 -0.6666  0.9362
14961TIP3   OH266373   3.104   4.349  15.660  0.2507  0.3552 -0.3223
14961TIP3    H166374   3.179   4.409  15.662 -0.0893  0.7975 -0.7934
14961TIP3    H266375   3.063   4.364  15.575  0.6295 -1.1357 -0.7949
14962TIP3   OH266376   2.657   3.546  14.801 -0.4347 -0.1592  0.0842
14962TIP3    H166377   2.722   3.483  14.769 -0.3182  0.8341 -1.7552
14962TIP3    H266378   2.692   3.632  14.775 -1.9485  0.4734  0.0131
14963TIP3   OH266379   4.568   3.706  14.900 -0.1004  0.1566  0.2003
14963TIP3    H166380   4.649   3.668  14.935  0.2195  0.5723 -0.0822
14963TIP3    H266381   4.524   3.633  14.856  0.7159  0.2116 -0.7205
14964TIP3   OH266382   0.697   2.186  14.040 -0.1022  0.8383 -0.3813
14964TIP3    H166383   0.681   2.245  14.114  1.6240  0.8041  0.0729
14964TIP3    H266384   0.615   2.138  14.029 -0.4449  0.9609  1.4087
14965TIP3   OH266385   6.452   3.365   3.279  0.3416 -0.0860  0.2921
14965TIP3    H166386   6.378   3.307   3.301  0.5499 -0.9653 -1.2143
14965TIP3    H266387   6.427   3.406   3.197  0.9006  0.7830  0.5453
14966TIP3   OH266388   4.478   4.284   0.542 -0.1478 -0.0816  0.1114
14966TIP3    H166389   4.484   4.379   0.551 -0.5722  0.0667 -0.9649
14966TIP3    H266390   4.568   4.253   0.547 -0.0961  0.2143  1.8119
14967TIP3   OH266391   5.511   5.889  14.098 -0.3474 -0.2602 -0.5451
14967TIP3    H166392   5.599   5.910  14.064  0.2085  1.1924  1.5677
14967TIP3    H266393   5.462   5.971  14.088 -0.6647 -0.3047  0.5413
14968TIP3   OH266394   4.506   3.859   1.956 -0.2301 -0.1235  0.2560
14968TIP3    H166395   4.419   3.899   1.956 -0.9153 -1.4887  1.9142
14968TIP3    H266396   4.512   3.812   1.873 -1.0466  0.0529  0.0960
14969TIP3   OH266397   5.409   3.232  11.139 -0.6684 -0.3750 -0.1699
14969TIP3    H166398   5.439   3.142  11.145 -2.8112 -1.0796  1.6907
14969TIP3    H266399   5.328   3.227  11.087 -1.8363  0.0776  1.4956
14970TIP3   OH266400   6.740   0.305   2.545  0.0084 -0.1550  0.7968
14970TIP3    H166401   6.755   0.231   2.605  0.1175 -0.6221  0.2039
14970TIP3    H266402   6.815   0.362   2.560 -0.8946  0.6902  2.4630
14971TIP3   OH266403   6.578   0.958  12.073  0.6731 -0.0450 -0.5016
14971TIP3    H166404   6.658   0.970  12.124  0.7658 -1.1886 -0.3587
14971TIP3    H266405   6.521   0.906  12.130  0.0004  0.3548 -0.7913
14972TIP3   OH266406   0.120   0.682   4.492  0.0019 -0.2255 -0.1032
14972TIP3    H166407   0.026   0.691   4.475  0.4209  0.3321 -2.6066
14972TIP3    H266408   0.125   0.633   4.574 -2.4448  0.9796  0.8770
14973TIP3   OH266409   0.460   0.429   1.816  0.1507  0.0849  0.1011
14973TIP3    H166410   0.479   0.521   1.796  0.8017  0.4775  2.2535
14973TIP3    H266411   0.398   0.433   1.888 -2.2176 -1.2242 -1.7451
14974TIP3   OH266412   0.248   6.569   0.288  0.0971  0.2644 -0.1416
14974TIP3    H166413   0.217   6.560   0.378  1.6663 -0.4446  0.3482
14974TIP3    H266414   0.187   6.516   0.236 -0.1478 -0.2464  0.6573
14975TIP3   OH266415   5.097   1.869  16.909  0.1997  0.1237 -0.0790
14975TIP3    H166416   5.076   1.899  16.821  2.7510  0.2607 -0.6988
14975TIP3    H266417   5.017   1.888  16.960 -0.2440  3.0159 -1.6173
14976TIP3   OH266418   4.774   0.424  12.341 -0.2322 -0.2191 -0.6177
14976TIP3    H166419   4.869   0.417  12.355 -0.1411  0.8697 -0.5800
14976TIP3    H266420   4.741   0.462  12.422 -0.7747 -1.0401 -0.4490
14977TIP3   OH266421   2.474   5.221   0.794  0.5144 -0.0072  0.0668
14977TIP3    H166422   2.535   5.288   0.764  0.6791  0.4693  1.3911
14977TIP3    H266423   2.405   5.271   0.839 -0.7325 -0.5465 -1.1519
14978TIP3   OH266424   2.292   4.673   1.332  0.4225 -0.2587 -0.9863
14978TIP3    H166425   2.237   4.745   1.299 -1.0816 -1.1598 -0.5536
14978TIP3    H266426   2.339   4.711   1.407 -0.0327  0.3928 -1.0199
14979TIP3   OH266427   1.586   4.338  13.874 -0.9746  0.2811 -0.3950
14979TIP3    H166428   1.651   4.407  13.864  0.2888 -0.0156  3.7548
14979TIP3    H266429   1.548   4.353  13.961 -0.6618 -4.0947  0.7423
14980TIP3   OH266430   2.275   2.757  14.469  0.3115  0.0605 -0.0791
14980TIP3    H166431   2.292   2.768  14.375  0.4588  0.9870  0.0425
14980TIP3    H266432   2.301   2.840  14.508 -0.1583 -0.1547  0.7314
14981TIP3   OH266433   1.521   2.301  11.876  0.6116 -0.4299  0.5956
14981TIP3    H166434   1.581   2.375  11.866  1.4653 -1.1882 -0.0830
14981TIP3    H266435   1.575   2.231  11.914  0.4304 -1.4255 -0.8822
14982TIP3   OH266436   2.232   0.247   4.911  0.1176 -0.7248  0.2767
14982TIP3    H166437   2.305   0.291   4.866  0.4060 -2.3185 -0.9021
14982TIP3    H266438   2.173   0.221   4.840  0.2502 -2.7231  0.8548
14983TIP3   OH266439   2.487   6.760  12.317 -0.0629  0.0343  0.0484
14983TIP3    H166440   2.480   6.855  12.327  0.5137  0.0032  0.8183
14983TIP3    H266441   2.574   6.746  12.279 -0.1750 -0.1849 -0.1295
14984TIP3   OH266442   3.156   3.054   2.726 -0.1224 -0.1771 -0.5207
14984TIP3    H166443   3.198   2.971   2.704 -1.2749 -0.3800 -2.1602
14984TIP3    H266444   3.063   3.034   2.728 -0.3811  0.9657 -0.3955
14985TIP3   OH266445   0.237   3.436  16.202 -0.1223 -0.2439  0.0490
14985TIP3    H166446   0.332   3.423  16.203 -0.3157 -2.0207 -0.4029
14985TIP3    H266447   0.209   3.410  16.290 -0.1159  1.0643  0.4474
14986TIP3   OH266448   6.461   3.082  17.044  0.1678 -0.1522 -0.1600
14986TIP3    H166449   6.434   3.039  16.963  0.8183 -0.7808 -0.0569
14986TIP3    H266450   6.461   3.175  17.023 -2.2334 -0.0787 -0.1006
14987TIP3   OH266451   2.494   4.580   4.278  0.0743  0.0672 -0.2821
14987TIP3    H166452   2.579   4.596   4.239 -0.8360  0.1305 -2.3716
14987TIP3    H266453   2.502   4.492   4.317  1.4213  0.5621  0.6218
14988TIP3   OH266454   4.079   0.334   3.530 -0.6596 -0.5943  0.0651
14988TIP3    H166455   3.987   0.320   3.505 -0.6301 -0.8400  0.0916
14988TIP3    H266456   4.087   0.291   3.615 -0.7909  0.3316  0.5543
14989TIP3   OH266457   6.009   6.421   0.455 -0.0449 -0.3772 -0.0861
14989TIP3    H166458   5.935   6.372   0.419 -0.1348  0.5237 -1.1410
14989TIP3    H266459   5.995   6.417   0.550 -3.0296  2.1212 -0.2728
14990TIP3   OH266460   3.464   2.305  13.493 -0.3939  0.1391 -0.1267
14990TIP3    H166461   3.546   2.258  13.479 -0.8005 -0.6826  0.1334
14990TIP3    H266462   3.416   2.295  13.411 -0.5722 -0.1031  0.0034
14991TIP3   OH266463   4.762   2.717   6.366  0.3359 -0.5467  0.6178
14991TIP3    H166464   4.688   2.747   6.419  0.5375  0.0349  0.5770
14991TIP3    H266465   4.791   2.795   6.318 -0.6575 -1.3250 -1.3546
14992TIP3   OH266466   4.199   2.945  12.956 -0.5367  0.2145  0.0906
14992TIP3    H166467   4.294   2.943  12.945 -0.3962  1.5000  0.7925
14992TIP3    H266468   4.185   2.921  13.048 -0.8400  0.6569  0.1632
14993TIP3   OH266469   4.570   4.045  15.160  0.3832 -0.0907  0.6246
14993TIP3    H166470   4.532   4.066  15.075  2.6997  0.1263 -0.4404
14993TIP3    H266471   4.508   4.081  15.224 -2.5057 -2.0986 -0.8230
14994TIP3   OH266472   6.682   6.163   0.533 -1.0461 -0.1154  0.4566
14994TIP3    H166473   6.645   6.193   0.450  1.0677 -0.1483 -0.5699
14994TIP3    H266474   6.731   6.084   0.511  0.2776  0.3566  1.5469
14995TIP3   OH266475   1.864   0.160   4.546  0.3225  0.4960  0.5504
14995TIP3    H166476   1.793   0.150   4.609 -0.0537 -1.3540 -0.1221
14995TIP3    H266477   1.828   0.217   4.478 -1.6527 -2.6303 -1.2546
14996TIP3   OH266478   3.574   0.979  13.036  0.2797  0.2953 -0.0213
14996TIP3    H166479   3.571   1.068  13.070  0.5935  0.1440  0.4247
14996TIP3    H266480   3.607   0.988  12.947  1.4890  0.5223  0.4370
14997TIP3   OH266481   5.768   0.755  11.052 -0.0222 -0.6326  0.5670
14997TIP3    H166482   5.759   0.708  11.135 -0.3120 -0.5265  0.5982
14997TIP3    H266483   5.766   0.687  10.985 -0.5796 -0.6555  0.6036
14998TIP3   OH266484   2.982   4.946   2.136  0.1613 -0.8464  0.0036
14998TIP3    H166485   3.046   5.000   2.089  1.1857  0.3137  2.5368
14998TIP3    H266486   2.897   4.984   2.112  0.6083 -0.5136 -1.1382
14999TIP3   OH266487   6.222   4.800   3.786 -0.1036  0.2387 -0.6653
14999TIP3    H166488   6.190   4.714   3.811  0.4065 -0.0485 -0.9734
14999TIP3    H266489   6.316   4.797   3.807 -0.0687  0.6898 -0.7508
15000TIP3   OH266490   0.463   1.542   4.788  0.1760  0.2309  0.0777
15000TIP3    H166491   0.409   1.587   4.723  1.0472  0.0917 -0.7686
15000TIP3    H266492   0.425   1.454   4.793  0.2636  0.1577 -0.4552
15001TIP3   OH266493   2.710   3.426   5.945  0.0676  0.5945 -0.0575
15001TIP3    H166494   2.731   3.520   5.941 -1.8008  1.0546 -0.0573
15001TIP3    H266495   2.677   3.413   6.034 -1.2300  0.3368 -0.5434
15002TIP3   OH266496   0.680   2.991  11.137 -0.4281  0.0045 -0.2274
15002TIP3    H166497   0.775   2.980  11.139 -0.2264  1.5636 -0.0616
15002TIP3    H266498   0.656   3.007  11.228 -0.8313 -0.2228 -0.2931
15003TIP3   OH266499   2.259   0.049   5.591  0.3136  0.6161  0.2073
15003TIP3    H166500   2.257  -0.034   5.543 -0.6455  0.2471  0.8586
15003TIP3    H266501   2.235   0.025   5.681 -0.0991  1.6168  0.3726
15004TIP3   OH266502   2.078   3.169  10.407 -0.5626  0.9326 -0.3470
15004TIP3    H166503   2.037   3.159  10.320 -0.1686 -3.1412 -0.2447
15004TIP3    H266504   2.159   3.216  10.390 -0.0075 -0.6309 -2.4422
15005TIP3   OH266505   2.698   1.363  12.771 -0.0247 -0.1422  0.5284
15005TIP3    H166506   2.679   1.445  12.816  1.7799 -1.3355  3.8337
15005TIP3    H266507   2.617   1.313  12.775 -0.8675  1.0437 -0.7097
15006TIP3   OH266508   2.717   1.270   5.248 -0.0136 -0.0920 -0.0806
15006TIP3    H166509   2.756   1.231   5.326  0.3077  1.7198  0.7230
15006TIP3    H266510   2.630   1.298   5.276  0.2716  0.9834 -0.1995
15007TIP3   OH266511   0.599   6.651   1.587 -0.0253 -0.2068 -0.2019
15007TIP3    H166512   0.673   6.599   1.620 -0.4701  0.2607  1.6435
15007TIP3    H266513   0.633   6.693   1.508  1.2377 -1.0767 -0.1606
15008TIP3   OH266514   4.731   0.054   1.343 -0.3465 -0.4309  0.2815
15008TIP3    H166515   4.658   0.076   1.401  0.5553 -1.1469  1.7574
15008TIP3    H266516   4.809   0.062   1.399  1.0043  2.4863 -1.7818
15009TIP3   OH266517   3.980   1.740  15.808 -0.4325  0.0067 -0.2103
15009TIP3    H166518   3.956   1.650  15.830  0.1669 -0.1574 -0.2099
15009TIP3    H266519   4.072   1.734  15.780 -0.3913  0.6169 -0.2131
15010TIP3   OH266520   6.445   5.969   5.693  0.3084  0.7136 -0.7391
15010TIP3    H166521   6.441   5.906   5.765 -1.5405  1.1471 -0.4269
15010TIP3    H266522   6.399   6.046   5.725  0.1510  1.2191 -2.0967
15011TIP3   OH266523   6.577   3.926   4.230  0.3574  0.3012 -0.2896
15011TIP3    H166524   6.504   3.890   4.179 -1.4533  2.0543  0.9136
15011TIP3    H266525   6.626   3.979   4.167 -0.9901  1.2529 -0.5984
15012TIP3   OH266526   2.936   1.443   0.839 -0.6566 -0.1313 -0.1832
15012TIP3    H166527   2.927   1.422   0.746  0.1754 -2.1048  0.1443
15012TIP3    H266528   2.855   1.489   0.861 -0.9860  0.1288 -1.7972
15013TIP3   OH266529   3.715   2.966   6.635 -0.4896 -0.0217  0.0795
15013TIP3    H166530   3.769   2.912   6.693 -1.4888 -0.1272  0.9389
15013TIP3    H266531   3.630   2.971   6.679 -0.9932  0.6666 -0.9336
15014TIP3   OH266532   5.530   0.555  16.967  0.6845 -0.2769 -0.2383
15014TIP3    H166533   5.606   0.498  16.954  0.2694 -0.3612 -3.0129
15014TIP3    H266534   5.566   0.634  17.008  1.8263 -1.2319  0.6831
15015TIP3   OH266535   2.129   1.602   2.005  0.4491 -1.0567  0.2918
15015TIP3    H166536   2.177   1.573   2.083 -2.2160 -1.9088  1.7426
15015TIP3    H266537   2.144   1.532   1.941  0.2110 -1.8975  1.1262
15016TIP3   OH266538   2.383   3.421  15.706  0.1929  0.6750  0.3821
15016TIP3    H166539   2.291   3.397  15.703 -0.4852  2.9168  1.1203
15016TIP3    H266540   2.429   3.344  15.672 -1.9728 -0.2367 -0.6951
15017TIP3   OH266541   3.595   3.152   3.812 -0.3665 -0.1873 -0.2114
15017TIP3    H166542   3.682   3.190   3.821 -0.1084 -0.8002 -0.0475
15017TIP3    H266543   3.611   3.059   3.794 -0.9933 -0.4549  0.5531
15018TIP3   OH266544   5.781   5.261   2.861  0.5302 -0.3191 -0.1202
15018TIP3    H166545   5.817   5.291   2.778  0.3328 -0.8468 -0.4001
15018TIP3    H266546   5.834   5.185   2.884 -0.8311 -1.5672 -0.9091
15019TIP3   OH266547   1.354   0.200   1.418  0.6593  0.0422 -0.6230
15019TIP3    H166548   1.352   0.201   1.514  2.2578  1.4432 -0.5717
15019TIP3    H266549   1.325   0.111   1.395 -1.3602  0.1657  1.0671
15020TIP3   OH266550   0.293   0.814   4.054  0.3626 -0.2703 -0.0122
15020TIP3    H166551   0.313   0.792   3.963 -0.2733 -1.3323  0.0822
15020TIP3    H266552   0.207   0.775   4.070 -0.6866  1.9785  0.3218
15021TIP3   OH266553   2.659   2.128   4.973  0.6557  0.4632  0.2774
15021TIP3    H166554   2.631   2.038   4.986 -0.0657  0.6363 -0.0312
15021TIP3    H266555   2.733   2.123   4.912  0.5577  0.0898  0.1929
15022TIP3   OH266556   2.265   2.421   0.629  0.1010  0.4043  0.0203
15022TIP3    H166557   2.198   2.360   0.658 -0.3393  1.2191  0.7847
15022TIP3    H266558   2.217   2.484   0.574  0.3597  0.6076  0.0276
15023TIP3   OH266559   5.087   0.319   3.230  0.4239  0.1697  0.0640
15023TIP3    H166560   5.070   0.414   3.229 -0.9659 -0.0538 -1.0926
15023TIP3    H266561   5.034   0.285   3.157  2.0780 -1.3136 -0.4936
15024TIP3   OH266562   2.586   6.314   1.028 -0.3853 -0.2918  0.6959
15024TIP3    H166563   2.564   6.246   0.965  0.4685  1.5704 -1.7771
15024TIP3    H266564   2.675   6.292   1.056 -0.6591 -0.9685  1.0682
15025TIP3   OH266565   6.569   5.397  10.487 -0.5155 -0.4944 -0.0399
15025TIP3    H166566   6.497   5.333  10.484 -1.5664  0.6871 -1.4589
15025TIP3    H266567   6.529   5.476  10.523  0.1833  0.0289 -0.3955
15026TIP3   OH266568   5.475   3.125   3.648  0.4535  0.1893 -0.0446
15026TIP3    H166569   5.400   3.075   3.679 -0.6265  1.2771 -0.8254
15026TIP3    H266570   5.534   3.059   3.611 -0.4177 -0.6032 -0.0544
15027TIP3   OH266571   3.432   1.109   4.767 -0.4238 -0.1048  0.3539
15027TIP3    H166572   3.517   1.132   4.805  0.2633 -0.0493 -1.1484
15027TIP3    H266573   3.404   1.032   4.815  0.0140  0.4374  1.5157
15028TIP3   OH266574   0.322   6.843  12.242  0.4798  0.4988 -0.5015
15028TIP3    H166575   0.313   6.858  12.336 -0.2928 -0.6973 -0.3629
15028TIP3    H266576   0.239   6.872  12.205  0.6760  0.7020 -0.7897
15029TIP3   OH266577   4.141   3.797  13.633 -0.1213 -0.1022  0.4026
15029TIP3    H166578   4.131   3.715  13.683  3.2156 -1.0569 -0.2823
15029TIP3    H266579   4.162   3.863  13.699 -0.0469 -0.3973  0.6744
15030TIP3   OH266580   4.514   2.951   3.680 -0.2393  0.7103  0.5017
15030TIP3    H166581   4.480   2.988   3.761 -0.6980  1.7295 -0.1349
15030TIP3    H266582   4.438   2.912   3.637 -0.6555  2.7825 -0.8134
15031TIP3   OH266583   2.384   6.029   4.901  0.1342  0.2265  0.1179
15031TIP3    H166584   2.312   6.044   4.963  0.7060  0.0381  0.8427
15031TIP3    H266585   2.433   6.112   4.901  1.4253 -0.4805  1.6537
15032TIP3   OH266586   5.433   2.401   0.486  0.1326 -0.0603 -0.5358
15032TIP3    H166587   5.352   2.354   0.470  0.3138 -0.2661 -0.8704
15032TIP3    H266588   5.453   2.445   0.403 -0.1749  0.8315 -0.1493
15033TIP3   OH266589   5.910   5.631   1.545  0.3296  0.3397  0.0422
15033TIP3    H166590   5.858   5.555   1.569  2.2577 -0.3217  2.5570
15033TIP3    H266591   5.985   5.594   1.497  0.8608  0.6906  0.5773
15034TIP3   OH266592   2.181   4.079  11.017 -0.1863 -0.1429  0.0356
15034TIP3    H166593   2.221   4.091  10.931 -1.0574  0.5316 -0.2862
15034TIP3    H266594   2.241   4.019  11.063  0.7316  0.1687 -0.7249
15035TIP3   OH266595   0.614   5.647   4.226  0.4460  0.1767  0.1985
15035TIP3    H166596   0.697   5.681   4.193  0.4050  0.0249 -0.0708
15035TIP3    H266597   0.628   5.636   4.320 -0.2849  3.1094  0.7236
15036TIP3   OH266598   5.102   1.588   6.013 -0.1123  0.1760  0.0068
15036TIP3    H166599   5.152   1.545   6.081 -0.1315 -0.8976 -0.6352
15036TIP3    H266600   5.043   1.647   6.060 -0.1515 -0.5684  0.9124
15037TIP3   OH266601   2.065   2.179  13.216  0.4199 -0.2531 -0.3745
15037TIP3    H166602   1.989   2.164  13.160 -0.3364  2.3437 -0.1384
15037TIP3    H266603   2.137   2.196  13.155  0.9142 -2.7145 -0.5969
15038TIP3   OH266604   0.714   6.403  11.126  0.4847  0.0225  0.0995
15038TIP3    H166605   0.718   6.388  11.032  1.6872  1.3946 -0.0911
15038TIP3    H266606   0.803   6.390  11.157  0.1772 -0.0372  0.9972
15039TIP3   OH266607   4.907   0.761   6.085 -0.2011  0.6007 -0.3179
15039TIP3    H166608   4.817   0.732   6.073  0.2492 -0.5070 -1.1757
15039TIP3    H266609   4.956   0.681   6.104  0.9722  0.8352 -2.0799
15040TIP3   OH266610   4.158   2.745   5.667  0.0079  0.5179  0.1326
15040TIP3    H166611   4.086   2.808   5.674 -0.6144 -0.2523  0.9597
15040TIP3    H266612   4.121   2.663   5.699  1.0011 -0.1082 -0.2893
15041TIP3   OH266613   2.993   3.062   1.573 -0.4394 -0.5497 -0.6779
15041TIP3    H166614   2.901   3.064   1.548 -0.5643 -2.8912 -0.6239
15041TIP3    H266615   3.034   3.005   1.507  0.8229 -0.1407 -0.2650
15042TIP3   OH266616   3.597   6.316   1.716 -0.8160  0.6003  0.4179
15042TIP3    H166617   3.507   6.306   1.747 -0.5525 -0.8893  0.7604
15042TIP3    H266618   3.646   6.247   1.761  0.1262  0.1672 -1.1867
15043TIP3   OH266619   4.301   1.184  16.096 -0.7951 -0.3453 -0.1675
15043TIP3    H166620   4.278   1.247  16.028 -0.2921  0.1139  0.0869
15043TIP3    H266621   4.250   1.106  16.074 -0.9577 -0.0590 -0.8276
15044TIP3   OH266622   5.001   1.842  15.705 -0.2136  0.3105  0.2985
15044TIP3    H166623   4.948   1.824  15.782 -1.6031 -0.1140 -0.7229
15044TIP3    H266624   4.941   1.835  15.632  1.1721  0.2309 -0.8828
15045TIP3   OH266625   5.754   3.877  14.922 -0.1950 -0.0828 -0.0923
15045TIP3    H166626   5.735   3.815  14.993  1.4483 -0.6967 -0.1573
15045TIP3    H266627   5.691   3.948  14.936 -1.4235 -1.2593  0.6029
15046TIP3   OH266628   4.975   5.577  12.490 -0.4647  0.2670 -0.1917
15046TIP3    H166629   4.995   5.519  12.563 -1.5550  1.1225  0.8227
15046TIP3    H266630   4.909   5.529  12.439 -0.4853  0.1207 -0.0275
15047TIP3   OH266631   2.233   4.471   5.651 -0.2049 -0.1735  0.1814
15047TIP3    H166632   2.177   4.502   5.579 -0.5384  0.2436  0.6184
15047TIP3    H266633   2.307   4.429   5.607 -0.0330  0.7300 -0.4144
15048TIP3   OH266634   4.927   5.623   0.408 -0.1694 -0.1152  0.1908
15048TIP3    H166635   4.959   5.644   0.321  0.2323 -1.3398  0.0166
15048TIP3    H266636   4.986   5.671   0.467 -0.6498  0.9833 -0.1926
15049TIP3   OH266637   5.186   0.202  15.860  0.9922 -0.2724  0.0431
15049TIP3    H166638   5.186   0.211  15.955 -0.9157  0.7664 -0.0250
15049TIP3    H266639   5.244   0.272  15.829 -0.0307  0.7527  0.3713
15050TIP3   OH266640   0.286   3.653   3.936 -0.4049  0.5326 -0.1268
15050TIP3    H166641   0.375   3.619   3.944  0.6230  2.2677 -2.7431
15050TIP3    H266642   0.231   3.575   3.927  0.6020 -0.6080  2.7115
15051TIP3   OH266643   5.477   1.488   4.866 -0.5155  0.0954 -0.3622
15051TIP3    H166644   5.537   1.544   4.818 -0.1522  0.3666  0.3987
15051TIP3    H266645   5.522   1.469   4.948 -1.3837  0.1582  0.1429
15052TIP3   OH266646   0.966   3.424   5.739  0.3218  0.2023  0.1679
15052TIP3    H166647   0.945   3.443   5.831  0.5558 -2.1540  0.7561
15052TIP3    H266648   0.882   3.431   5.693 -0.2541 -0.9489  1.0062
15053TIP3   OH266649   4.652   6.394  12.455  0.9509 -0.1651 -0.3217
15053TIP3    H166650   4.571   6.348  12.480  0.3435  0.1549 -1.5971
15053TIP3    H266651   4.688   6.342  12.383  0.8274  0.7387 -1.0623
15054TIP3   OH266652   2.076   4.645   4.703  0.3598  0.3202  0.0730
15054TIP3    H166653   2.104   4.712   4.641  0.7903 -0.3244 -0.4433
15054TIP3    H266654   2.141   4.650   4.774  1.1020 -0.3507 -0.5415
15055TIP3   OH266655   3.565   4.335  11.924 -0.3529  0.0839 -0.6393
15055TIP3    H166656   3.596   4.247  11.946 -0.2453  0.5969  1.4839
15055TIP3    H266657   3.477   4.339  11.961 -0.3065  0.9030 -0.6109
15056TIP3   OH266658   5.855   1.644  13.869  0.5313 -0.1848  0.0993
15056TIP3    H166659   5.872   1.570  13.810 -0.2163  0.2763 -0.7181
15056TIP3    H266660   5.870   1.722  13.815  0.5314  0.2608  0.7265
15057TIP3   OH266661   1.021   2.654  17.089 -0.1320 -0.0015  0.5157
15057TIP3    H166662   0.950   2.621  17.144 -0.7899  0.7721  0.1627
15057TIP3    H266663   1.030   2.588  17.020 -0.0897 -0.4040  0.9026
15058TIP3   OH266664   0.878   5.644  14.206 -0.1034  0.4607  0.1130
15058TIP3    H166665   0.945   5.699  14.247 -0.1796  0.4915  0.1966
15058TIP3    H266666   0.871   5.678  14.117 -0.8114  1.2039  0.4310
15059TIP3   OH266667   0.661   2.013   3.553  0.3319 -0.2643  0.2099
15059TIP3    H166668   0.753   1.989   3.566  0.4175  0.3762  0.7951
15059TIP3    H266669   0.665   2.096   3.505  0.1579  1.6565  3.2558
15060TIP3   OH266670   6.767   3.078   0.152  0.9675  0.7583  0.1194
15060TIP3    H166671   6.829   3.080   0.079  0.0727  1.4890 -0.6398
15060TIP3    H266672   6.822   3.060   0.229  2.2437  2.0788 -0.4200
15061TIP3   OH266673   1.108   1.585  16.854 -0.1963 -0.1933  0.6020
15061TIP3    H166674   1.088   1.555  16.943 -3.4548 -0.3536 -0.0403
15061TIP3    H266675   1.124   1.679  16.863 -0.0642 -0.2874  1.4173
15062TIP3   OH266676   5.353   5.617  14.356 -0.7559  0.3340  0.2080
15062TIP3    H166677   5.416   5.689  14.344  2.5864 -2.5528 -1.1673
15062TIP3    H266678   5.348   5.605  14.451  0.9080  0.5767  0.3550
15063TIP3   OH266679   4.249   4.896   2.784 -0.3594 -0.2314 -0.0582
15063TIP3    H166680   4.161   4.934   2.778 -0.3714 -0.2169  0.1722
15063TIP3    H266681   4.289   4.941   2.859 -0.3809 -0.6838  0.2289
15064TIP3   OH266682   0.263   4.733   2.994 -0.1594 -0.3750 -0.0026
15064TIP3    H166683   0.188   4.675   3.009 -0.0035 -1.1303 -1.9276
15064TIP3    H266684   0.339   4.675   2.995  0.2302  0.1333  0.1975
15065TIP3   OH266685   4.116   5.555   4.296 -0.6509  0.3257 -0.4658
15065TIP3    H166686   4.032   5.592   4.267 -0.9606 -0.0014 -0.0015
15065TIP3    H266687   4.110   5.462   4.273  0.1387  0.5564 -1.6674
15066TIP3   OH266688   4.157   5.913  16.873 -0.3488 -0.5279 -0.4354
15066TIP3    H166689   4.153   5.876  16.961 -0.4327  0.3951 -0.0392
15066TIP3    H266690   4.130   6.004  16.884  0.8504 -0.0520 -1.2038
15067TIP3   OH266691   5.030   1.778   2.419  0.5050  0.5024  1.0380
15067TIP3    H166692   4.974   1.700   2.412  0.6378  0.3445  1.6785
15067TIP3    H266693   5.052   1.800   2.329  1.7527 -1.1369  0.8883
15068TIP3   OH266694   2.551   6.833  11.887 -0.0666 -0.0928 -0.9000
15068TIP3    H166695   2.544   6.919  11.847 -0.6568 -0.7159 -2.2117
15068TIP3    H266696   2.463   6.813  11.919  0.4353  0.4842  1.0051
15069TIP3   OH266697   2.709   5.000  15.548  0.0558 -0.4689 -0.3734
15069TIP3    H166698   2.708   5.022  15.455  2.4771  1.3911 -0.0297
15069TIP3    H266699   2.629   5.039  15.582 -1.0164 -1.4203 -1.6683
15070TIP3   OH266700   0.424   1.636   4.196 -0.0201  0.2777 -0.5444
15070TIP3    H166701   0.500   1.643   4.253  0.0578  2.6008 -0.8211
15070TIP3    H266702   0.355   1.599   4.251  1.1036 -1.3309 -0.1351
15071TIP3   OH266703   1.314   6.268   0.747  0.4023  0.5573 -0.5474
15071TIP3    H166704   1.256   6.320   0.690 -1.3754 -1.5558 -0.8007
15071TIP3    H266705   1.359   6.209   0.688  1.6291  1.0707 -0.1496
15072TIP3   OH266706   1.372   4.291   5.451 -0.4569 -0.2424 -0.7547
15072TIP3    H166707   1.409   4.298   5.539 -0.3436 -0.6103 -0.7705
15072TIP3    H266708   1.348   4.380   5.428  1.3843  0.1966 -1.1452
15073TIP3   OH266709   6.652   0.434  13.097 -0.0326  0.2446  0.0570
15073TIP3    H166710   6.590   0.485  13.045  0.9013  2.1748  0.7054
15073TIP3    H266711   6.717   0.402  13.035 -1.3534 -1.3623 -0.5509
15074TIP3   OH266712   0.144   2.425   3.505  0.2637 -0.3221 -0.3625
15074TIP3    H166713   0.113   2.451   3.592 -2.4390  0.9032 -1.5716
15074TIP3    H266714   0.211   2.490   3.483 -0.2764  0.4221  0.1239
15075TIP3   OH266715   5.200   4.634  15.395  0.1959 -0.3652  0.7456
15075TIP3    H166716   5.249   4.652  15.316  0.4739  0.0214  1.0043
15075TIP3    H266717   5.148   4.556  15.374 -0.5401  0.3472 -0.1632
15076TIP3   OH266718   3.864   3.991  15.964  0.7268  0.7006 -0.5762
15076TIP3    H166719   3.771   3.968  15.973  0.7770  1.2730  1.8151
15076TIP3    H266720   3.866   4.086  15.964  1.4839  0.7550  2.3390
15077TIP3   OH266721   4.994   4.160   0.651  0.4656  0.0138  0.3581
15077TIP3    H166722   5.076   4.201   0.678  1.0122  0.8381 -2.2175
15077TIP3    H266723   4.933   4.177   0.722  1.4774  2.8098  0.6638
15078TIP3   OH266724   5.593   3.436   1.412  0.3028  0.0365 -0.1912
15078TIP3    H166725   5.630   3.412   1.327  0.5223  1.2050 -0.4486
15078TIP3    H266726   5.503   3.464   1.392  0.4562  0.6150 -0.0947
15079TIP3   OH266727   6.777   4.485  10.485  0.3853 -0.6879  0.3334
15079TIP3    H166728   6.709   4.418  10.475  0.9425 -1.3192  0.6742
15079TIP3    H266729   6.731   4.568  10.472 -0.3905 -1.1194  0.2547
15080TIP3   OH266730   4.429   2.460   5.387 -0.0871 -0.2859  0.1517
15080TIP3    H166731   4.458   2.472   5.478 -1.0463  1.7440  0.2389
15080TIP3    H266732   4.388   2.543   5.364  0.3277 -0.6902 -2.2408
15081TIP3   OH266733   2.774   6.638   5.575  0.2520  0.2248 -0.6186
15081TIP3    H166734   2.723   6.689   5.512 -0.8802 -0.1046  0.0103
15081TIP3    H266735   2.755   6.547   5.555  0.3505  0.1030 -0.1797
15082TIP3   OH266736   0.964   2.347   3.948  0.4369  0.3061  0.1782
15082TIP3    H166737   0.892   2.295   3.914 -0.2357  1.0544  0.4315
15082TIP3    H266738   0.993   2.300   4.027  0.2933 -0.0451  0.0203
15083TIP3   OH266739   4.707   1.879   2.541  0.0127  0.0972  0.5579
15083TIP3    H166740   4.767   1.869   2.615 -1.9182  0.7532  2.3030
15083TIP3    H266741   4.700   1.973   2.528 -0.8956  0.0551  0.6407
15084TIP3   OH266742   5.731   6.164  12.417 -0.6795  0.0410 -0.1095
15084TIP3    H166743   5.723   6.237  12.478  3.2549 -0.4005  1.2033
15084TIP3    H266744   5.711   6.087  12.470 -1.3557 -0.0841 -0.5380
15085TIP3   OH266745   3.608   0.426   1.049  0.1488 -0.8390 -0.9528
15085TIP3    H166746   3.534   0.436   0.990  1.3143 -0.9781 -2.5095
15085TIP3    H266747   3.617   0.332   1.062  0.5644 -0.8788 -1.4793
15086TIP3   OH266748   3.455   2.633   5.547 -0.0774 -1.0445  0.0980
15086TIP3    H166749   3.377   2.581   5.527  0.2895 -0.9532 -1.7703
15086TIP3    H266750   3.452   2.647   5.642 -2.6358 -0.5557  0.0106
15087TIP3   OH266751   4.725   4.498  15.569 -0.1720 -0.1643 -0.3607
15087TIP3    H166752   4.719   4.514  15.664  0.4830 -0.2751 -0.2942
15087TIP3    H266753   4.695   4.579  15.529 -0.1252  0.0071 -0.0559
15088TIP3   OH266754   4.652   4.039  14.324  0.1038  0.0503 -0.1079
15088TIP3    H166755   4.632   3.976  14.254  0.0260  0.6494 -0.6281
15088TIP3    H266756   4.566   4.062  14.360  0.0759  0.4068 -0.3993
15089TIP3   OH266757   4.934   1.419  15.317  0.3218  0.7612 -0.2143
15089TIP3    H166758   4.927   1.332  15.355 -0.7122  0.8916 -0.0706
15089TIP3    H266759   4.847   1.436  15.279  0.3732  1.8740  0.1175
15090TIP3   OH266760   5.606   4.591   3.125  0.4552  0.4099 -0.0361
15090TIP3    H166761   5.558   4.578   3.207 -0.5615 -0.5256 -0.7624
15090TIP3    H266762   5.539   4.603   3.059  1.2010 -0.6073 -1.0208
15091TIP3   OH266763   2.773   4.776  13.363 -0.1859  0.0220 -0.2499
15091TIP3    H166764   2.779   4.684  13.337 -1.4125  0.4120 -2.1599
15091TIP3    H266765   2.679   4.795  13.363  0.0242  1.1549  0.5770
15092TIP3   OH266766   2.314   3.886  17.156  0.1390  0.3404  0.2154
15092TIP3    H166767   2.220   3.868  17.156  0.0114  0.1915 -3.3365
15092TIP3    H266768   2.339   3.878  17.064  3.8701 -0.6744  1.1712
15093TIP3   OH266769   2.911   0.418  14.902 -0.4069 -0.6832 -0.3422
15093TIP3    H166770   2.927   0.470  14.981 -0.0826  0.2320 -0.9907
15093TIP3    H266771   2.983   0.442  14.843 -2.5968  1.5462 -2.3574
15094TIP3   OH266772   0.557   4.842  10.560 -0.3081 -0.8894 -0.0444
15094TIP3    H166773   0.495   4.803  10.621 -1.5832  1.5587  0.3716
15094TIP3    H266774   0.627   4.876  10.617 -1.5452  1.4816  0.2256
15095TIP3   OH266775   1.140   3.435   5.496  0.0188 -0.5299 -0.0859
15095TIP3    H166776   1.160   3.523   5.527 -0.3918  0.2516 -1.9130
15095TIP3    H266777   1.072   3.404   5.556  1.8220 -0.6149  2.0696
15096TIP3   OH266778   5.283   0.795   2.066 -0.3984  0.3329  0.2153
15096TIP3    H166779   5.212   0.767   2.123  1.0710 -0.9390  1.5018
15096TIP3    H266780   5.355   0.818   2.126  0.4047  1.2741 -1.0447
15097TIP3   OH266781   1.086   1.533   0.019 -0.6514  0.7563 -0.1911
15097TIP3    H166782   1.099   1.451  -0.029  0.1505  0.0621  1.1310
15097TIP3    H266783   1.024   1.511   0.088 -3.1295  2.1619 -1.8129
15098TIP3   OH266784   4.715   5.075  11.838  0.0231  0.2365  0.0443
15098TIP3    H166785   4.733   5.169  11.826 -3.0094  1.1446  1.5079
15098TIP3    H266786   4.626   5.064  11.803  0.2918 -2.1117 -0.0137
15099TIP3   OH266787   3.796   0.664   5.159 -0.3902  0.3443 -0.1291
15099TIP3    H166788   3.874   0.716   5.137 -0.3381  0.1269 -0.4598
15099TIP3    H266789   3.722   0.719   5.133 -0.3526 -1.1922 -4.0178
15100TIP3   OH266790   5.543   3.335   3.061  0.3367  0.0274 -0.1614
15100TIP3    H166791   5.569   3.388   2.986 -1.0477 -1.3009 -1.6708
15100TIP3    H266792   5.513   3.398   3.127 -0.4853  1.1469 -1.5731
15101TIP3   OH266793   1.803   4.269   3.964  0.1739  0.1638 -0.3532
15101TIP3    H166794   1.815   4.359   3.932 -1.0807  0.4391 -0.1069
15101TIP3    H266795   1.891   4.232   3.965  0.6982  1.3569 -0.5769
15102TIP3   OH266796   1.980   0.477  15.338  0.1451  0.8165 -0.1784
15102TIP3    H166797   1.970   0.572  15.337 -1.2543  0.6965 -0.3180
15102TIP3    H266798   1.957   0.452  15.428 -0.0565  0.5662 -0.2994
15103TIP3   OH266799   2.292   1.400  15.606  0.2643 -0.5874  0.2218
15103TIP3    H166800   2.268   1.335  15.540 -0.0833  1.4176 -1.7544
15103TIP3    H266801   2.221   1.465  15.604  0.9556  0.2619  1.5512
15104TIP3   OH266802   2.291   1.471   1.197 -0.2388  0.1010 -0.2749
15104TIP3    H166803   2.311   1.447   1.107  1.8924 -1.1158  0.4604
15104TIP3    H266804   2.320   1.562   1.205  0.1842 -0.0005 -0.6428
15105TIP3   OH266805   5.729   5.273   5.078 -0.2864 -0.1881 -0.1881
15105TIP3    H166806   5.759   5.326   5.152  0.6941  0.3132 -0.9259
15105TIP3    H266807   5.638   5.251   5.099 -0.2834  0.6597  0.7581
15106TIP3   OH266808   0.823   6.605  16.591  0.2479  0.0715  0.0632
15106TIP3    H166809   0.916   6.604  16.570  0.1249 -0.0930 -0.4983
15106TIP3    H266810   0.819   6.584  16.685  0.7156 -1.0016 -0.1429
15107TIP3   OH266811   6.144   1.185   5.984  0.4918 -0.3316  0.1632
15107TIP3    H166812   6.169   1.097   5.956 -0.7122 -0.6867  0.1253
15107TIP3    H266813   6.196   1.243   5.930 -0.2743 -1.0256 -1.3937
15108TIP3   OH266814   6.423   1.766  11.440 -0.3453  0.1436 -0.1788
15108TIP3    H166815   6.332   1.794  11.436 -0.7420 -0.8909  0.9601
15108TIP3    H266816   6.449   1.754  11.348 -1.8448 -1.0136 -0.4946
15109TIP3   OH266817   6.572   3.740  16.754  0.2273  0.4981 -0.0947
15109TIP3    H166818   6.530   3.750  16.669 -0.7829 -0.0337  0.3344
15109TIP3    H266819   6.648   3.799  16.750  0.3392  0.2819 -1.4472
15110TIP3   OH266820   0.145   1.944   2.898 -0.1816  0.3301  0.3621
15110TIP3    H166821   0.176   1.855   2.915 -1.0595  0.0645  0.6600
15110TIP3    H266822   0.060   1.932   2.856 -1.0574  0.9956  1.8410
15111TIP3   OH266823   6.011   6.586   1.625 -0.0671 -0.0213  0.3303
15111TIP3    H166824   6.044   6.599   1.714 -2.6348 -0.2766  1.4019
15111TIP3    H266825   5.970   6.670   1.603  2.4284  0.8541 -1.6135
15112TIP3   OH266826   3.685   6.822  15.696  0.3377  0.5574 -0.2220
15112TIP3    H166827   3.605   6.871  15.677  0.0150  0.4623  0.8098
15112TIP3    H266828   3.701   6.770  15.617 -1.0837 -0.0426 -0.1488
15113TIP3   OH266829   2.919   4.113   1.898  0.4240  0.2925 -0.5280
15113TIP3    H166830   2.930   4.159   1.981  1.4801 -0.5447 -0.1808
15113TIP3    H266831   2.881   4.178   1.839  0.8697  1.2787  0.2477
15114TIP3   OH266832   6.739   2.376   0.391 -0.1642  0.1016 -0.3967
15114TIP3    H166833   6.785   2.314   0.335  0.2566 -1.6276  1.7467
15114TIP3    H266834   6.646   2.357   0.378 -0.0594 -0.4827 -0.2842
15115TIP3   OH266835   1.584   5.952   0.921  0.2411  1.3682  0.0940
15115TIP3    H166836   1.564   6.045   0.934  0.7720  1.6574 -1.0594
15115TIP3    H266837   1.612   5.922   1.007  0.6741  2.4292  0.3473
15116TIP3   OH266838   2.973   0.772   0.957  0.0631 -0.2356 -0.0624
15116TIP3    H166839   3.037   0.821   1.008  0.0951 -0.6694  0.3201
15116TIP3    H266840   2.964   0.822   0.876  1.1737 -0.3708 -0.2889
15117TIP3   OH266841   0.817   3.938   5.934 -0.5971 -0.2631 -0.0059
15117TIP3    H166842   0.904   3.953   5.896  0.0604 -1.1191  1.1031
15117TIP3    H266843   0.824   3.972   6.023 -1.3669 -0.4923  0.1441
15118TIP3   OH266844   6.057   3.350   2.128  0.0665 -0.1352 -0.5295
15118TIP3    H166845   6.060   3.446   2.131  0.6203 -0.1612 -0.1451
15118TIP3    H266846   6.022   3.330   2.042  0.1051  0.4117 -0.6790
15119TIP3   OH266847   4.311   4.208  14.194  0.9450  0.6596 -0.1715
15119TIP3    H166848   4.313   4.116  14.218 -1.1386  0.2994 -1.1700
15119TIP3    H266849   4.386   4.219  14.135  1.5651 -0.2101  0.4266
15120TIP3   OH266850   0.174   5.555   4.207 -0.1334  0.0850  0.0764
15120TIP3    H166851   0.131   5.640   4.203  2.2544  1.3352 -2.7767
15120TIP3    H266852   0.229   5.552   4.128  2.4708 -2.6617  1.7662
15121TIP3   OH266853   2.306   5.809   5.380 -0.1990 -0.1756  1.0761
15121TIP3    H166854   2.304   5.827   5.286  0.8417 -0.6979  0.9476
15121TIP3    H266855   2.378   5.862   5.413 -1.0027  0.5430  1.7047
15122TIP3   OH266856   5.568   5.706   1.278  0.1825  0.2392  0.0822
15122TIP3    H166857   5.595   5.798   1.280 -1.9312  0.9124  0.0320
15122TIP3    H266858   5.500   5.699   1.345 -0.7046 -0.9334 -0.8801
15123TIP3   OH266859   2.051   1.237   2.838  0.0677  0.3810  0.1665
15123TIP3    H166860   2.056   1.220   2.932  0.4392  1.6662  0.3996
15123TIP3    H266861   1.995   1.167   2.804  0.1589 -0.2688  1.2913
15124TIP3   OH266862   4.696   0.508  11.205  0.1342  0.0681 -0.2387
15124TIP3    H166863   4.738   0.591  11.230  1.1896 -0.8441  1.1866
15124TIP3    H266864   4.757   0.468  11.143 -0.5368  0.4765 -1.1921
15125TIP3   OH266865   5.864   5.254   0.875 -0.2477  0.0498 -0.2315
15125TIP3    H166866   5.876   5.214   0.961 -1.5231  2.7640  1.3502
15125TIP3    H266867   5.769   5.268   0.868 -0.1887 -0.2953 -2.1891
15126TIP3   OH266868   6.007   0.226  10.640 -0.1814  0.0447 -0.2596
15126TIP3    H166869   5.961   0.301  10.679 -1.8710 -0.8460 -0.4264
15126TIP3    H266870   6.072   0.201  10.706 -0.1873  1.1125  0.1712
15127TIP3   OH266871   2.836   0.115  12.685  0.2376  0.8801  0.5324
15127TIP3    H166872   2.825   0.208  12.701 -2.8556  0.5327  0.9728
15127TIP3    H266873   2.787   0.072  12.755  1.9361 -1.1476  0.6007
15128TIP3   OH266874   6.291   5.163  16.492 -0.3941 -0.5632  0.2568
15128TIP3    H166875   6.366   5.221  16.487 -0.8789 -0.0076 -0.9930
15128TIP3    H266876   6.232   5.204  16.554 -0.8796  0.4980 -0.8628
15129TIP3   OH266877   4.328   2.981   2.187 -0.4212  0.2282 -0.2715
15129TIP3    H166878   4.374   3.029   2.255 -1.5749 -0.3127  0.9406
15129TIP3    H266879   4.354   3.024   2.105  2.6851 -0.4732  0.2375
15130TIP3   OH266880   3.636   2.819   1.719 -0.0137  0.4722 -0.0063
15130TIP3    H166881   3.663   2.858   1.802 -0.5264  0.0856  0.3507
15130TIP3    H266882   3.617   2.727   1.740  0.6253  0.1694 -0.7148
15131TIP3   OH266883   6.151   4.398  10.850  0.6915 -0.1527  0.1687
15131TIP3    H166884   6.149   4.494  10.850  0.8034 -0.1497  0.0808
15131TIP3    H266885   6.088   4.373  10.782  2.4973 -0.0886 -1.6533
15132TIP3   OH266886   5.131   6.668  15.146  0.5622 -0.0933 -0.6420
15132TIP3    H166887   5.100   6.588  15.190 -1.0194  0.1287 -1.2902
15132TIP3    H266888   5.191   6.636  15.078  0.0372 -0.7249 -0.8204
15133TIP3   OH266889   5.251   1.385  11.797 -0.1315 -0.3289 -0.1259
15133TIP3    H166890   5.204   1.311  11.760  0.1055 -1.6514  2.0824
15133TIP3    H266891   5.342   1.370  11.771  0.0605 -1.3395  1.0573
15134TIP3   OH266892   2.026   1.854   1.927 -0.1370  0.7143 -0.9026
15134TIP3    H166893   2.102   1.897   1.888  1.1099  0.0117  0.6129
15134TIP3    H266894   2.062   1.778   1.972 -1.7361  0.3808 -0.1015
15135TIP3   OH266895   2.537   1.162  14.175  0.1875  0.5241  0.4199
15135TIP3    H166896   2.621   1.160  14.221  0.4822 -1.8702 -0.0704
15135TIP3    H266897   2.472   1.172  14.244  0.6757 -2.2320  1.4311
15136TIP3   OH266898   5.710   5.748   5.238  0.3007  0.0013 -0.2809
15136TIP3    H166899   5.654   5.825   5.231  1.1828  0.8700  1.5656
15136TIP3    H266900   5.716   5.714   5.149 -1.7761  0.8407 -0.7961
15137TIP3   OH266901   1.391   5.517   4.011  0.1376 -0.1397  0.0501
15137TIP3    H166902   1.349   5.438   4.047 -0.9610  0.5142  0.2243
15137TIP3    H266903   1.342   5.537   3.932  0.4990  0.3131 -0.0635
15138TIP3   OH266904   1.883   1.591   5.505 -0.9037 -0.1562  0.0113
15138TIP3    H166905   1.871   1.512   5.558 -0.0453 -0.3259 -0.0361
15138TIP3    H266906   1.849   1.662   5.559 -1.0650 -0.4699  0.3290
15139TIP3   OH266907   4.067   0.625   4.035  0.0613 -0.0775  0.6141
15139TIP3    H166908   4.152   0.639   4.078  0.2519  0.2222  0.1443
15139TIP3    H266909   4.002   0.648   4.102  0.3484 -0.3210  0.9819
15140TIP3   OH266910   5.675   5.221   2.058  0.4161 -0.5853 -0.2542
15140TIP3    H166911   5.599   5.252   2.108 -0.0292 -0.6942 -0.8517
15140TIP3    H266912   5.750   5.237   2.115  0.1213  0.9410 -0.2711
15141TIP3   OH266913   6.596   4.385  14.972 -0.8751 -0.0020  0.0332
15141TIP3    H166914   6.618   4.454  15.035 -2.7076  0.6674  0.0046
15141TIP3    H266915   6.672   4.327  14.972  0.2493  1.4116  0.8949
15142TIP3   OH266916   3.987   6.002   1.612  0.0693 -0.5461 -0.1290
15142TIP3    H166917   3.967   6.088   1.649  0.5556 -0.1915 -0.6734
15142TIP3    H266918   3.988   5.943   1.688 -0.2507 -0.0722  0.2508
15143TIP3   OH266919   0.164   3.013   3.958 -0.0056  0.8694 -0.0042
15143TIP3    H166920   0.078   3.041   3.925 -0.5686 -0.1084  0.5796
15143TIP3    H266921   0.169   2.920   3.935  0.9336  0.9304 -0.0819
15144TIP3   OH266922   4.753   3.174   3.756  0.1030 -0.2682 -0.1015
15144TIP3    H166923   4.698   3.163   3.679 -2.6964 -1.2550  1.8953
15144TIP3    H266924   4.827   3.227   3.726 -1.0380 -0.3440 -3.3281
15145TIP3   OH266925   4.813   0.683  13.504  0.3602 -0.3542  0.0899
15145TIP3    H166926   4.889   0.671  13.448  0.8512 -0.7780  0.8173
15145TIP3    H266927   4.738   0.680  13.445  0.9030 -0.0450 -0.6220
15146TIP3   OH266928   6.567   4.698   5.357  0.2205 -0.2466  0.3999
15146TIP3    H166929   6.630   4.771   5.355  0.2623 -0.2784 -1.5922
15146TIP3    H266930   6.581   4.653   5.274 -2.7971  0.0843 -0.4085
15147TIP3   OH266931   0.813   3.755   2.645 -0.4339  0.1116 -0.6323
15147TIP3    H166932   0.767   3.707   2.713 -0.7284 -0.6063 -1.3313
15147TIP3    H266933   0.792   3.847   2.663  1.2325  0.1528  1.5349
15148TIP3   OH266934   5.851   2.133   1.719  0.1217  0.0028  0.2445
15148TIP3    H166935   5.939   2.163   1.742 -0.2494  0.8730  0.5755
15148TIP3    H266936   5.796   2.211   1.728 -0.6985 -0.5489  0.1211
15149TIP3   OH266937   6.480   6.273  15.743  0.0919  0.1241  0.9680
15149TIP3    H166938   6.401   6.235  15.782 -0.1756 -0.4229 -0.0814
15149TIP3    H266939   6.449   6.352  15.699 -0.3514 -1.3039 -1.4654
15150TIP3   OH266940   1.606   4.039  10.635 -0.1100 -0.0130 -0.0408
15150TIP3    H166941   1.664   3.998  10.572  2.2481  2.9676 -0.0568
15150TIP3    H266942   1.520   4.000  10.619  1.0196 -1.5527 -2.9531
15151TIP3   OH266943   6.087   0.338  16.620 -0.3527 -0.2374 -0.0964
15151TIP3    H166944   6.181   0.351  16.611  0.1748 -3.7004 -0.7268
15151TIP3    H266945   6.050   0.376  16.541  0.1372  3.0584  1.0780
15152TIP3   OH266946   2.273   3.976  10.701  0.5332  0.0357  0.0947
15152TIP3    H166947   2.181   3.997  10.717  0.7535 -0.8228  3.1237
15152TIP3    H266948   2.278   3.881  10.710  1.7045  0.0481 -0.2604
15153TIP3   OH266949   2.399   6.081  13.061  0.0320  0.2951  0.3939
15153TIP3    H166950   2.419   5.991  13.090 -1.0060  0.2350  0.9729
15153TIP3    H266951   2.333   6.070  12.993  1.9096  0.4852 -1.5614
15154TIP3   OH266952   2.433   5.549   0.954  0.1868  0.4694  0.1456
15154TIP3    H166953   2.526   5.569   0.945 -0.2676  2.0086 -1.9387
15154TIP3    H266954   2.400   5.549   0.864 -1.8526  0.0383  0.8475
15155TIP3   OH266955   6.526   1.401  16.336 -0.5362 -0.4643 -0.2438
15155TIP3    H166956   6.504   1.386  16.244 -2.5377 -1.1833  0.3081
15155TIP3    H266957   6.502   1.493  16.352  0.5915 -0.0830 -0.6090
15156TIP3   OH266958   2.938   5.601  16.948 -0.1343  0.3471  0.2425
15156TIP3    H166959   3.033   5.614  16.945 -0.1852  0.6279 -1.2728
15156TIP3    H266960   2.906   5.666  17.010  0.8061 -0.9719  2.2210
15157TIP3   OH266961   0.156   1.834  16.540  0.1287 -0.1260  0.2454
15157TIP3    H166962   0.104   1.911  16.521  0.4926  0.6428  2.1201
15157TIP3    H266963   0.097   1.775  16.587  0.0551 -0.6846 -0.5311
15158TIP3   OH266964   1.573   0.570   4.428 -0.1958  0.1378 -0.5508
15158TIP3    H166965   1.515   0.602   4.359 -0.0653  0.1691 -0.6475
15158TIP3    H266966   1.610   0.650   4.466 -1.1370  0.1712  0.3189
15159TIP3   OH266967   6.155   3.329  13.073 -0.0820  0.1071  0.3232
15159TIP3    H166968   6.184   3.251  13.025  0.9212 -0.8600  2.3743
15159TIP3    H266969   6.101   3.377  13.010  1.4248 -0.8959 -1.8548
15160TIP3   OH266970   5.036   2.161   5.050 -0.1928  0.3413  0.2315
15160TIP3    H166971   4.946   2.156   5.083  0.2612 -0.3698  1.4116
15160TIP3    H266972   5.054   2.255   5.043 -1.3203  0.4927 -0.8727
15161TIP3   OH266973   2.852   0.917  12.946 -0.8377  0.1614  0.5418
15161TIP3    H166974   2.824   0.904  12.855 -0.0024 -0.5613  0.3773
15161TIP3    H266975   2.882   1.008  12.948 -0.5429  0.0802  0.0073
15162TIP3   OH266976   4.801   5.580  11.164  0.3138  0.2546  0.0836
15162TIP3    H166977   4.711   5.549  11.177  1.2630 -2.7909  0.2374
15162TIP3    H266978   4.828   5.540  11.081  1.8174  0.3639  0.4900
15163TIP3   OH266979   3.543   0.439   4.268  0.4668 -0.5742 -0.2046
15163TIP3    H166980   3.622   0.446   4.215  0.2166  1.5405 -0.3992
15163TIP3    H266981   3.567   0.476   4.353  0.2079 -1.7153  0.3787
15164TIP3   OH266982   3.221   4.293   2.000  0.3882  0.3546 -0.0824
15164TIP3    H166983   3.236   4.382   1.969 -0.0144  0.6156  0.4613
15164TIP3    H266984   3.164   4.303   2.076 -1.0365 -0.4673 -0.9764
15165TIP3   OH266985   5.400   4.006   5.157  0.2422 -0.6029  0.1464
15165TIP3    H166986   5.444   3.975   5.078  1.9408  0.5827  0.5684
15165TIP3    H266987   5.430   4.096   5.168 -1.5308 -0.0749  1.0611
15166TIP3   OH266988   4.266   2.994   1.494 -0.2220  1.0516  0.1332
15166TIP3    H166989   4.333   2.980   1.428 -0.1980 -0.5399  0.4688
15166TIP3    H266990   4.199   3.047   1.450  0.8294  1.9439 -0.4491
15167TIP3   OH266991   5.111   4.392  15.732  0.4061  0.1395  0.3470
15167TIP3    H166992   5.104   4.355  15.644  0.0159 -1.2383  0.9257
15167TIP3    H266993   5.071   4.327  15.789  1.7137  0.4410  1.7007
15168TIP3   OH266994   5.490   4.196   5.493  0.1050  0.1317  0.2550
15168TIP3    H166995   5.403   4.161   5.511  0.4402 -0.6392  0.4402
15168TIP3    H266996   5.548   4.121   5.504  0.5153 -0.0459 -2.4214
15169TIP3   OH266997   0.801   3.399  12.845 -0.7023  0.2000 -0.0031
15169TIP3    H166998   0.889   3.435  12.853 -0.6223  0.5326 -1.9836
15169TIP3    H266999   0.752   3.464  12.796 -1.2996 -1.1625 -1.3075
15170TIP3   OH267000   2.804   2.554   1.152  0.0262 -0.2269 -0.5384
15170TIP3    H167001   2.844   2.641   1.147 -0.7660  0.2432  0.8734
15170TIP3    H267002   2.728   2.559   1.093 -1.2752  0.7880  1.1301
15171TIP3   OH267003   5.440   2.317   2.744  0.3028 -0.2515 -0.4410
15171TIP3    H167004   5.383   2.390   2.721 -0.2279 -0.4148  0.3179
15171TIP3    H267005   5.421   2.250   2.678  0.8800  0.3330 -1.2065
15172TIP3   OH267006   1.700   5.315   4.923  0.1345 -0.4999  0.0050
15172TIP3    H167007   1.754   5.394   4.920 -2.5356  1.4527 -0.6347
15172TIP3    H267008   1.710   5.282   5.012  0.3679  1.2821  0.6832
15173TIP3   OH267009   6.481   2.409  13.622 -0.2685 -0.0874 -0.2246
15173TIP3    H167010   6.431   2.489  13.640  1.9496  0.9282  2.1468
15173TIP3    H267011   6.456   2.384  13.533 -3.7910  1.1209  0.2628
15174TIP3   OH267012   4.739   0.245   0.338 -0.3909  0.4992  0.0878
15174TIP3    H167013   4.696   0.199   0.411 -0.4496  1.4388  0.6570
15174TIP3    H267014   4.667   0.268   0.279 -0.2021 -1.5072 -1.0202
15175TIP3   OH267015   4.275   3.153  11.008 -0.0829  0.0514  0.1395
15175TIP3    H167016   4.238   3.065  11.013  0.8952 -0.3247  1.2040
15175TIP3    H267017   4.339   3.148  10.937 -0.8715  0.2495 -0.5985
15176TIP3   OH267018   3.776   3.845  12.026  0.3070 -0.1947  0.2461
15176TIP3    H167019   3.685   3.869  12.045  0.1954 -0.9266  0.6697
15176TIP3    H267020   3.773   3.811  11.937 -0.1100 -1.5605  0.7576
15177TIP3   OH267021   1.179   5.667   1.027  0.8330 -0.1454 -0.1244
15177TIP3    H167022   1.113   5.636   1.089  0.8661 -0.1426 -0.0879
15177TIP3    H267023   1.156   5.624   0.944  0.4230  0.3281 -0.2635
15178TIP3   OH267024   2.899   5.311  12.698 -0.4644 -0.4769  0.5606
15178TIP3    H167025   2.843   5.235  12.709 -0.8544 -0.3054 -0.1520
15178TIP3    H267026   2.873   5.348  12.613  1.8510 -1.3407 -0.6104
15179TIP3   OH267027   2.690   5.686  16.177 -0.4271 -0.3265 -0.2632
15179TIP3    H167028   2.662   5.695  16.268  0.2642 -1.1179  0.0419
15179TIP3    H267029   2.613   5.649  16.132 -0.5572 -0.5403  0.1324
15180TIP3   OH267030   2.428   6.260  16.235 -0.3562  0.3798 -0.0010
15180TIP3    H167031   2.406   6.172  16.205  0.4454 -0.9986  3.0132
15180TIP3    H267032   2.344   6.301  16.254 -0.7888  0.7267 -2.4245
15181TIP3   OH267033   3.159   4.679  10.566 -0.0407 -0.2917  0.3744
15181TIP3    H167034   3.234   4.668  10.508 -0.3699 -1.1050  0.0804
15181TIP3    H267035   3.137   4.772  10.561  1.3527  0.0957  0.9886
15182TIP3   OH267036   1.261   3.175  11.217  0.0872  0.4337 -0.0925
15182TIP3    H167037   1.213   3.155  11.136 -1.0997  2.5874  0.0160
15182TIP3    H267038   1.275   3.269  11.214  1.5948  0.2929  1.3968
15183TIP3   OH267039   5.418   3.513   5.928  0.8136  0.1063  0.0233
15183TIP3    H167040   5.408   3.491   5.836  1.5188  0.1716 -0.0683
15183TIP3    H267041   5.508   3.543   5.937  0.6462  0.4441  0.6656
15184TIP3   OH267042   4.117   3.452   3.016 -0.0901  0.1847 -0.3258
15184TIP3    H167043   4.200   3.497   3.003 -0.4647  0.8549 -0.4574
15184TIP3    H267044   4.082   3.441   2.927 -0.2365  0.0971 -0.2576
15185TIP3   OH267045   2.808   2.116   3.527  0.1750  0.3774 -0.0316
15185TIP3    H167046   2.725   2.088   3.488  0.0784 -1.2959  1.2555
15185TIP3    H267047   2.784   2.182   3.592  0.0501  1.0884 -0.7814
15186TIP3   OH267048   5.967   3.601  12.514  0.2807 -0.4832 -0.1884
15186TIP3    H167049   5.953   3.530  12.576  1.6189 -0.6598 -0.0568
15186TIP3    H267050   6.051   3.640  12.540 -1.1176  2.1592  0.7038
15187TIP3   OH267051   2.370   0.621  14.514  0.3965 -0.1674 -0.1197
15187TIP3    H167052   2.381   0.716  14.515 -0.0228 -0.1173 -0.2728
15187TIP3    H267053   2.442   0.589  14.460 -0.1502  0.1586 -1.0717
15188TIP3   OH267054   6.393   2.985   3.781 -0.0109 -0.2145  0.5563
15188TIP3    H167055   6.444   3.007   3.859  0.1418 -0.6482  0.5821
15188TIP3    H267056   6.322   2.930   3.814  1.0094 -1.8252  0.1823
15189TIP3   OH267057   6.674   1.035   2.851  0.1209 -0.1797 -0.5686
15189TIP3    H167058   6.754   1.060   2.805  0.8672 -1.3236  0.0486
15189TIP3    H267059   6.698   1.038   2.943 -0.8110  0.2762 -0.3349
15190TIP3   OH267060   2.415   1.782  17.007 -0.1461 -0.2003 -0.3141
15190TIP3    H167061   2.499   1.759  16.966  0.7338  2.4553 -0.2368
15190TIP3    H267062   2.389   1.863  16.962 -1.4783  0.2974  1.2718
15191TIP3   OH267063   2.774   5.986  16.030  0.1136  0.0673  0.3392
15191TIP3    H167064   2.707   6.025  15.974  0.6480  0.3521 -0.1095
15191TIP3    H267065   2.753   5.892  16.029 -0.4252  0.1825  0.4080
15192TIP3   OH267066   5.203   4.663  13.974 -0.2115  0.0211  0.0417
15192TIP3    H167067   5.125   4.709  14.003 -0.0355 -0.0880  0.7013
15192TIP3    H267068   5.188   4.572  13.996  0.7828  0.2270  1.7146
15193TIP3   OH267069   0.161   2.547   0.912 -0.1424  0.0209 -0.3599
15193TIP3    H167070   0.106   2.472   0.890 -1.1005  0.8612 -0.9376
15193TIP3    H267071   0.100   2.621   0.918  0.9595  1.0876 -1.5754
15194TIP3   OH267072   5.778   5.444  12.241  0.3629 -0.0517 -0.0212
15194TIP3    H167073   5.860   5.474  12.202  1.0212 -0.0757  1.2809
15194TIP3    H267074   5.804   5.399  12.321 -0.8636 -0.9402 -0.0865
15195TIP3   OH267075   5.279   4.271   4.558  0.4861  0.0873 -0.6097
15195TIP3    H167076   5.229   4.220   4.493 -2.2080  1.0225  0.5547
15195TIP3    H267077   5.370   4.264   4.530 -0.3899 -0.7875 -3.6023
15196TIP3   OH267078   5.748   6.690  14.546 -0.2047 -0.8708  0.3939
15196TIP3    H167079   5.801   6.668  14.470  3.5528  0.9950  2.1912
15196TIP3    H267080   5.698   6.766  14.519  0.9909 -0.2983 -0.3099
15197TIP3   OH267081   1.976   1.148  13.043  0.1775 -0.4246  0.4462
15197TIP3    H167082   1.959   1.078  13.105  0.1875 -0.2051  0.6961
15197TIP3    H267083   1.941   1.226  13.084 -1.1599 -0.5155 -0.4633
15198TIP3   OH267084   3.068   2.958   4.218 -0.6740 -0.7233  0.2142
15198TIP3    H167085   3.154   2.924   4.242 -1.5104 -0.9891  3.2963
15198TIP3    H267086   3.021   2.882   4.185  0.0705 -0.7005 -0.9324
15199TIP3   OH267087   5.879   5.981  14.377 -0.0521 -0.6475 -0.3026
15199TIP3    H167088   5.902   6.070  14.349  2.2734 -1.2087 -0.3398
15199TIP3    H267089   5.830   5.994  14.458  1.2953  0.6683  0.3589
15200TIP3   OH267090   2.900   2.178   1.118  0.2600  0.4992  0.7049
15200TIP3    H167091   2.806   2.165   1.125  0.2653 -2.9342 -2.3535
15200TIP3    H267092   2.912   2.223   1.034  1.3507 -1.4837 -0.2637
15201TIP3   OH267093   6.014   5.889   0.216 -0.2270 -0.1960  0.0044
15201TIP3    H167094   6.108   5.907   0.223 -0.4019  2.6244 -2.7729
15201TIP3    H267095   6.009   5.812   0.159  0.4204  0.1158 -0.4953
15202TIP3   OH267096   4.606   4.495  12.381 -0.0353 -0.4614  0.0591
15202TIP3    H167097   4.516   4.466  12.367 -0.7718  1.6270  0.0321
15202TIP3    H267098   4.658   4.442  12.320 -1.5184 -0.3594 -1.3667
15203TIP3   OH267099   1.578   2.969  12.700 -0.0415  0.1105 -0.1392
15203TIP3    H167100   1.544   2.880  12.697  0.6173 -0.2183 -4.2738
15203TIP3    H267101   1.501   3.024  12.691 -0.4437  0.0380  2.3527
15204TIP3   OH267102   4.285   5.098   0.934  0.3676 -0.8430 -0.0902
15204TIP3    H167103   4.354   5.069   0.874  1.4282 -0.4790  0.9272
15204TIP3    H267104   4.214   5.035   0.920  0.4401 -0.5739 -1.9570
15205TIP3   OH267105   4.220   5.414  12.014  0.1409  0.0316 -0.3340
15205TIP3    H167106   4.192   5.322  12.006  2.1300 -0.7255  0.7022
15205TIP3    H267107   4.315   5.411  12.006  0.1065  2.3532 -2.6771
15206TIP3   OH267108   5.982   6.544  15.894  0.2627  0.0064 -0.8743
15206TIP3    H167109   5.991   6.493  15.974  0.9566  0.4803 -0.6355
15206TIP3    H267110   6.043   6.617  15.905 -1.0961  1.2045 -0.9589
15207TIP3   OH267111   4.625   5.569   1.591 -0.4202  0.5064 -0.1232
15207TIP3    H167112   4.635   5.505   1.662  0.6672 -0.1035 -0.8079
15207TIP3    H267113   4.593   5.518   1.517 -0.5016  0.9417 -0.3901
15208TIP3   OH267114   6.501   5.333  12.074  0.4710 -0.0007  0.0966
15208TIP3    H167115   6.472   5.245  12.099  0.0511 -0.7447 -2.6667
15208TIP3    H267116   6.449   5.392  12.129 -1.6044 -1.4365 -0.2001
15209TIP3   OH267117   5.662   4.990  12.981  0.4196  1.3697  0.1754
15209TIP3    H167118   5.639   5.035  12.900  0.3691  3.3443  1.2273
15209TIP3    H267119   5.610   5.034  13.048  1.4239  0.6586  1.4611
15210TIP3   OH267120   4.870   5.938   5.701 -0.6089 -0.0335  0.0165
15210TIP3    H167121   4.789   5.907   5.743  0.2117 -0.8169  1.0874
15210TIP3    H267122   4.918   5.858   5.681 -0.0040  0.4313 -0.4217
15211TIP3   OH267123   1.501   0.722  17.090  0.1060  0.1366  0.0387
15211TIP3    H167124   1.496   0.769  17.173  1.0153 -0.2549  0.3226
15211TIP3    H267125   1.428   0.757  17.039  0.0391  0.9814  0.6872
15212TIP3   OH267126   4.849   0.858  14.925 -0.2426 -0.3208 -0.0338
15212TIP3    H167127   4.859   0.763  14.919 -0.2538 -0.3214 -0.0425
15212TIP3    H267128   4.817   0.885  14.839  0.3600 -0.2366 -0.2374
15213TIP3   OH267129   3.293   5.133  15.887  0.5288  0.2060 -0.2367
15213TIP3    H167130   3.261   5.042  15.879  0.0750  0.2489  0.9616
15213TIP3    H267131   3.223   5.179  15.932  1.8560  0.5290  1.6182
15214TIP3   OH267132   6.350   2.371  16.903  0.0287 -0.5764 -0.0447
15214TIP3    H167133   6.286   2.338  16.841 -0.3257  2.6560 -1.5859
15214TIP3    H267134   6.306   2.444  16.947  2.1913  1.0285 -0.3509
15215TIP3   OH267135   6.789   1.944  16.419 -0.8458  0.2087 -0.6554
15215TIP3    H167136   6.772   1.865  16.368 -1.3392  1.2626 -2.1730
15215TIP3    H267137   6.705   1.966  16.460 -0.2995 -1.0156  1.2514
15216TIP3   OH267138   2.099   2.148  13.996  0.0858  0.0969 -0.5034
15216TIP3    H167139   2.137   2.063  14.019 -0.3593 -0.2179 -0.9123
15216TIP3    H267140   2.166   2.212  14.020  0.6725 -0.4141 -0.7717
15217TIP3   OH267141   6.268   3.136  12.911  0.1312  0.4216  0.0328
15217TIP3    H167142   6.214   3.059  12.894  0.2731  0.1178  0.8929
15217TIP3    H267143   6.295   3.167  12.825  0.3172 -0.6672 -0.3061
15218TIP3   OH267144   0.197   0.588  16.474  0.5381  0.0799  0.2281
15218TIP3    H167145   0.266   0.539  16.430 -1.0783 -0.7049 -1.5610
15218TIP3    H267146   0.202   0.560  16.566  0.8537 -2.0717 -0.3944
15219TIP3   OH267147   6.741   1.204  15.813 -0.2206 -0.1819 -0.3952
15219TIP3    H167148   6.804   1.149  15.859 -1.9271 -0.6491  1.5238
15219TIP3    H267149   6.767   1.293  15.836 -0.2105 -0.3680  0.3641
15220TIP3   OH267150   4.353   5.003   5.330 -0.7965  0.2067 -0.0830
15220TIP3    H167151   4.338   4.912   5.354 -0.7652  0.4501  0.9184
15220TIP3    H267152   4.447   5.009   5.315 -0.7089  0.2052  0.4552
15221TIP3   OH267153   4.359   5.341   4.015 -0.5381 -0.4029 -0.3390
15221TIP3    H167154   4.434   5.352   4.074  2.0623 -0.8950 -3.3071
15221TIP3    H267155   4.331   5.430   3.995 -0.2100 -0.1858  0.1428
15222TIP3   OH267156   0.296   5.710   1.166  0.7375  0.0071  0.3990
15222TIP3    H167157   0.315   5.730   1.258  2.9909  0.1355 -0.0322
15222TIP3    H267158   0.222   5.767   1.144  1.0949  1.0530  1.7390
15223TIP3   OH267159   4.033   6.685  15.772 -0.3253 -0.2593  0.0539
15223TIP3    H167160   3.993   6.600  15.754 -0.2892  0.1355 -2.2693
15223TIP3    H267161   3.974   6.727  15.836 -0.5604 -1.8314  0.9111
15224TIP3   OH267162   5.350   5.026   0.162  0.9323  0.0478 -0.0790
15224TIP3    H167163   5.330   4.932   0.159  1.6097 -0.0638 -1.3890
15224TIP3    H267164   5.431   5.035   0.112 -0.2931  1.6310 -1.9053
15225TIP3   OH267165   0.558   3.167  12.177  0.4627  0.3436 -0.5307
15225TIP3    H167166   0.584   3.236  12.238 -2.3833  1.3139 -0.2589
15225TIP3    H267167   0.626   3.101  12.185  0.9781  1.0892  2.6286
15226TIP3   OH267168   5.202   6.035  13.435  0.3168 -0.5796 -0.4733
15226TIP3    H167169   5.221   6.000  13.522 -0.7159  1.9497  0.8660
15226TIP3    H267170   5.282   6.080  13.409  0.0161  0.2570  0.0252
15227TIP3   OH267171   0.394   3.493  12.485  0.1613  0.0952  0.0616
15227TIP3    H167172   0.425   3.430  12.551 -0.9096  0.3822  0.8729
15227TIP3    H267173   0.422   3.578  12.519  1.5010  0.0945 -0.9742
15228TIP3   OH267174   5.451   0.682  13.774  0.2676 -0.2152 -0.0378
15228TIP3    H167175   5.480   0.595  13.749 -0.2118 -0.3671 -0.0606
15228TIP3    H267176   5.460   0.684  13.869 -0.4241 -0.5472  0.0398
15229TIP3   OH267177   0.175   6.134   3.963  0.6358 -0.1197  0.3546
15229TIP3    H167178   0.120   6.208   3.989  2.5909  2.1511 -1.4919
15229TIP3    H267179   0.115   6.073   3.922 -1.0663  0.3423  1.9904
15230TIP3   OH267180   5.986   6.277   6.043  0.1533  0.2642 -0.2190
15230TIP3    H167181   5.910   6.219   6.044  0.1274  0.3045  0.1162
15230TIP3    H267182   5.949   6.364   6.030  0.0218  0.4557  1.2357
15231TIP3   OH267183   3.806   0.114   5.280  0.6422  0.9853 -0.8900
15231TIP3    H167184   3.841   0.079   5.198 -1.1925 -1.0492 -0.8865
15231TIP3    H267185   3.711   0.105   5.272  0.3381  2.0140  0.9256
15232TIP3   OH267186   3.858   1.688  12.764  0.0811 -0.0542 -0.2351
15232TIP3    H167187   3.873   1.764  12.820 -3.1467 -0.6375  1.6333
15232TIP3    H267188   3.875   1.613  12.820 -1.5114 -0.6623 -0.5391
15233TIP3   OH267189   0.909   4.466  16.838 -0.1042  0.3268  0.4061
15233TIP3    H167190   0.901   4.385  16.888 -0.3925  2.6982  4.6619
15233TIP3    H267191   0.983   4.451  16.779 -0.3156 -3.0421  0.8139
15234TIP3   OH267192   5.341   5.604  14.615  0.2175  0.2599  0.2670
15234TIP3    H167193   5.309   5.677  14.668  0.6238 -0.6715  1.8614
15234TIP3    H267194   5.288   5.529  14.643  0.3589 -0.2271 -0.7383
15235TIP3   OH267195   2.873   6.344  12.817 -0.2287 -0.3058  0.2855
15235TIP3    H167196   2.845   6.405  12.750 -1.5563  0.1130  1.1812
15235TIP3    H267197   2.923   6.277  12.770 -0.2621  0.5178 -0.9497
15236TIP3   OH267198   0.317   1.763  16.116  0.0962  0.2352 -0.2281
15236TIP3    H167199   0.374   1.835  16.089  2.3465 -0.8300  1.3138
15236TIP3    H267200   0.331   1.756  16.211 -3.9868  0.9746  0.6147
15237TIP3   OH267201   0.426   1.194  14.757 -0.8723  0.3018 -0.6839
15237TIP3    H167202   0.436   1.249  14.679 -0.9046  1.2217 -0.0616
15237TIP3    H267203   0.379   1.250  14.819  0.9043  0.3330  0.7078
15238TIP3   OH267204   3.551   6.333  12.836  0.3321 -0.5062  0.1230
15238TIP3    H167205   3.640   6.353  12.866 -0.1033  1.8809  0.0055
15238TIP3    H267206   3.563   6.260  12.774  2.2294 -0.1417 -0.0040
15239TIP3   OH267207   0.168   0.317   0.247  0.0705 -0.7278 -0.6055
15239TIP3    H167208   0.114   0.374   0.301  0.6930  0.0814 -0.8037
15239TIP3    H267209   0.161   0.231   0.288  0.3967 -0.1761  0.6905
15240TIP3   OH267210   3.586   1.146   6.046  0.0835 -0.6190  0.1890
15240TIP3    H167211   3.550   1.140   6.134  2.3146 -0.9886  1.1377
15240TIP3    H267212   3.538   1.219   6.006 -1.3002 -0.7492  1.5154
15241TIP3   OH267213   1.526   5.745   4.559  0.5114  0.5086 -0.3636
15241TIP3    H167214   1.560   5.835   4.556  1.8828 -0.0088 -1.0953
15241TIP3    H267215   1.564   5.703   4.482 -0.4147 -0.6098 -0.2276
15242TIP3   OH267216   2.041   0.141  12.159  0.3262  0.1100  0.6308
15242TIP3    H167217   2.100   0.181  12.096  2.2517 -2.7322  0.4169
15242TIP3    H267218   2.098   0.087  12.214 -1.8716 -1.3714  1.6162
15243TIP3   OH267219   0.859   1.090   0.865 -0.3012  0.2794  0.1556
15243TIP3    H167220   0.856   1.065   0.958 -1.0681  0.6863  0.2460
15243TIP3    H267221   0.787   1.152   0.855 -0.2989  0.1383 -0.7469
15244TIP3   OH267222   2.520   1.945   5.237 -0.4452 -0.3764 -0.1113
15244TIP3    H167223   2.476   2.029   5.224 -0.1627 -0.3900 -1.2516
15244TIP3    H267224   2.476   1.885   5.177  1.7493 -0.1453 -2.0970
15245TIP3   OH267225   0.397   0.622  11.777  0.6545  0.4346  0.4606
15245TIP3    H167226   0.429   0.565  11.706 -1.2014 -0.5299  0.3452
15245TIP3    H267227   0.363   0.562  11.843  0.2375  1.3920  1.1433
15246TIP3   OH267228   2.999   1.339  10.833 -0.0549  0.3803  0.3688
15246TIP3    H167229   2.964   1.264  10.785  0.1162 -0.4121  1.4503
15246TIP3    H267230   3.089   1.348  10.800 -0.0509  0.0683  0.2871
15247TIP3   OH267231   1.234   0.323  15.224 -0.1689  0.2653 -0.1002
15247TIP3    H167232   1.287   0.307  15.146  1.0363 -0.0331  0.7452
15247TIP3    H267233   1.292   0.301  15.297 -2.3810 -3.0300  0.8669
15248TIP3   OH267234   5.606   5.806  11.999 -0.3686  0.4382  0.0246
15248TIP3    H167235   5.551   5.853  11.935  0.9033  2.4965  0.3600
15248TIP3    H267236   5.675   5.767  11.946 -0.4130  0.4747 -0.0615
15249TIP3   OH267237   2.888   5.060   4.859  0.0296  0.0826 -0.2046
15249TIP3    H167238   2.866   5.134   4.802  2.8277  1.9743  0.9273
15249TIP3    H267239   2.949   5.007   4.807 -2.0493 -1.6441 -1.0540
15250TIP3   OH267240   2.778   3.046   3.795  0.5481 -0.5869 -0.7456
15250TIP3    H167241   2.835   3.029   3.870  0.7775  1.8275 -0.2867
15250TIP3    H267242   2.699   3.084   3.833  1.1263  1.7793 -1.7252
15251TIP3   OH267243   2.559   1.502  12.214  0.5108 -0.3920  0.0310
15251TIP3    H167244   2.549   1.413  12.248 -1.0435 -0.6765 -1.0516
15251TIP3    H267245   2.501   1.555  12.269 -0.2235 -0.4468 -0.6756
15252TIP3   OH267246   4.027   1.627  14.453  0.5839 -0.0750  0.0716
15252TIP3    H167247   4.101   1.568  14.469 -0.3063 -0.3367  4.3067
15252TIP3    H267248   3.961   1.571  14.412  0.4064 -1.7355  2.3820
15253TIP3   OH267249   6.435   4.962  14.506 -0.0601  0.1413 -0.2721
15253TIP3    H167250   6.349   4.969  14.465  0.4937 -1.4644 -1.8365
15253TIP3    H267251   6.497   4.960  14.433  1.1860 -0.2490  0.7481
15254TIP3   OH267252   5.001   5.942   3.525  0.6668 -0.3180 -0.3679
15254TIP3    H167253   4.906   5.936   3.527  0.6481 -0.5570 -1.4165
15254TIP3    H267254   5.023   6.003   3.595 -0.2812 -0.0197 -0.3244
15255TIP3   OH267255   1.527   3.157  14.755 -0.5660  0.0738 -0.4632
15255TIP3    H167256   1.471   3.083  14.779  0.4840 -0.6813 -0.2515
15255TIP3    H267257   1.591   3.119  14.695  0.3548  0.6735  0.1204
15256TIP3   OH267258   3.387   4.709   3.870  0.7262 -0.6733  0.0281
15256TIP3    H167259   3.329   4.735   3.798 -0.6456 -1.9493  0.6409
15256TIP3    H267260   3.455   4.657   3.828  0.1241 -1.1234 -0.4086
15257TIP3   OH267261   5.481   6.085   2.966 -1.0190 -0.0366 -0.7458
15257TIP3    H167262   5.421   6.028   3.012 -0.8091  0.4333  0.1300
15257TIP3    H267263   5.426   6.133   2.904 -1.5484  0.3320 -0.0097
15258TIP3   OH267264   2.939   1.446   2.279 -0.1141 -0.0235  0.1203
15258TIP3    H167265   2.876   1.499   2.229 -0.6853 -0.9252 -0.1340
15258TIP3    H267266   2.893   1.425   2.360  0.0687 -0.2248  0.1704
15259TIP3   OH267267   1.938   4.874  13.088  0.2473 -0.4120 -0.5416
15259TIP3    H167268   1.856   4.924  13.084 -0.7653 -1.9753 -0.2046
15259TIP3    H267269   1.930   4.821  13.167  1.0443 -1.4943 -1.1572
15260TIP3   OH267270   5.080   1.235  17.173  0.1653  0.1266 -0.0220
15260TIP3    H167271   5.106   1.166  17.235 -0.6410 -1.4986 -1.3935
15260TIP3    H267272   5.113   1.204  17.089 -0.2599  1.4331 -0.6831
15261TIP3   OH267273   2.645   0.660   5.822  0.4404  0.6876 -0.1508
15261TIP3    H167274   2.585   0.605   5.873 -1.0854  1.2127 -1.3162
15261TIP3    H267275   2.702   0.598   5.777  0.7750  0.1754  0.9350
15262TIP3   OH267276   2.770   5.334  12.985 -0.4951 -0.5612 -0.0018
15262TIP3    H167277   2.686   5.309  12.946 -0.6778  0.9216 -0.6144
15262TIP3    H267278   2.813   5.385  12.917  1.9541 -3.2192 -0.6128
15263TIP3   OH267279   0.940   2.961   1.016  0.4034 -0.2728 -0.0097
15263TIP3    H167280   0.940   2.982   0.923 -0.3994  2.1359  0.4674
15263TIP3    H267281   0.874   2.893   1.026 -0.3671  0.3050 -1.0512
15264TIP3   OH267282   6.832   6.518   0.416 -0.5063  0.1721  0.1628
15264TIP3    H167283   6.838   6.432   0.373 -0.2918  0.0218  0.4845
15264TIP3    H267284   6.747   6.553   0.389 -0.7588 -0.3061  0.3245
15265TIP3   OH267285   2.544   2.663   3.778  0.1798  0.5960  0.3408
15265TIP3    H167286   2.534   2.725   3.706  2.1745 -0.5186 -0.9977
15265TIP3    H267287   2.536   2.717   3.857  0.9600  2.3956 -0.7409
15266TIP3   OH267288   3.329   6.095   2.602  0.8105  0.1517  0.2687
15266TIP3    H167289   3.319   6.000   2.596  0.6922  0.1314  0.7284
15266TIP3    H267290   3.240   6.129   2.597  0.7142  0.1431  1.5396
15267TIP3   OH267291   6.440   1.061  14.407  0.2343 -0.1751 -0.2399
15267TIP3    H167292   6.517   1.009  14.386 -0.5541 -1.7966  0.7553
15267TIP3    H267293   6.367   0.999  14.404 -0.9265  1.1350 -0.2625
15268TIP3   OH267294   3.892   0.577   0.406  0.3357 -0.7348 -0.0758
15268TIP3    H167295   3.927   0.506   0.459 -0.2920 -0.6641  0.4503
15268TIP3    H267296   3.842   0.533   0.337  1.5648 -0.8400 -0.9346
15269TIP3   OH267297   0.948   2.072  11.252 -0.2988  0.3998  0.0506
15269TIP3    H167298   1.016   2.059  11.318 -1.0947  0.7986  0.9736
15269TIP3    H267299   0.923   1.984  11.225  0.7226  0.2504 -0.4638
15270TIP3   OH267300   6.704   1.994   3.062  0.5721  0.1157 -0.5328
15270TIP3    H167301   6.674   1.905   3.043 -0.8255  0.7167 -1.2772
15270TIP3    H267302   6.759   2.018   2.988 -0.6451  0.5594 -1.3221
15271TIP3   OH267303   4.946   6.114   3.166  0.3683 -0.1253  0.0589
15271TIP3    H167304   5.023   6.154   3.206  0.1913 -0.0602  0.3435
15271TIP3    H267305   4.894   6.083   3.241  0.0648 -0.0605 -0.1240
15272TIP3   OH267306   6.467   0.423  13.356  0.0647  0.1030  0.5155
15272TIP3    H167307   6.486   0.382  13.271  1.3315  1.1645  0.2531
15272TIP3    H267308   6.455   0.515  13.335 -0.8670  0.1760  1.3420
15273TIP3   OH267309   3.220   5.361   1.355  0.0738 -0.2683 -0.2039
15273TIP3    H167310   3.154   5.342   1.288 -0.4427  1.6551 -0.2858
15273TIP3    H267311   3.197   5.303   1.428 -0.2906 -1.2766 -1.0878
15274TIP3   OH267312   0.686   2.910   0.605  0.0944 -0.5502 -0.4106
15274TIP3    H167313   0.721   2.999   0.601 -1.1633 -0.0028  0.1634
15274TIP3    H267314   0.594   2.920   0.582 -0.5564 -1.3971  1.6412
15275TIP3   OH267315   6.792   3.315  16.091  0.1579 -0.6426 -0.4094
15275TIP3    H167316   6.772   3.372  16.165  2.6566  0.5397 -0.5320
15275TIP3    H267317   6.727   3.245  16.096  0.5724 -0.9609  3.2714
15276TIP3   OH267318   1.659   1.251   6.111 -0.3996 -0.7296  0.2188
15276TIP3    H167319   1.660   1.346   6.127 -1.1112 -0.6954  0.1222
15276TIP3    H267320   1.705   1.214   6.185 -0.4336 -0.3273  0.4455
15277TIP3   OH267321   2.035   2.429   1.570  0.0936 -0.1908  0.6315
15277TIP3    H167322   2.029   2.503   1.511 -1.1911 -0.2506  0.6539
15277TIP3    H267323   1.957   2.376   1.551  1.2644 -1.8623  0.1999
15278TIP3   OH267324   2.371   5.888   3.946 -0.0890 -0.5038 -0.1430
15278TIP3    H167325   2.365   5.983   3.949 -0.0869 -0.4412 -1.5735
15278TIP3    H267326   2.333   5.864   3.861  0.5991 -1.7185 -0.1259
15279TIP3   OH267327   1.970   0.392   2.349 -0.3183 -0.0168 -0.0710
15279TIP3    H167328   1.973   0.297   2.336  1.5537  0.1511 -1.2843
15279TIP3    H267329   2.059   0.415   2.377  0.1050  1.6872 -2.4956
15280TIP3   OH267330   1.116   3.524  14.799  0.0267 -0.6342 -0.1201
15280TIP3    H167331   1.084   3.566  14.879 -1.0916 -1.8114  0.0872
15280TIP3    H267332   1.110   3.430  14.817  3.6570 -1.0036 -0.0811
15281TIP3   OH267333   2.213   4.333  16.524  0.4247 -0.1918  0.0952
15281TIP3    H167334   2.296   4.367  16.490 -0.2638  0.3828 -1.0508
15281TIP3    H267335   2.187   4.266  16.461  0.6013 -1.2514  1.1028
15282TIP3   OH267336   0.530   3.434   1.076 -0.1426 -0.0498 -0.1677
15282TIP3    H167337   0.592   3.470   1.139 -0.3133  0.1595 -0.1193
15282TIP3    H267338   0.584   3.380   1.018 -0.0279 -0.4685  0.3225
15283TIP3   OH267339   2.761   5.871  14.554 -0.2526 -0.6106 -0.0350
15283TIP3    H167340   2.791   5.906  14.638 -0.1859  0.0405 -0.3161
15283TIP3    H267341   2.695   5.806  14.576  1.3355 -2.0804  0.6101
15284TIP3   OH267342   0.740   2.884  13.050 -0.6722 -0.0067  0.2703
15284TIP3    H167343   0.697   2.917  13.129 -0.0955  1.8774 -0.1321
15284TIP3    H267344   0.754   2.962  12.997  1.1663 -0.8760 -0.6071
15285TIP3   OH267345   4.253   5.104   4.326  0.4498  0.0294  0.2914
15285TIP3    H167346   4.262   5.193   4.359  0.5968 -0.0721  0.5270
15285TIP3    H267347   4.301   5.050   4.388 -2.1803 -0.6101  1.9362
15286TIP3   OH267348   1.357   6.753  16.756  0.2933 -0.1546 -0.6190
15286TIP3    H167349   1.431   6.700  16.783  0.6593  0.2087 -0.9070
15286TIP3    H267350   1.355   6.745  16.661 -0.5084 -0.7878 -0.5662
15287TIP3   OH267351   0.058   2.938   2.821  0.0248  0.0414  0.2946
15287TIP3    H167352   0.012   2.955   2.739  0.4524 -0.5964 -0.0887
15287TIP3    H267353   0.012   2.863   2.860  0.6266 -0.4977 -0.0134
15288TIP3   OH267354   4.045   2.930   2.051  0.1456  0.0217 -0.3922
15288TIP3    H167355   3.958   2.927   2.092 -0.2197  0.0200 -1.1495
15288TIP3    H267356   4.098   2.870   2.104  0.0048  0.8916  0.7721
15289TIP3   OH267357   2.018   3.124  17.051 -0.8600 -0.3054  0.2295
15289TIP3    H167358   2.028   3.172  16.969  2.3916 -2.2320 -0.6719
15289TIP3    H267359   2.099   3.139  17.098 -1.1462 -2.1347  1.4162
15290TIP3   OH267360   6.120   6.121   3.711  0.4399  0.6941 -0.0962
15290TIP3    H167361   6.118   6.184   3.783 -2.5477 -1.3423  1.8113
15290TIP3    H267362   6.196   6.066   3.731  0.7515  1.2790  0.3986
15291TIP3   OH267363   0.563   1.117   5.929  0.4181  0.1385  0.0097
15291TIP3    H167364   0.634   1.095   5.869 -0.8753 -0.0616 -1.5085
15291TIP3    H267365   0.532   1.032   5.962 -1.4448 -0.1029 -2.1561
15292TIP3   OH267366   1.504   0.566  13.621  0.5246 -0.6941 -0.1071
15292TIP3    H167367   1.443   0.504  13.662  2.1459 -0.2742  3.2515
15292TIP3    H267368   1.494   0.646  13.672  2.9229 -0.2002 -0.3327
15293TIP3   OH267369   2.410   6.816  16.763  0.4457  0.1515 -0.1515
15293TIP3    H167370   2.394   6.906  16.792  1.4256  0.2877  0.0002
15293TIP3    H267371   2.463   6.825  16.684  0.3758 -0.2840 -0.2487
15294TIP3   OH267372   3.227   1.468   0.798 -0.3821  0.0671  0.0334
15294TIP3    H167373   3.272   1.410   0.859 -0.4780  0.5694  0.5848
15294TIP3    H267374   3.147   1.420   0.773  0.0186 -0.4539 -0.2833
15295TIP3   OH267375   6.816   6.444   5.210 -0.4175 -0.1322  0.8114
15295TIP3    H167376   6.721   6.451   5.199 -0.4224  0.3485  1.0900
15295TIP3    H267377   6.842   6.532   5.239  0.1664 -0.1462  0.3410
15296TIP3   OH267378   4.381   6.529  16.881 -1.0488  0.6888 -0.0863
15296TIP3    H167379   4.343   6.508  16.796 -2.5354  1.9138  0.2313
15296TIP3    H267380   4.387   6.625  16.881  2.0736  0.5869 -0.0818
15297TIP3   OH267381   4.418   0.085  11.276 -0.2604  0.7330 -0.1075
15297TIP3    H167382   4.490   0.043  11.323  0.4047 -0.5682 -2.1598
15297TIP3    H267383   4.339   0.048  11.315  0.2341  0.3217  0.5265
15298TIP3   OH267384   4.522   1.796   3.039  0.0231  0.1855 -0.1832
15298TIP3    H167385   4.517   1.715   2.988  2.8380 -0.4217  0.3752
15298TIP3    H267386   4.540   1.864   2.974 -1.3639  0.2534 -0.5310
15299TIP3   OH267387   3.785   5.806   3.461 -0.3710  0.0938 -0.3310
15299TIP3    H167388   3.699   5.787   3.422  0.7761 -2.9293 -1.7285
15299TIP3    H267389   3.821   5.876   3.408 -0.6223 -1.0048 -2.0229
15300TIP3   OH267390   5.231   0.121   0.820  0.3213 -0.1564 -0.1955
15300TIP3    H167391   5.192   0.042   0.782 -0.4114  0.2585 -0.3156
15300TIP3    H267392   5.206   0.117   0.913 -1.5874  1.0194 -0.6070
15301TIP3   OH267393   4.218   3.196  14.977 -0.3246  0.1129  0.3161
15301TIP3    H167394   4.169   3.277  14.990 -0.0919 -0.1590  3.9522
15301TIP3    H267395   4.290   3.201  15.040 -1.6416 -3.8637  2.5124
15302TIP3   OH267396   6.470   6.579   4.359  0.9779  0.5963 -0.6072
15302TIP3    H167397   6.440   6.668   4.380 -3.4265 -0.8745  0.3674
15302TIP3    H267398   6.490   6.539   4.444 -1.9956 -0.7154 -0.3945
15303TIP3   OH267399   4.641   1.925  16.022 -0.0641 -0.3650 -0.5330
15303TIP3    H167400   4.683   1.913  16.107 -1.2986 -0.6477  0.0598
15303TIP3    H267401   4.642   2.019  16.008  0.6668 -0.3545 -0.4975
15304TIP3   OH267402   3.112   2.082   3.224  0.3356 -0.3018 -0.4730
15304TIP3    H167403   3.102   2.168   3.185 -1.6289  0.3990  1.3892
15304TIP3    H267404   3.104   2.096   3.318  0.0388 -2.4908 -0.1000
15305TIP3   OH267405   0.069   6.661  15.737 -0.3072  0.5657 -0.0733
15305TIP3    H167406   0.086   6.755  15.732  0.5303  0.3768 -1.2483
15305TIP3    H267407   0.145   6.626  15.784 -1.3801  0.6390  1.7899
15306TIP3   OH267408   3.870   2.894   0.392 -0.0609 -0.1247  0.4148
15306TIP3    H167409   3.964   2.911   0.388 -0.0095 -0.3970  0.4013
15306TIP3    H267410   3.835   2.929   0.310  0.1932 -0.9811 -0.0759
15307TIP3   OH267411   4.610   5.779   0.858  0.1867 -0.0936 -0.4407
15307TIP3    H167412   4.616   5.848   0.925 -0.7990  0.5186 -0.9723
15307TIP3    H267413   4.700   5.771   0.825  0.4786  0.3463  0.2085
15308TIP3   OH267414   3.745   2.704   5.743 -0.2819  0.0828  0.0381
15308TIP3    H167415   3.749   2.741   5.831 -1.2499  1.8864 -0.6248
15308TIP3    H267416   3.652   2.690   5.726 -0.0791 -0.6319 -0.5523
15309TIP3   OH267417   6.238   5.996  12.399  0.1863 -0.3989  0.1929
15309TIP3    H167418   6.276   5.962  12.481 -2.7274 -1.1849  1.3352
15309TIP3    H267419   6.168   6.055  12.428  0.4227  0.9677 -1.7998
15310TIP3   OH267420   6.199   4.486  12.224  0.0093  0.0973 -0.6132
15310TIP3    H167421   6.168   4.408  12.177 -0.8562  0.8386 -1.3181
15310TIP3    H267422   6.288   4.465  12.249 -0.3543 -1.2976 -0.4021
15311TIP3   OH267423   1.493   2.862   3.937  0.2053 -0.4989  0.3857
15311TIP3    H167424   1.426   2.794   3.936  1.7386 -2.2467 -3.5525
15311TIP3    H267425   1.499   2.892   3.846  1.9270  2.5801  1.3486
15312TIP3   OH267426   1.147   3.031  13.192 -0.1228  0.5302  0.3243
15312TIP3    H167427   1.223   2.975  13.176  0.4786  1.5243 -0.4162
15312TIP3    H267428   1.106   2.994  13.270  2.1670  1.0364  1.8622
15313TIP3   OH267429   3.814   1.366   4.160  0.9318 -0.2262 -0.0995
15313TIP3    H167430   3.735   1.381   4.211  1.0493  1.3222 -0.3151
15313TIP3    H267431   3.804   1.422   4.083  1.2800 -1.6425 -1.2214
15314TIP3   OH267432   1.560   5.281  10.540  0.2282  0.1439 -0.5158
15314TIP3    H167433   1.543   5.360  10.488  0.1215  0.3014 -0.2441
15314TIP3    H267434   1.507   5.293  10.619  1.1091  0.3377  0.0540
15315TIP3   OH267435   5.761   3.549  12.340 -0.2049  0.0254 -0.0713
15315TIP3    H167436   5.838   3.577  12.390 -0.5941  0.8388  0.0935
15315TIP3    H267437   5.725   3.476  12.391  0.5195 -0.4510 -0.2204
15316TIP3   OH267438   1.452   1.281  14.515  0.2037 -0.3569  0.1134
15316TIP3    H167439   1.378   1.222  14.527 -0.1043  0.0458  0.2186
15316TIP3    H267440   1.529   1.225  14.521  0.0236 -0.4335  2.3525
15317TIP3   OH267441   0.484   1.992   4.782  0.0070 -0.3916  0.3068
15317TIP3    H167442   0.416   2.056   4.802  0.8475  0.5534  0.2196
15317TIP3    H267443   0.466   1.919   4.840 -1.4955 -0.4595 -0.2118
15318TIP3   OH267444   6.825   6.013  15.875  0.2603  0.1983  0.3195
15318TIP3    H167445   6.765   6.043  15.807 -0.0839 -1.6521 -0.2426
15318TIP3    H267446   6.776   6.023  15.957 -0.3102 -0.0644  0.0082
15319TIP3   OH267447   6.136   1.111  12.695 -0.9337 -0.1910  0.3418
15319TIP3    H167448   6.217   1.107  12.745 -0.6087 -3.0030 -0.2684
15319TIP3    H267449   6.161   1.152  12.612 -0.1705 -0.7630  0.2746
15320TIP3   OH267450   4.689   0.482   0.895 -0.0939  0.0458  0.1005
15320TIP3    H167451   4.600   0.446   0.901 -1.3933  2.3503 -2.6562
15320TIP3    H267452   4.733   0.426   0.831 -0.1442 -0.1173  0.2098
15321TIP3   OH267453   2.078   4.852   3.547  0.0747  0.1500 -0.2376
15321TIP3    H167454   2.120   4.877   3.465 -1.6843  0.1263 -1.1783
15321TIP3    H267455   2.151   4.846   3.610  1.4972 -0.1396 -1.8365
15322TIP3   OH267456   6.596   1.182  12.595 -0.3208 -0.3514 -0.3213
15322TIP3    H167457   6.669   1.127  12.566 -1.7163 -3.4500  1.5168
15322TIP3    H267458   6.633   1.235  12.666  0.4601 -0.9309 -0.2785
15323TIP3   OH267459   3.622   1.181   2.126  0.2591 -0.6647 -0.7601
15323TIP3    H167460   3.546   1.226   2.161  0.5745  1.1749 -2.2546
15323TIP3    H267461   3.612   1.090   2.154 -0.2879  0.3002  2.6302
15324TIP3   OH267462   2.834   2.845  16.527 -0.2614  0.1142 -0.0040
15324TIP3    H167463   2.849   2.928  16.481 -1.6687  0.2748 -0.1986
15324TIP3    H267464   2.791   2.871  16.609  1.6795 -0.2156  1.2125
15325TIP3   OH267465   0.237   5.674  16.572 -0.0578  0.4809 -0.0261
15325TIP3    H167466   0.224   5.645  16.481  1.5342 -0.1209 -0.1024
15325TIP3    H267467   0.267   5.595  16.617  2.3607  1.4830  0.2490
15326TIP3   OH267468   3.913   4.618  14.998  0.2604 -0.2211 -0.1045
15326TIP3    H167469   3.941   4.669  15.074  0.5612  0.5587 -0.7207
15326TIP3    H267470   3.994   4.601  14.950  0.1540 -1.2550  0.0695
15327TIP3   OH267471   2.095   0.962   1.966  0.3805  0.2355 -0.5212
15327TIP3    H167472   2.026   1.020   1.934 -0.5588  0.9508  2.4310
15327TIP3    H267473   2.096   0.889   1.904 -1.5770  1.2155 -1.8191
15328TIP3   OH267474   0.018   1.474   5.029 -0.4240  0.2354 -0.3139
15328TIP3    H167475   0.036   1.568   5.036  2.2295 -0.3208  1.9040
15328TIP3    H267476   0.059   1.436   5.106 -3.5650 -2.5470  0.1877
15329TIP3   OH267477   3.832   3.770  11.745  0.3160  0.4756 -0.5321
15329TIP3    H167478   3.756   3.723  11.711  0.5438  0.1185 -0.5469
15329TIP3    H267479   3.848   3.839  11.680 -0.8319  1.4127  0.1653
15330TIP3   OH267480   5.520   1.538  15.761 -0.1833 -0.0320 -0.0772
15330TIP3    H167481   5.521   1.580  15.847  2.3929  2.1474 -1.0418
15330TIP3    H267482   5.511   1.609  15.699  2.1460 -1.0406 -1.7214
15331TIP3   OH267483   5.098   6.448  12.109  0.0980 -0.1671  0.0574
15331TIP3    H167484   5.066   6.369  12.066 -0.5209 -0.4414  1.0137
15331TIP3    H267485   5.190   6.430  12.128  0.2029 -0.2932 -0.5585
15332TIP3   OH267486   6.839   3.713   2.271 -0.5989 -0.3095  0.5013
15332TIP3    H167487   6.914   3.674   2.227  0.7036  2.0587  0.4198
15332TIP3    H267488   6.829   3.662   2.352  0.1902 -1.5308 -0.1462
15333TIP3   OH267489   4.946   4.356  10.836 -0.3782  0.2783 -0.1888
15333TIP3    H167490   5.029   4.361  10.788  0.0666 -0.8062  0.4335
15333TIP3    H267491   4.949   4.271  10.880 -0.6405  1.3578  2.0185
15334TIP3   OH267492   3.840   0.138  12.455  0.2588 -0.3396 -0.4473
15334TIP3    H167493   3.766   0.088  12.490 -0.7007  0.0485 -1.8458
15334TIP3    H267494   3.890   0.074  12.405  0.0458 -0.2967 -0.7184
15335TIP3   OH267495   2.836   5.477   5.357 -0.0331  0.1600  0.2829
15335TIP3    H167496   2.916   5.437   5.322 -0.8918 -2.0080  0.6003
15335TIP3    H267497   2.867   5.540   5.422  1.4338 -0.1702 -0.0524
15336TIP3   OH267498   5.072   0.253  13.021 -0.2206 -0.4408 -0.9192
15336TIP3    H167499   5.000   0.313  13.003 -0.0753 -0.1013 -0.3912
15336TIP3    H267500   5.042   0.201  13.096  0.8115  0.9966  0.5646
15337TIP3   OH267501   4.083   2.833   1.283  0.3004  0.5077 -0.0019
15337TIP3    H167502   4.061   2.926   1.280 -0.7172  0.2701 -0.5940
15337TIP3    H267503   4.015   2.795   1.340  0.5496  0.0934  0.0203
15338TIP3   OH267504   1.911   6.480  11.278  0.7214  0.1269 -0.6217
15338TIP3    H167505   1.992   6.508  11.234  0.5520  0.6780 -0.5977
15338TIP3    H267506   1.863   6.431  11.211  1.2134 -0.4825 -0.5382
15339TIP3   OH267507   1.939   0.488  17.124  0.4164  0.1420  0.6407
15339TIP3    H167508   1.872   0.553  17.101 -0.0634 -0.1633  1.1414
15339TIP3    H267509   1.957   0.504  17.216 -0.5889 -1.1819  1.1073
15340TIP3   OH267510   2.538   0.911  12.030  0.3211 -0.0856  0.1984
15340TIP3    H167511   2.602   0.841  12.018  0.5451  0.2227 -0.4814
15340TIP3    H267512   2.585   0.991  12.005 -0.5021  0.0722 -0.9583
15341TIP3   OH267513   0.462   1.854   4.543 -0.2413 -0.1016  0.1369
15341TIP3    H167514   0.500   1.901   4.617 -0.4572 -1.6813  1.2918
15341TIP3    H267515   0.516   1.776   4.533 -0.2877  0.0232 -1.3180
15342TIP3   OH267516   1.050   2.267  15.570  0.1256  0.5089  0.3597
15342TIP3    H167517   1.115   2.202  15.540 -0.7177 -0.1344 -0.1281
15342TIP3    H267518   0.968   2.237  15.532 -0.6196  0.8329  1.6738
15343TIP3   OH267519   2.864   5.422   4.388 -0.3960  0.0462 -0.1327
15343TIP3    H167520   2.869   5.505   4.436 -0.6558  0.6037 -1.0403
15343TIP3    H267521   2.926   5.365   4.432  0.8823  1.1877 -0.3661
15344TIP3   OH267522   5.607   4.918  16.322  0.0536  0.0094 -0.0361
15344TIP3    H167523   5.694   4.885  16.347  1.4373  1.8637 -1.9839
15344TIP3    H267524   5.623   5.008  16.295 -2.7295  0.7756  0.6284
15345TIP3   OH267525   6.336   2.986  14.070 -0.1200 -0.2178 -0.7651
15345TIP3    H167526   6.260   2.939  14.036 -0.1044 -1.4370  0.7843
15345TIP3    H267527   6.409   2.925  14.062  0.5435  0.6239 -1.4162
15346TIP3   OH267528   5.826   2.792  11.996 -0.4506 -0.4480 -0.0206
15346TIP3    H167529   5.765   2.859  12.027 -1.3600 -1.6118  0.7602
15346TIP3    H267530   5.770   2.723  11.962  0.3811 -2.0583  1.7559
15347TIP3   OH267531   4.108   6.032   5.876 -0.5000 -0.2118 -0.4357
15347TIP3    H167532   4.143   6.025   5.965 -0.1667 -0.8736 -0.6067
15347TIP3    H267533   4.184   6.050   5.821 -0.4809 -1.1358 -0.7444
15348TIP3   OH267534   2.075   6.592  17.170  0.1344 -0.0671  0.3420
15348TIP3    H167535   2.109   6.557  17.088  1.2874  0.9073  0.3778
15348TIP3    H267536   2.152   6.617  17.220 -0.5929  1.2681  0.8525
15349TIP3   OH267537   3.465   5.662   3.535 -0.3977 -0.2189 -0.8203
15349TIP3    H167538   3.492   5.692   3.448  0.8896 -0.3224 -0.4773
15349TIP3    H267539   3.489   5.569   3.537  1.1347  0.1559  0.2030
15350TIP3   OH267540   2.138   1.844  16.778 -0.2515  0.5367  0.3186
15350TIP3    H167541   2.226   1.862  16.811 -0.3569 -0.6868  1.3200
15350TIP3    H267542   2.086   1.919  16.806 -0.0703  0.0950  1.9041
15351TIP3   OH267543   3.805   2.814  13.963 -0.0964 -0.2903  0.7230
15351TIP3    H167544   3.854   2.831  14.044  0.3047  1.8519  0.0985
15351TIP3    H267545   3.746   2.743  13.985  1.2892 -1.0084  2.3513
15352TIP3   OH267546   4.474   2.322  15.008 -0.2604  0.3306 -0.2146
15352TIP3    H167547   4.490   2.260  15.079 -1.2461  0.2147 -0.0821
15352TIP3    H267548   4.504   2.406  15.043 -2.4784  0.6454  1.1112
15353TIP3   OH267549   1.119   1.100   1.583  0.1932  0.1388 -0.5070
15353TIP3    H167550   1.087   1.157   1.514 -0.3471 -0.2864 -0.6154
15353TIP3    H267551   1.106   1.011   1.549 -0.5573 -0.0947  0.3384
15354TIP3   OH267552   3.682   4.036   0.770 -0.2637 -0.2873 -0.3688
15354TIP3    H167553   3.713   4.025   0.680 -1.1316  2.0703 -1.0352
15354TIP3    H267554   3.593   4.072   0.761 -0.8153 -1.0527  1.4572
15355TIP3   OH267555   3.992   0.234   0.878  0.0391 -0.3005  0.0494
15355TIP3    H167556   4.023   0.311   0.926 -0.3947  0.4874 -0.9051
15355TIP3    H267557   3.924   0.267   0.820 -0.1579 -1.4128 -0.3837
15356TIP3   OH267558   1.127   0.772  11.521 -0.7073  0.3421  0.2629
15356TIP3    H167559   1.041   0.755  11.559 -0.8559 -3.2200 -1.2922
15356TIP3    H267560   1.168   0.686  11.514  0.7577  1.1254 -4.1270
15357TIP3   OH267561   6.039   3.245  14.084  0.2607  0.2480 -0.0102
15357TIP3    H167562   6.034   3.153  14.112 -1.0144  0.3575  0.1941
15357TIP3    H267563   5.956   3.261  14.039  1.1436  0.8601 -1.5010
15358TIP3   OH267564   6.759   6.416  11.323 -0.0336  0.2943  0.2183
15358TIP3    H167565   6.684   6.466  11.356  0.1903  2.3794 -2.0968
15358TIP3    H267566   6.720   6.348  11.269 -0.3172  1.2222 -0.7822
15359TIP3   OH267567   2.561   6.591  14.439 -0.6013 -0.2093  0.4085
15359TIP3    H167568   2.654   6.574  14.424 -0.1774  2.1848 -0.1466
15359TIP3    H267569   2.557   6.631  14.526 -0.3311  4.1484 -1.3576
15360TIP3   OH267570   1.590   6.631   5.156  0.4102 -0.2477  0.5655
15360TIP3    H167571   1.500   6.662   5.157 -0.1087 -1.3934 -1.8719
15360TIP3    H267572   1.587   6.546   5.200  0.2472 -0.3521  0.3558
15361TIP3   OH267573   4.076   4.659   2.455 -0.0364  0.9232  0.4218
15361TIP3    H167574   4.076   4.734   2.395 -1.1131  0.7161  0.1470
15361TIP3    H267575   4.168   4.646   2.477  0.2499  1.7695 -0.2277
15362TIP3   OH267576   0.090   0.049  16.313 -0.1118 -0.4048  0.0248
15362TIP3    H167577   0.136  -0.027  16.347  0.3740 -0.8927 -1.6506
15362TIP3    H267578   0.128   0.124  16.360 -0.1869 -1.1063  1.2515
15363TIP3   OH267579   6.377   4.942  15.760  0.0814  0.1340 -0.0516
15363TIP3    H167580   6.330   4.864  15.730  0.5340 -1.9199  3.8448
15363TIP3    H267581   6.310   5.010  15.765 -0.5916 -0.2799 -2.3996
15364TIP3   OH267582   2.886   2.313   1.419  0.3500 -0.0071  0.1791
15364TIP3    H167583   2.972   2.288   1.386  0.2558  1.3579 -1.2412
15364TIP3    H267584   2.824   2.277   1.356  0.0759  1.3445 -0.3773
15365TIP3   OH267585   4.411   1.306  12.098  0.2630 -0.5353 -0.0189
15365TIP3    H167586   4.412   1.240  12.168 -0.0323  2.0095  2.5926
15365TIP3    H267587   4.502   1.333  12.089  0.4961 -1.7219 -1.6075
15366TIP3   OH267588   6.789   5.378  17.061  0.2071 -0.0512  0.1884
15366TIP3    H167589   6.879   5.409  17.053 -0.1271  1.0473  0.4628
15366TIP3    H267590   6.769   5.343  16.974  1.0314 -0.7058  0.2504
15367TIP3   OH267591   1.288   4.899  11.695  0.1507  0.7482  0.3382
15367TIP3    H167592   1.377   4.867  11.677 -0.1321  1.5203 -3.0531
15367TIP3    H267593   1.240   4.883  11.614 -2.9269  0.2496  2.0919
15368TIP3   OH267594   4.719   3.572  13.843  0.1640 -0.3202  0.2151
15368TIP3    H167595   4.681   3.529  13.920 -0.7763 -0.4278 -0.2969
15368TIP3    H267596   4.769   3.502  13.800  1.2213 -0.1036  1.0503
15369TIP3   OH267597   2.284   0.265   3.227 -0.3176 -0.4920  0.2262
15369TIP3    H167598   2.275   0.180   3.183  1.3189 -0.3891 -0.3707
15369TIP3    H267599   2.272   0.329   3.157  0.7499 -0.2942  0.2074
15370TIP3   OH267600   1.372   6.090  15.670  0.1218  0.5238 -0.1920
15370TIP3    H167601   1.315   6.156  15.710 -0.0481 -0.1691  0.7275
15370TIP3    H267602   1.400   6.130  15.587  1.3795  2.4962  1.0976
15371TIP3   OH267603   6.165   0.434  13.379  0.3788  0.1504 -0.1340
15371TIP3    H167604   6.141   0.373  13.449  1.9540 -0.8971 -0.4476
15371TIP3    H267605   6.260   0.444  13.389  0.9009 -1.1058 -2.8941
15372TIP3   OH267606   2.375   3.497  14.021  0.2109 -0.4541  0.1213
15372TIP3    H167607   2.452   3.539  14.059  0.5349  0.6616 -1.6605
15372TIP3    H267608   2.411   3.427  13.967 -0.1541 -1.0157  0.5911
15373TIP3   OH267609   1.596   0.466  11.664  0.2337  0.5736  0.1388
15373TIP3    H167610   1.650   0.415  11.603 -0.0528  1.1856 -0.6409
15373TIP3    H267611   1.594   0.413  11.743  2.1051  0.5798  0.2506
15374TIP3   OH267612   1.795   2.284   0.700  0.3361 -0.2315 -0.2729
15374TIP3    H167613   1.719   2.341   0.692  0.8798  0.4618 -0.5704
15374TIP3    H267614   1.761   2.206   0.744 -0.6406 -0.1292 -0.8050
15375TIP3   OH267615   1.211   4.969  11.183  0.5978 -0.2182 -0.8516
15375TIP3    H167616   1.177   4.935  11.265  0.3877  0.4221 -0.6696
15375TIP3    H267617   1.156   5.044  11.163 -0.0154 -0.9799 -2.1148
15376TIP3   OH267618   6.274   0.013   2.821 -0.3681  0.2130 -0.3614
15376TIP3    H167619   6.225   0.053   2.749  1.0974  0.3791 -1.2859
15376TIP3    H267620   6.314  -0.065   2.783 -0.9095 -0.6307  0.7183
15377TIP3   OH267621   0.012   3.567   2.515  0.4109 -0.7629  1.0949
15377TIP3    H167622   0.009   3.555   2.610 -0.0873 -0.5196  1.1148
15377TIP3    H267623   0.068   3.496   2.483  0.8431 -0.6504  1.6003
15378TIP3   OH267624   3.970   4.930   2.754 -0.3071 -0.0955  0.0305
15378TIP3    H167625   3.907   4.915   2.683  0.5497 -0.3221 -0.7096
15378TIP3    H267626   3.973   4.848   2.801 -0.8478  0.0398  0.3051
15379TIP3   OH267627   0.885   4.992   4.867  0.0920 -0.4082 -0.1082
15379TIP3    H167628   0.883   4.920   4.930  2.0722 -0.0519  0.4171
15379TIP3    H267629   0.933   5.062   4.912  1.2708 -0.0302 -1.8585
15380TIP3   OH267630   6.612   2.023  14.779 -0.4046 -0.4859 -0.0327
15380TIP3    H167631   6.547   2.042  14.846  1.2544  0.4311  1.3891
15380TIP3    H267632   6.644   2.109  14.750 -1.3516 -0.8282 -2.3414
15381TIP3   OH267633   0.466   6.831  15.412 -0.0312 -0.0762 -0.1245
15381TIP3    H167634   0.387   6.778  15.398  1.3440 -1.6516 -2.6946
15381TIP3    H267635   0.469   6.889  15.336  1.0084  0.3477  0.2297
15382TIP3   OH267636   3.618   5.186   3.132  0.4578 -0.0753 -0.6424
15382TIP3    H167637   3.712   5.206   3.123  1.0900 -2.1815  0.6442
15382TIP3    H267638   3.615   5.094   3.156 -2.0859 -0.6586 -2.7104
15383TIP3   OH267639   5.805   3.960  17.124 -0.0392 -0.2759  0.3974
15383TIP3    H167640   5.744   3.887  17.140 -2.5953  1.8106  0.7425
15383TIP3    H267641   5.803   4.011  17.205  1.3334  0.4667 -0.0096
15384TIP3   OH267642   2.317   4.113   0.489 -0.1491  0.1013  0.2182
15384TIP3    H167643   2.253   4.154   0.432 -1.0631 -2.0121 -0.3712
15384TIP3    H267644   2.272   4.101   0.573  0.1587  0.4123  0.4329
15385TIP3   OH267645   2.496   4.974  13.082  0.3893 -0.2114 -0.3348
15385TIP3    H167646   2.528   4.951  12.994  0.6888 -0.5029 -0.1521
15385TIP3    H267647   2.401   4.960  13.077 -0.0104  2.2150 -1.3780
15386TIP3   OH267648   4.431   3.287   5.951  0.4389 -0.4432  0.6836
15386TIP3    H167649   4.360   3.234   5.987 -1.1539  1.6739  0.8424
15386TIP3    H267650   4.499   3.286   6.018 -1.0784  0.6521  2.3319
15387TIP3   OH267651   4.753   6.502  16.865 -0.0532 -0.2338  0.1050
15387TIP3    H167652   4.707   6.442  16.807  0.6752 -1.0978  0.4016
15387TIP3    H267653   4.686   6.534  16.925 -0.7967  0.5869 -1.1244
15388TIP3   OH267654   0.907   2.265  11.089 -0.2731 -0.1272  0.1125
15388TIP3    H167655   0.936   2.220  11.009  0.4530  0.9610 -0.2491
15388TIP3    H267656   0.902   2.196  11.155 -0.1277 -0.9096 -0.6811
15389TIP3   OH267657   0.383   1.996   6.639 -0.3772  0.7641 -0.0130
15389TIP3    H167658   0.433   1.990   6.720 -0.9055  0.6029  0.3062
15389TIP3    H267659   0.410   1.919   6.588  0.5302  1.2783 -0.3298
15390TIP3   OH267660   1.106   0.785   3.174  1.0476  0.1950 -0.0553
15390TIP3    H167661   1.088   0.697   3.207  1.1468 -0.0870 -0.7393
15390TIP3    H267662   1.199   0.783   3.152  1.2492  0.7307  0.6851
15391TIP3   OH267663   5.125   0.606   4.711  0.2373 -0.4851  0.5511
15391TIP3    H167664   5.106   0.699   4.703  0.9882 -0.3768 -0.0740
15391TIP3    H267665   5.134   0.575   4.621  0.3464 -1.0886  0.7604
15392TIP3   OH267666   4.169   4.822  13.795 -0.0646 -0.0199 -0.4485
15392TIP3    H167667   4.188   4.853  13.706  0.3614 -0.6589 -0.5901
15392TIP3    H267668   4.075   4.809  13.796 -0.2570  1.2740 -0.3783
15393TIP3   OH267669   5.914   1.893   5.646 -0.0088  0.5373 -0.1475
15393TIP3    H167670   5.848   1.827   5.668 -0.4792  0.6658 -1.1070
15393TIP3    H267671   5.993   1.866   5.693 -0.4644 -0.1883  0.2048
15394TIP3   OH267672   4.105   6.655   1.047 -0.1066  0.0340  0.1741
15394TIP3    H167673   4.061   6.696   1.122 -0.1659 -0.9106  0.6743
15394TIP3    H267674   4.161   6.588   1.086  2.1265  1.4651 -0.4136
15395TIP3   OH267675   1.764   3.175   0.425 -0.4649  0.0844  0.4780
15395TIP3    H167676   1.791   3.194   0.336 -0.5211  0.3921  0.5254
15395TIP3    H267677   1.758   3.260   0.468 -0.6230 -0.0450  0.7219
15396TIP3   OH267678   4.328   5.649  13.578  0.2942  0.1709  0.0392
15396TIP3    H167679   4.372   5.732  13.556 -0.0986  0.4926  0.4594
15396TIP3    H267680   4.362   5.587  13.514  0.4504  0.7006 -0.4015
15397TIP3   OH267681   6.675   5.792  11.586 -0.9664 -0.2237 -0.3258
15397TIP3    H167682   6.726   5.870  11.609  0.1645 -0.8673 -0.6110
15397TIP3    H267683   6.591   5.805  11.630 -0.5026  0.7663  0.3088
15398TIP3   OH267684   3.746   5.595   0.394  0.2912 -0.1095 -0.6602
15398TIP3    H167685   3.709   5.661   0.453  1.0934 -0.5616  0.3634
15398TIP3    H267686   3.686   5.595   0.319 -0.2215  1.1446 -0.2871
15399TIP3   OH267687   6.246   1.384  13.052 -0.1119 -0.2615 -0.0099
15399TIP3    H167688   6.212   1.296  13.069  1.4838 -0.7001  1.2419
15399TIP3    H267689   6.317   1.395  13.116  0.8260  1.2989 -1.2228
15400TIP3   OH267690   1.103   5.027   5.407 -0.1611 -0.4411  0.1138
15400TIP3    H167691   1.037   4.985   5.352 -0.9063  0.4198  0.3270
15400TIP3    H267692   1.176   5.044   5.347  0.6128 -2.9435  0.2476
15401TIP3   OH267693   5.094   3.372  15.110  0.5172  0.5978 -0.1368
15401TIP3    H167694   5.095   3.418  15.194 -0.8378  0.3531  0.0373
15401TIP3    H267695   5.051   3.434  15.050 -0.7654 -0.1708 -0.0450
15402TIP3   OH267696   0.362   1.056  12.943 -0.1697 -0.7036  0.5659
15402TIP3    H167697   0.406   1.093  13.020 -1.7010  0.1479  1.0788
15402TIP3    H267698   0.431   1.050  12.877  0.7042  0.7201  1.2912
15403TIP3   OH267699   3.146   4.775   4.338  0.2190 -0.2702  0.1517
15403TIP3    H167700   3.133   4.783   4.243  2.0250 -0.7099 -0.1653
15403TIP3    H267701   3.090   4.702   4.364  0.8144 -1.1007 -0.8413
15404TIP3   OH267702   6.443   2.613   5.702 -0.1268 -0.3548  0.4641
15404TIP3    H167703   6.456   2.601   5.608 -0.1960  0.0053  0.4065
15404TIP3    H267704   6.349   2.631   5.710 -0.4528 -2.0163  0.7747
15405TIP3   OH267705   5.599   3.330   2.068 -0.0261 -0.3931  0.1980
15405TIP3    H167706   5.533   3.315   2.000  1.3360  2.0165 -1.8531
15405TIP3    H267707   5.647   3.248   2.074 -0.4545 -0.8112 -1.4964
15406TIP3   OH267708   1.394   5.223   0.108  0.0635 -0.0247 -0.2021
15406TIP3    H167709   1.358   5.249   0.193  0.6931  0.3428 -0.0393
15406TIP3    H267710   1.343   5.146   0.083 -0.5302  0.2189  0.2262
15407TIP3   OH267711   3.104   2.727   5.383  0.0716  0.2182  0.0414
15407TIP3    H167712   3.087   2.806   5.434  1.9131  2.1454 -2.1038
15407TIP3    H267713   3.046   2.735   5.307 -0.8206 -1.3287  0.5159
15408TIP3   OH267714   0.211   5.636   3.525  0.3586  0.0649  0.0249
15408TIP3    H167715   0.207   5.587   3.607 -2.1079 -0.8757 -0.5956
15408TIP3    H267716   0.303   5.628   3.498  0.7786 -1.3135  1.6575
15409TIP3   OH267717   1.321   2.547   5.413  0.1218 -0.1221  0.2944
15409TIP3    H167718   1.235   2.558   5.373  0.0739  0.8341  0.6338
15409TIP3    H267719   1.306   2.490   5.488 -0.1192 -0.3901  0.0463
15410TIP3   OH267720   5.981   6.749  11.935 -0.3644 -0.2158  0.1021
15410TIP3    H167721   5.972   6.659  11.968 -1.0217 -0.1921  0.0160
15410TIP3    H267722   6.021   6.739  11.849  2.0399 -0.2314  1.1401
15411TIP3   OH267723   2.367   1.460   2.745 -0.4819  0.0519 -0.2267
15411TIP3    H167724   2.378   1.380   2.796 -0.0374 -0.4834 -1.1487
15411TIP3    H267725   2.446   1.510   2.762 -0.4193 -0.0392 -0.2517
15412TIP3   OH267726   6.398   3.597   5.107  0.0296 -0.1724  0.3010
15412TIP3    H167727   6.341   3.526   5.137 -1.3407  0.3853 -0.9128
15412TIP3    H267728   6.390   3.596   5.012 -0.8923  2.2917  0.3017
15413TIP3   OH267729   1.805   0.108  16.451 -0.2615  0.2579 -0.4526
15413TIP3    H167730   1.895   0.111  16.419 -0.3457  0.6487 -0.6570
15413TIP3    H267731   1.813   0.070  16.539  0.0692  0.0344 -0.5744
15414TIP3   OH267732   0.327   4.127  11.434 -0.1112  0.4412  0.2380
15414TIP3    H167733   0.313   4.221  11.426 -0.0824  0.3164 -1.9341
15414TIP3    H267734   0.268   4.099  11.505 -1.1409  1.8707 -0.0210
15415TIP3   OH267735   3.520   0.110  17.023 -1.1985  0.1682 -0.3653
15415TIP3    H167736   3.447   0.110  17.085 -1.1998 -0.1680 -0.3657
15415TIP3    H267737   3.512   0.027  16.976 -0.0432 -0.4915  0.5554
15416TIP3   OH267738   4.592   1.470   4.134 -0.3333 -0.2035 -0.2057
15416TIP3    H167739   4.618   1.510   4.217  0.9357 -0.2558 -0.5646
15416TIP3    H267740   4.606   1.376   4.148 -0.0640 -0.2065 -0.4971
15417TIP3   OH267741   5.255   6.008   4.110  0.1606  0.7437  0.1608
15417TIP3    H167742   5.220   6.054   4.035 -0.7110 -1.2647 -0.7307
15417TIP3    H267743   5.195   6.029   4.182 -0.5938  0.4679 -0.3864
15418TIP3   OH267744   4.632   0.262   3.681  0.0316  0.0677 -0.5237
15418TIP3    H167745   4.652   0.308   3.762 -0.4293 -0.2136 -0.2446
15418TIP3    H267746   4.646   0.328   3.612 -1.8341  1.0575 -0.0403
15419TIP3   OH267747   0.623   2.056  12.832  0.1958 -0.3585  0.3149
15419TIP3    H167748   0.569   2.120  12.878  0.5829  0.2229 -0.0189
15419TIP3    H267749   0.694   2.108  12.794  0.6470 -1.0225  0.2325
15420TIP3   OH267750   0.351   1.268   1.962  0.0463 -0.2652 -0.5037
15420TIP3    H167751   0.315   1.317   1.888  1.1052  1.2292 -0.0760
15420TIP3    H267752   0.321   1.317   2.039  0.3082 -0.8700 -0.0179
15421TIP3   OH267753   4.005   5.623   4.848 -0.1502 -0.6073  0.2008
15421TIP3    H167754   3.969   5.689   4.907 -1.4134 -1.4289  0.3870
15421TIP3    H267755   4.081   5.665   4.809  0.0074  0.3827  1.5015
15422TIP3   OH267756   2.577   6.669  14.691 -0.3362  0.1571 -0.0764
15422TIP3    H167757   2.624   6.598  14.736 -1.3498 -0.0089  0.7571
15422TIP3    H267758   2.599   6.748  14.741 -0.4228  0.1825 -0.0783
15423TIP3   OH267759   6.146   6.740   4.280 -0.2702  0.5799  0.9679
15423TIP3    H167760   6.213   6.699   4.225  0.4402  0.9440  1.5458
15423TIP3    H267761   6.158   6.834   4.266  0.8011  0.7529  2.7017
15424TIP3   OH267762   4.341   0.946   1.068  0.7276  0.4617  0.4789
15424TIP3    H167763   4.261   0.934   1.120  1.3047  2.3509  1.9376
15424TIP3    H267764   4.398   0.874   1.095 -0.3155 -0.6962 -0.3134
15425TIP3   OH267765   6.582   5.882  14.627 -0.1810 -0.2806  0.4660
15425TIP3    H167766   6.587   5.900  14.533  0.2222 -1.0616  0.3230
15425TIP3    H267767   6.612   5.791  14.635  1.9494  0.4701  1.6038
15426TIP3   OH267768   1.057   1.786  15.938 -0.4121 -0.5968 -0.3758
15426TIP3    H167769   1.103   1.794  16.021  1.1726 -1.7038 -1.0980
15426TIP3    H267770   1.072   1.696  15.910 -3.8937 -1.3423 -0.2185
15427TIP3   OH267771   2.067   4.183   1.685 -0.3504  0.5415 -0.0371
15427TIP3    H167772   2.070   4.159   1.777 -0.1576 -0.9183 -0.3968
15427TIP3    H267773   2.099   4.105   1.639 -1.9816  0.6422 -1.4285
15428TIP3   OH267774   0.296   5.285   6.618  0.0104 -0.4444  0.5089
15428TIP3    H167775   0.242   5.227   6.563  0.3558 -2.0608  1.7938
15428TIP3    H267776   0.385   5.274   6.584 -0.3420  2.0598 -1.4737
15429TIP3   OH267777   1.377   3.142   5.512 -0.6701 -0.0764  0.2987
15429TIP3    H167778   1.467   3.113   5.525 -0.4459  0.7824  0.6975
15429TIP3    H267779   1.385   3.225   5.465 -1.3439 -1.2923 -2.1428
15430TIP3   OH267780   4.948   3.394   3.754 -0.0541 -0.1245  0.6169
15430TIP3    H167781   4.912   3.463   3.809  0.3512  0.7963 -0.2388
15430TIP3    H267782   5.040   3.388   3.781 -0.2551 -0.8169  1.1633
15431TIP3   OH267783   6.291   1.209   2.730  0.0772  0.4115 -0.3551
15431TIP3    H167784   6.242   1.290   2.740 -0.3997  0.0335  0.5492
15431TIP3    H267785   6.367   1.219   2.788  0.0294  0.2347 -0.2593
15432TIP3   OH267786   1.159   3.390  10.848  0.4186 -0.7495  0.2402
15432TIP3    H167787   1.138   3.458  10.784 -1.2826 -0.9729  0.5149
15432TIP3    H267788   1.121   3.310  10.811  4.1717 -2.1156 -1.1262
15433TIP3   OH267789   2.593   0.961  15.317  0.0483  0.2752  0.0530
15433TIP3    H167790   2.685   0.951  15.291 -0.0475 -0.4906  0.0017
15433TIP3    H267791   2.544   0.910  15.253 -0.3286 -0.2843  0.7785
15434TIP3   OH267792   3.658   2.707   0.447  0.0985  0.0104  0.2932
15434TIP3    H167793   3.704   2.632   0.486  1.5988  1.0335  0.5857
15434TIP3    H267794   3.701   2.784   0.485 -0.8420  1.0292 -0.6311
15435TIP3   OH267795   4.799   6.015  14.003  0.4134  0.2066 -0.3260
15435TIP3    H167796   4.850   6.091  14.033  1.0964 -0.0162 -0.8768
15435TIP3    H267797   4.866   5.954  13.970 -0.2397  0.0976 -1.4999
15436TIP3   OH267798   5.573   1.751  12.187 -0.1977 -0.4651  0.1254
15436TIP3    H167799   5.623   1.823  12.149 -1.2547  0.9721  1.3406
15436TIP3    H267800   5.546   1.698  12.112 -1.0969  1.5301 -1.0324
15437TIP3   OH267801   6.545   2.653  13.852 -0.2604 -0.9553 -0.4556
15437TIP3    H167802   6.476   2.636  13.788 -1.2972  2.0551 -0.2804
15437TIP3    H267803   6.623   2.668  13.799 -1.0457  1.2185 -1.0794
15438TIP3   OH267804   5.171   6.440   3.274  0.4979 -0.0596 -0.1449
15438TIP3    H167805   5.101   6.410   3.331  1.2387 -1.0791  0.2644
15438TIP3    H267806   5.164   6.385   3.197 -0.0402  0.8222 -0.7486
15439TIP3   OH267807   6.456   0.891  16.264  0.1061 -0.9388  0.2681
15439TIP3    H167808   6.369   0.915  16.233 -0.1485 -1.6865  0.4003
15439TIP3    H267809   6.441   0.823  16.329  0.7471 -0.5703  0.8163
15440TIP3   OH267810   6.510   6.617  14.646 -0.5391  0.0345 -0.0543
15440TIP3    H167811   6.533   6.562  14.571  1.8681  0.3196  0.4067
15440TIP3    H267812   6.467   6.556  14.707 -0.8590 -0.5980 -0.8874
15441TIP3   OH267813   3.736   0.776   1.372  0.6674 -0.3654 -0.0560
15441TIP3    H167814   3.741   0.869   1.396 -0.6388 -0.5237  0.9228
15441TIP3    H267815   3.792   0.732   1.436 -0.1931 -0.4279  0.6813
15442TIP3   OH267816   2.220   6.298   2.954  0.6158 -0.2477  0.1564
15442TIP3    H167817   2.259   6.242   2.887  1.9399  1.2714 -0.4130
15442TIP3    H267818   2.280   6.291   3.029  0.7898  0.3542  0.0839
15443TIP3   OH267819   6.407   5.201  15.485  0.5782  0.0963  0.6605
15443TIP3    H167820   6.331   5.162  15.442 -0.1413 -0.0894  2.0250
15443TIP3    H267821   6.387   5.295  15.488  0.6917  0.1264  0.4622
15444TIP3   OH267822   5.692   0.920  11.480  1.1897 -0.3695  0.2050
15444TIP3    H167823   5.702   0.874  11.397  0.8535 -0.0233 -0.0311
15444TIP3    H267824   5.780   0.924  11.516  1.4555  0.1080 -0.4795
15445TIP3   OH267825   5.348   2.325  13.214  0.3486  0.3155 -0.1603
15445TIP3    H167826   5.396   2.276  13.280  1.1232  1.0445 -0.1711
15445TIP3    H267827   5.363   2.417  13.236 -1.7464  0.5922  0.3539
15446TIP3   OH267828   2.855   1.169  14.987 -0.6691  0.2538  0.4966
15446TIP3    H167829   2.796   1.094  14.980 -0.6198  0.2027  0.6249
15446TIP3    H267830   2.797   1.243  15.004 -0.7281  0.2644  0.2503
15447TIP3   OH267831   4.398   1.043   4.024  0.1685  0.5062  0.0540
15447TIP3    H167832   4.325   1.004   3.977  0.2249  0.5001 -0.0283
15447TIP3    H267833   4.362   1.064   4.111  0.3193 -0.3400  0.3340
15448TIP3   OH267834   1.123   0.643  16.376  0.1269  0.3274  0.3115
15448TIP3    H167835   1.191   0.709  16.388 -0.7561  0.9822  2.1209
15448TIP3    H267836   1.119   0.596  16.460 -1.1767 -0.1402  0.0189
15449TIP3   OH267837   2.497   1.023   1.937  0.7606 -0.7003  0.1899
15449TIP3    H167838   2.474   0.932   1.959 -1.2230 -0.2822  0.0924
15449TIP3    H267839   2.545   1.055   2.013 -1.9159 -0.7040  2.0513
15450TIP3   OH267840   6.204   0.898   3.483  0.0629  0.0211  0.0462
15450TIP3    H167841   6.122   0.850   3.475 -0.1103  0.1404  0.9353
15450TIP3    H267842   6.189   0.980   3.437 -0.0619 -0.2605 -0.4190
15451TIP3   OH267843   1.468   6.461  16.768 -0.2695 -0.5119 -0.2316
15451TIP3    H167844   1.527   6.525  16.809 -1.3108  0.2791  0.0780
15451TIP3    H267845   1.512   6.439  16.685 -0.3273  1.3741 -0.8231
15452TIP3   OH267846   5.623   0.661   5.012 -0.1415 -0.1044 -0.0644
15452TIP3    H167847   5.639   0.617   5.096  0.6910  0.5502  0.1229
15452TIP3    H267848   5.634   0.754   5.030  2.6943 -0.0771 -1.4484
15453TIP3   OH267849   0.426   0.233  16.630 -0.5164  0.3554 -0.2705
15453TIP3    H167850   0.410   0.138  16.634 -0.8107  0.4255  0.3282
15453TIP3    H267851   0.516   0.243  16.659 -1.4290  0.5080  2.8229
15454TIP3   OH267852   5.062   1.514  11.246 -0.9368 -0.2304  0.2991
15454TIP3    H167853   5.125   1.550  11.183 -0.0356 -1.1116  0.6709
15454TIP3    H267854   5.012   1.450  11.195  0.6510 -1.8966  0.7113
15455TIP3   OH267855   2.477   0.784  15.766  0.5824  0.2643  0.4632
15455TIP3    H167856   2.458   0.752  15.855  1.4626 -0.1711  0.5094
15455TIP3    H267857   2.450   0.876  15.767  0.5548  0.2527  1.1776
15456TIP3   OH267858   4.185   4.998  11.482 -1.1159 -0.6227  0.1613
15456TIP3    H167859   4.153   5.018  11.393  2.4821 -0.8776 -1.3461
15456TIP3    H267860   4.226   4.912  11.474  1.3789  0.3495  1.3680
15457TIP3   OH267861   2.319   0.072  11.601 -0.3043  0.1855 -0.1744
15457TIP3    H167862   2.289  -0.000  11.546 -2.6390  0.5135  0.5550
15457TIP3    H267863   2.392   0.035  11.652 -1.8342 -1.9027  0.6435
15458TIP3   OH267864   3.080   2.344  16.528  0.6515 -0.3515 -0.2164
15458TIP3    H167865   3.096   2.336  16.434 -0.9931  1.0834 -0.6715
15458TIP3    H267866   3.137   2.416  16.556  0.2065  0.0843 -0.4050
15459TIP3   OH267867   1.663   5.110   4.240  0.1189  0.1637 -0.1441
15459TIP3    H167868   1.583   5.072   4.278  0.3271  0.3176  0.4553
15459TIP3    H267869   1.668   5.198   4.277  0.8098 -0.0054  0.1891
15460TIP3   OH267870   2.473   4.465   1.549  0.3094 -0.6244  0.2495
15460TIP3    H167871   2.535   4.411   1.499 -2.2032 -1.3258 -2.4072
15460TIP3    H267872   2.469   4.424   1.635  3.4825 -0.5078  0.5442
15461TIP3   OH267873   1.800   6.540  15.605 -0.2108  0.3255  0.4372
15461TIP3    H167874   1.824   6.479  15.535 -1.3955  0.4343 -0.0880
15461TIP3    H267875   1.877   6.545  15.661 -0.5829 -2.9002  1.4273
15462TIP3   OH267876   3.326   1.249  13.347 -0.6499  0.0746 -0.0247
15462TIP3    H167877   3.395   1.186  13.326  0.3361  1.0000  0.3401
15462TIP3    H267878   3.276   1.207  13.418 -0.4212 -0.5752 -0.2428
15463TIP3   OH267879   2.357   6.463   1.508 -0.5090 -0.3408  0.2772
15463TIP3    H167880   2.432   6.455   1.450 -0.6302  0.3156  0.0242
15463TIP3    H267881   2.395   6.482   1.594 -0.4191  1.9572 -0.2085
15464TIP3   OH267882   3.024   4.550   1.161 -0.4726 -0.1879  0.2364
15464TIP3    H167883   3.057   4.635   1.131  3.3679 -0.7515  2.2450
15464TIP3    H267884   2.991   4.508   1.082 -0.9352  2.4689 -1.1031
15465TIP3   OH267885   6.715   5.994  15.271 -0.1307 -0.9031  0.6187
15465TIP3    H167886   6.621   5.991  15.250  0.3792  1.4582 -2.8707
15465TIP3    H267887   6.755   5.935  15.207  0.9371 -0.0708  0.4948
15466TIP3   OH267888   1.858   2.339   4.935 -0.3624 -0.2483  0.0070
15466TIP3    H167889   1.776   2.330   4.887 -0.2808  0.3769 -0.2595
15466TIP3    H267890   1.883   2.249   4.957 -0.8002 -0.4848 -0.4438
15467TIP3   OH267891   4.185   5.091   5.845  0.4648  0.5947  0.1394
15467TIP3    H167892   4.112   5.029   5.844  1.5858 -0.8250  1.2440
15467TIP3    H267893   4.179   5.136   5.761 -1.3466  0.1458 -0.0217
15468TIP3   OH267894   3.741   4.445   0.741  0.1475  0.2063  0.1422
15468TIP3    H167895   3.751   4.371   0.800  2.0243  1.3142  1.3239
15468TIP3    H267896   3.815   4.437   0.680 -1.7438 -0.9163 -2.1609
15469TIP3   OH267897   4.970   4.508  14.675  0.0535  0.2672  0.2371
15469TIP3    H167898   4.927   4.429  14.643  0.4765 -0.5902  1.6897
15469TIP3    H267899   5.063   4.492  14.659  0.1010  0.7188  0.0444
15470TIP3   OH267900   3.563   6.354  15.641  0.3861 -0.1410 -0.1943
15470TIP3    H167901   3.501   6.410  15.594 -0.2509 -1.0144 -0.4081
15470TIP3    H267902   3.554   6.381  15.733 -0.5885 -0.4991 -0.1703
15471TIP3   OH267903   2.177   6.110  11.148  0.2347 -0.1239  0.6449
15471TIP3    H167904   2.179   6.056  11.227  0.8753 -0.3396  0.4800
15471TIP3    H267905   2.091   6.153  11.152  0.2849 -0.0746  1.4942
15472TIP3   OH267906   0.766   1.431  14.659  0.7934 -0.1968  0.2328
15472TIP3    H167907   0.815   1.374  14.600  0.3002 -0.7622  0.3486
15472TIP3    H267908   0.788   1.399  14.747  0.4901 -0.2407  0.2968
15473TIP3   OH267909   3.298   0.248   5.884 -0.6828 -0.4536  0.4341
15473TIP3    H167910   3.382   0.245   5.839 -1.8258  1.0980 -1.9928
15473TIP3    H267911   3.319   0.221   5.974  2.4945  0.4104  0.1001
15474TIP3   OH267912   5.747   4.420  15.880 -0.2595  0.3638 -0.1199
15474TIP3    H167913   5.829   4.392  15.920 -0.7831  0.2646  0.9166
15474TIP3    H267914   5.772   4.451  15.793  0.8856  0.4191  0.2150
15475TIP3   OH267915   3.843   6.574   0.472 -0.0963  0.3379 -0.0933
15475TIP3    H167916   3.775   6.526   0.520 -0.8424  0.3879 -1.0857
15475TIP3    H267917   3.857   6.523   0.392  0.0204  1.0905 -0.5619
15476TIP3   OH267918   2.984   5.288   0.222 -0.5755  0.4201 -0.2682
15476TIP3    H167919   3.032   5.318   0.299 -0.8566 -0.6916  0.3700
15476TIP3    H267920   3.051   5.252   0.165 -0.6108 -1.4890  0.7905
15477TIP3   OH267921   1.547   0.802   4.199  0.1057 -0.6022 -0.5917
15477TIP3    H167922   1.624   0.832   4.246 -0.1819 -0.3017 -0.3073
15477TIP3    H267923   1.537   0.864   4.126 -1.0453  0.6163  0.5436
15478TIP3   OH267924   3.822   6.117   4.712 -0.5676  0.1712  0.2652
15478TIP3    H167925   3.849   6.208   4.706 -0.0848 -0.0431 -1.0268
15478TIP3    H267926   3.862   6.074   4.636 -0.5996 -1.1659  0.9585
15479TIP3   OH267927   0.613   4.501  17.159  0.4616  0.6514 -0.2311
15479TIP3    H167928   0.691   4.445  17.164  0.7867  1.0343 -0.9391
15479TIP3    H267929   0.614   4.536  17.070 -1.3493 -0.5442 -0.7728
15480TIP3   OH267930   1.444   0.325   5.894 -0.2816  0.2163  0.1547
15480TIP3    H167931   1.403   0.409   5.871  1.1321  1.3666  1.5926
15480TIP3    H267932   1.437   0.321   5.989 -2.6836 -2.6183 -0.0210
15481TIP3   OH267933   4.320   3.125  15.610 -0.3680  0.0921  0.3578
15481TIP3    H167934   4.247   3.071  15.639 -0.2490 -0.2442  0.0389
15481TIP3    H267935   4.397   3.085  15.650 -0.3075  0.1955  0.3460
15482TIP3   OH267936   0.562   2.152   1.318  0.2764  0.2322  0.4005
15482TIP3    H167937   0.613   2.079   1.283 -1.5852 -1.1965  0.4967
15482TIP3    H267938   0.588   2.157   1.410 -0.1973 -0.9185  0.6189
15483TIP3   OH267939   5.024   4.629   4.364  0.0360 -0.3230 -0.0615
15483TIP3    H167940   5.035   4.579   4.283 -1.7892 -0.1058 -0.4861
15483TIP3    H267941   4.991   4.566   4.427 -1.9781  0.2194 -0.5132
15484TIP3   OH267942   0.376   0.628   4.728 -0.0769 -0.3363  0.6080
15484TIP3    H167943   0.407   0.547   4.687 -2.8443 -0.6045 -1.2164
15484TIP3    H267944   0.386   0.613   4.822  1.1168 -2.0526  0.2593
15485TIP3   OH267945   3.213   2.394   3.057 -0.0942 -0.1799  0.1133
15485TIP3    H167946   3.278   2.330   3.086  1.3148  1.1448  0.0026
15485TIP3    H267947   3.152   2.401   3.130 -1.1142 -2.6310 -0.3950
15486TIP3   OH267948   5.512   5.850  14.394  0.0475  0.2106  0.4961
15486TIP3    H167949   5.526   5.873  14.302  0.4097  1.1129  0.7604
15486TIP3    H267950   5.472   5.929  14.432 -1.0713 -0.5237  0.8861
15487TIP3   OH267951   2.477   6.310   0.021 -0.2316  0.0392 -0.0520
15487TIP3    H167952   2.463   6.335  -0.070 -2.2574 -0.7633 -0.0205
15487TIP3    H267953   2.572   6.300   0.029  0.0160  0.4305 -1.9793
15488TIP3   OH267954   0.012   2.232  16.369 -0.0772  0.0649  0.2988
15488TIP3    H167955  -0.008   2.140  16.350  1.2280 -0.0093 -0.8358
15488TIP3    H267956  -0.046   2.281  16.310 -1.3354  0.0187  1.4541
15489TIP3   OH267957   5.739   6.341   2.162 -0.0589 -0.3107  0.2008
15489TIP3    H167958   5.663   6.292   2.130  0.1734 -1.9319  1.9125
15489TIP3    H267959   5.807   6.325   2.097 -1.2126  1.4531 -1.5376
15490TIP3   OH267960   5.862   0.524   0.836 -0.4784 -0.0257 -0.1678
15490TIP3    H167961   5.844   0.567   0.920 -0.5001 -0.3089 -0.0284
15490TIP3    H267962   5.822   0.438   0.844 -1.9387  0.5391 -1.0855
15491TIP3   OH267963   6.402   5.636  12.155  0.2699 -0.1277  0.1121
15491TIP3    H167964   6.441   5.626  12.242 -0.4341  2.2589  0.7645
15491TIP3    H267965   6.470   5.676  12.102  0.1030  0.0818  0.0562
15492TIP3   OH267966   3.384   3.520   2.913  0.1696  0.7118 -0.0951
15492TIP3    H167967   3.342   3.452   2.860 -2.3082  1.9988  0.1117
15492TIP3    H267968   3.477   3.510   2.894 -0.3799 -0.6996 -2.4884
15493TIP3   OH267969   6.313   0.682   1.606  0.0731 -0.1520  0.5737
15493TIP3    H167970   6.338   0.654   1.694 -1.9939 -0.4726  1.1186
15493TIP3    H267971   6.384   0.738   1.577  1.5171 -1.2623  1.8343
15494TIP3   OH267972   2.813   3.657  16.621 -0.6730  0.1857 -0.2303
15494TIP3    H167973   2.837   3.622  16.707  1.6836  1.6613 -0.2129
15494TIP3    H267974   2.866   3.607  16.559 -1.3764  0.0444 -0.7337
15495TIP3   OH267975   3.927   6.039  15.880 -0.4650 -0.3404 -0.2290
15495TIP3    H167976   3.977   6.045  15.799 -1.2274  1.2252 -0.6225
15495TIP3    H267977   3.850   5.986  15.856 -0.8942  0.4577 -0.6572
15496TIP3   OH267978   1.712   2.543  11.314  0.0821  0.6731 -0.4204
15496TIP3    H167979   1.711   2.526  11.220 -1.9546  0.0483 -0.3234
15496TIP3    H267980   1.733   2.458  11.353 -0.4041  0.6230 -0.2670
15497TIP3   OH267981   6.276   0.725  13.611 -0.2927  0.3742 -0.5775
15497TIP3    H167982   6.260   0.716  13.517  0.3839 -0.0321 -0.6626
15497TIP3    H267983   6.189   0.737  13.649 -0.4776  1.9015 -1.3902
15498TIP3   OH267984   4.383   6.659  10.772 -0.7486  0.6539 -0.0099
15498TIP3    H167985   4.397   6.678  10.865 -1.1915  1.5320 -0.1056
15498TIP3    H267986   4.435   6.581  10.755 -0.1174  0.8803  0.8163
15499TIP3   OH267987   1.107   2.460  11.481 -0.0659  0.4087  0.1292
15499TIP3    H167988   1.130   2.429  11.569  1.1072  0.6622 -0.0661
15499TIP3    H267989   1.021   2.421  11.464  1.3338 -2.9378 -0.1639
15500TIP3   OH267990   3.873   5.673   4.168 -0.3271  0.0028  0.7928
15500TIP3    H167991   3.803   5.722   4.210  0.2200 -0.4982  2.3334
15500TIP3    H267992   3.888   5.719   4.085 -1.9604  0.5390  0.7707
15501TIP3   OH267993   3.408   0.757   3.871 -0.6786 -0.0256  0.2154
15501TIP3    H167994   3.456   0.721   3.797  0.9610  1.9040  0.2728
15501TIP3    H267995   3.406   0.686   3.935  1.2566 -0.4996 -0.1828
15502TIP3   OH267996   5.799   3.147   3.128 -0.1059  0.2949 -0.3351
15502TIP3    H167997   5.783   3.240   3.146 -1.1454  0.0309  0.1749
15502TIP3    H267998   5.787   3.139   3.033  1.5435  0.9581 -0.6365
15503TIP3   OH267999   0.045   2.289  11.463 -0.7746 -0.1620  0.4048
15503TIP3    H168000  -0.012   2.342  11.518 -0.7832 -1.1487  1.3857
15503TIP3    H268001   0.115   2.260  11.522 -0.0757 -0.2055 -0.4147
15504TIP3   OH268002   5.984   1.150  14.915 -0.3877  0.8351  0.3401
15504TIP3    H168003   5.943   1.076  14.871  3.0212 -0.5663 -0.8635
15504TIP3    H268004   6.009   1.116  15.001 -0.0069  0.9741  0.2891
15505TIP3   OH268005   5.411   3.945  14.554  0.0816  0.6316  0.3796
15505TIP3    H168006   5.432   3.867  14.502 -2.5422  1.0613 -1.5316
15505TIP3    H268007   5.377   3.910  14.637  2.8991 -0.0892  1.3473
15506TIP3   OH268008   4.447   6.661  13.722  0.6158 -0.7771  0.0920
15506TIP3    H168009   4.510   6.733  13.720  1.2673 -1.0332  3.5848
15506TIP3    H268010   4.493   6.587  13.682  2.0830 -0.6019  1.3703
15507TIP3   OH268011   2.880   6.286   0.723  0.2953  0.0055 -0.1853
15507TIP3    H168012   2.862   6.258   0.813  4.1031 -3.7372 -0.2842
15507TIP3    H268013   2.815   6.239   0.671  0.3150 -0.7105  0.4112
15508TIP3   OH268014   4.557   1.928  16.600 -0.0812 -0.3199 -0.0242
15508TIP3    H168015   4.531   1.838  16.619 -2.0703 -0.2625 -1.9753
15508TIP3    H268016   4.590   1.924  16.510  0.3843  0.8103  0.0828
15509TIP3   OH268017   3.711   6.661   4.827 -0.0205 -0.1058 -0.0081
15509TIP3    H168018   3.656   6.715   4.885 -1.4795 -0.2513 -1.1968
15509TIP3    H268019   3.772   6.617   4.886 -0.8496  0.4552  1.3122
15510TIP3   OH268020   3.964   1.423   0.473  0.2915  0.0404 -0.1184
15510TIP3    H168021   3.903   1.493   0.448  0.3628 -0.2907 -1.2634
15510TIP3    H268022   3.953   1.415   0.568 -0.7252  0.6632 -0.1651
15511TIP3   OH268023   6.132   0.153  16.331 -0.6788 -0.4247 -0.5181
15511TIP3    H168024   6.054   0.125  16.379  0.3624  0.2383  1.6819
15511TIP3    H268025   6.183   0.073  16.319  0.1438 -0.2916  1.6655
15512TIP3   OH268026   4.207   4.265  14.565  0.1747  0.2813  0.3095
15512TIP3    H168027   4.222   4.301  14.477  0.2086  2.8388  1.2714
15512TIP3    H268028   4.114   4.240  14.564  0.4358 -0.7228 -0.7610
15513TIP3   OH268029   3.923   1.984   0.550 -0.5514  0.2516  0.0779
15513TIP3    H168030   3.988   1.918   0.576  1.1136  1.2207 -1.3564
15513TIP3    H268031   3.976   2.060   0.525 -2.2223  0.9166 -1.6723
15514TIP3   OH268032   6.710   5.735   3.283  0.2496 -0.3243  0.2273
15514TIP3    H168033   6.657   5.684   3.222  0.2582 -0.0835  0.0145
15514TIP3    H268034   6.776   5.777   3.227  1.2070 -1.2990  0.5835
15515TIP3   OH268035   5.533   1.690  13.233 -0.0171  0.0495  0.1076
15515TIP3    H168036   5.547   1.747  13.309  0.7391 -1.0290  0.7988
15515TIP3    H268037   5.557   1.745  13.158 -1.9016  1.5274  0.4906
15516TIP3   OH268038   3.717   2.178   0.948  0.7390  0.0977 -0.1460
15516TIP3    H168039   3.639   2.160   0.999  0.7485 -2.2611 -0.8476
15516TIP3    H268040   3.744   2.266   0.975 -1.5474  0.5580  0.8501
15517TIP3   OH268041   3.449   1.382   0.212 -0.1478 -0.0604 -0.3610
15517TIP3    H168042   3.412   1.307   0.259 -1.2775  1.8322  2.0125
15517TIP3    H268043   3.531   1.401   0.258 -1.6127  2.2571  1.5600
15518TIP3   OH268044   5.649   4.892  14.911 -0.3708 -0.6330 -0.8439
15518TIP3    H168045   5.701   4.825  14.955  1.2721  1.2009  0.1632
15518TIP3    H268046   5.713   4.949  14.869 -1.7968 -1.0617 -3.8811
15519TIP3   OH268047   2.345   5.127   2.469 -0.2814  0.5053  0.0190
15519TIP3    H168048   2.426   5.115   2.519 -1.6869  0.6733  2.5002
15519TIP3    H268049   2.307   5.040   2.462  0.0584  0.4351 -1.0858
15520TIP3   OH268050   3.099   0.028  12.763  0.2267 -0.3490 -0.0381
15520TIP3    H168051   3.124   0.019  12.671 -0.3033  1.0537 -0.3502
15520TIP3    H268052   3.006   0.049  12.760 -0.0393 -1.3406  0.8910
15521TIP3   OH268053   4.612   0.945  16.659 -0.2467  0.2632  0.1268
15521TIP3    H168054   4.530   0.899  16.680 -1.9362  1.6842 -2.7148
15521TIP3    H268055   4.617   1.015  16.723 -1.7280  0.6265 -0.1179
15522TIP3   OH268056   0.284   4.785  15.067  0.1458  0.4420 -0.0741
15522TIP3    H168057   0.262   4.706  15.019  1.3844 -0.3760  0.6352
15522TIP3    H268058   0.312   4.754  15.153  0.6751  1.6414  0.2129
15523TIP3   OH268059   1.993   5.301  14.110 -0.2000 -0.4068  0.2280
15523TIP3    H168060   1.913   5.254  14.085  1.3253 -2.5572 -0.9846
15523TIP3    H268061   2.026   5.336  14.028  0.7266 -0.6269  0.4937
15524TIP3   OH268062   2.366   0.814  14.942 -0.5454 -0.1368  0.1323
15524TIP3    H168063   2.456   0.844  14.926 -0.4423  0.9095  2.2425
15524TIP3    H268064   2.313   0.864  14.880  0.3109 -0.7499 -1.1257
15525TIP3   OH268065   4.107   5.060   0.637  0.9095 -0.1500  0.1209
15525TIP3    H168066   4.062   4.997   0.580  0.6732  0.4970 -0.4254
15525TIP3    H268067   4.101   5.022   0.724 -0.1636 -0.3817 -0.0391
15526TIP3   OH268068   6.254   6.615  12.426 -0.4191 -0.1179 -0.2357
15526TIP3    H168069   6.189   6.553  12.394 -1.4686  1.0026 -0.3319
15526TIP3    H268070   6.323   6.613  12.359 -1.1664 -0.0418 -1.0332
15527TIP3   OH268071   0.368   3.485   3.552  0.2217 -0.3447  0.1531
15527TIP3    H168072   0.324   3.470   3.636 -1.9894  1.3704 -0.5976
15527TIP3    H268073   0.416   3.567   3.564  1.5148 -1.0924  0.2864
15528TIP3   OH268074   2.796   5.060   3.110  0.7420  0.5576  0.0759
15528TIP3    H168075   2.812   5.108   3.029 -0.9636 -0.6253 -1.0267
15528TIP3    H268076   2.756   5.124   3.168  1.5001  1.2875 -0.1905
15529TIP3   OH268077   2.131   4.706   1.010 -0.2339 -0.4911  0.3173
15529TIP3    H168078   2.159   4.790   1.046 -1.0595 -0.1879  0.2748
15529TIP3    H268079   2.171   4.704   0.922  0.4007 -0.4846  0.6006
15530TIP3   OH268080   5.556   3.302  12.731 -0.5773  0.7493 -0.4897
15530TIP3    H168081   5.595   3.223  12.769  0.1091  1.1152 -0.4161
15530TIP3    H268082   5.518   3.348  12.806 -4.8241 -1.5399 -0.9782
15531TIP3   OH268083   2.580   6.158   0.746  0.0265  0.1631 -0.1464
15531TIP3    H168084   2.492   6.175   0.713  0.1377  0.3511 -0.3493
15531TIP3    H268085   2.593   6.064   0.733 -0.5654 -0.0794  0.9116
15532TIP3   OH268086   5.402   3.279   1.878  0.1523  0.2558  0.0178
15532TIP3    H168087   5.317   3.243   1.901  1.0610 -2.3898 -0.4334
15532TIP3    H268088   5.390   3.316   1.791 -0.7880  0.9552  0.4305
15533TIP3   OH268089   1.603   2.939  12.134  0.7772 -0.7084  0.3409
15533TIP3    H168090   1.620   2.893  12.216  2.3552  0.5426  0.7695
15533TIP3    H268091   1.625   3.030  12.152 -3.2559  0.5565 -0.1826
15534TIP3   OH268092   1.549   4.594   3.865  0.3870  0.0151 -0.5447
15534TIP3    H168093   1.541   4.655   3.938  1.1348  1.5515 -1.6948
15534TIP3    H268094   1.632   4.549   3.880 -1.3912 -2.8643  1.7823
15535TIP3   OH268095   3.091   1.011   5.589  0.6344 -0.2626 -0.3436
15535TIP3    H168096   3.138   1.092   5.609 -0.8034  0.5407 -0.0909
15535TIP3    H268097   3.023   1.005   5.656  0.7680 -1.7396 -0.2979
15536TIP3   OH268098   5.861   3.710   2.668  0.3362  0.4088  0.4937
15536TIP3    H168099   5.826   3.707   2.757 -1.4859 -0.7406 -0.2152
15536TIP3    H268100   5.832   3.629   2.627  0.9218  1.0171 -1.2375
15537TIP3   OH268101   4.095   1.115  12.158  0.9050  0.1413 -0.4804
15537TIP3    H168102   4.072   1.108  12.066  0.8328 -2.2350 -0.3470
15537TIP3    H268103   4.154   1.041  12.174 -1.4039 -1.3941  1.9727
15538TIP3   OH268104   5.616   0.879  17.160 -0.5294 -0.2096  0.0800
15538TIP3    H168105   5.652   0.931  17.089  1.3454 -0.1619  0.9838
15538TIP3    H268106   5.670   0.799  17.161 -1.3945 -0.8086  0.6023
15539TIP3   OH268107   6.219   3.735   1.601  0.6159  0.6398 -0.4041
15539TIP3    H168108   6.251   3.692   1.522 -0.9059 -0.9816 -0.2053
15539TIP3    H268109   6.177   3.665   1.650 -2.6079  2.4335 -0.3718
15540TIP3   OH268110   6.709   5.817   5.207 -0.3469  0.3508  0.5496
15540TIP3    H168111   6.767   5.766   5.149  0.7798  0.7171  1.3256
15540TIP3    H268112   6.630   5.830   5.155  0.0581 -0.5980 -0.3579
15541TIP3   OH268113   1.084   3.926   2.017  0.0365  0.2757  0.2143
15541TIP3    H168114   1.119   3.946   1.930  1.0604 -1.8236  0.0918
15541TIP3    H268115   1.065   4.012   2.055  0.9135  1.3006 -1.5274
15542TIP3   OH268116   0.091   5.736   1.701 -0.0216  0.1020  0.0494
15542TIP3    H168117   0.131   5.775   1.778 -0.4475  0.1353  0.2570
15542TIP3    H268118   0.071   5.646   1.726 -1.3962  0.4907  0.4490
15543TIP3   OH268119   0.851   0.646   1.629  0.3979 -0.3175 -0.4897
15543TIP3    H168120   0.855   0.605   1.715 -1.0041 -0.2728 -0.3700
15543TIP3    H268121   0.823   0.575   1.571 -1.7581  0.3085 -0.3331
15544TIP3   OH268122   3.919   1.809  14.071 -0.0879  0.4916  0.1157
15544TIP3    H168123   3.996   1.865  14.081 -0.8578  1.4299  1.0746
15544TIP3    H268124   3.868   1.824  14.150 -0.9182 -0.6612 -0.1726
15545TIP3   OH268125   4.388   5.125  12.767 -0.0789 -0.0276  0.1118
15545TIP3    H168126   4.418   5.174  12.844  0.4711 -1.0702  0.5815
15545TIP3    H268127   4.309   5.079  12.797 -0.7027  0.6951 -0.3820
15546TIP3   OH268128   5.103   2.497  11.957 -0.3356 -0.5515  0.2913
15546TIP3    H168129   5.064   2.430  11.902 -1.1740  0.4087 -0.3186
15546TIP3    H268130   5.043   2.571  11.951  0.0722 -0.0753  1.7183
15547TIP3   OH268131   3.620   2.774   6.223 -0.0118  0.4027 -0.1164
15547TIP3    H168132   3.673   2.849   6.247  1.9312 -0.5851 -1.1311
15547TIP3    H268133   3.626   2.769   6.128 -0.3118 -0.8784 -0.0888
15548TIP3   OH268134   0.485   4.373   2.319  0.5250 -0.4864  0.9979
15548TIP3    H168135   0.405   4.323   2.302  0.7767 -0.5713  0.0089
15548TIP3    H268136   0.546   4.309   2.356  1.1797 -1.1932 -1.1726
15549TIP3   OH268137   3.225   1.572   0.213 -0.0291  0.3511 -0.2620
15549TIP3    H168138   3.254   1.575   0.304  2.2169 -0.0597 -0.9017
15549TIP3    H268139   3.283   1.508   0.171 -0.5712  1.0132 -2.1302
15550TIP3   OH268140   2.472   5.275   2.857 -0.3581  0.1429  0.0155
15550TIP3    H168141   2.490   5.188   2.823  1.7596  0.7763 -0.7035
15550TIP3    H268142   2.402   5.263   2.920  0.4088 -2.2141  0.5165
15551TIP3   OH268143   1.651   0.685   1.402  0.1434 -0.4148  0.6032
15551TIP3    H168144   1.564   0.656   1.377 -0.0625  0.4264  0.3310
15551TIP3    H268145   1.699   0.604   1.420  0.0365 -1.0465 -1.6272
15552TIP3   OH268146   5.078   4.503   5.495 -0.3100 -0.3767 -0.3237
15552TIP3    H168147   5.042   4.479   5.581 -1.9199  2.5879 -0.0055
15552TIP3    H268148   5.161   4.547   5.516  0.0951 -1.0798 -0.4415
15553TIP3   OH268149   1.297   6.190   1.870 -0.3918  0.7418  0.0705
15553TIP3    H168150   1.320   6.278   1.841  0.2894 -0.0825 -2.1130
15553TIP3    H268151   1.201   6.192   1.878 -0.3803  1.6839  0.1447
15554TIP3   OH268152   0.532   0.620   0.242 -0.2138  0.6805 -0.2779
15554TIP3    H168153   0.592   0.677   0.291  0.4450 -0.5343  0.3589
15554TIP3    H268154   0.580   0.599   0.161  0.3145 -0.4069  0.2953
15555TIP3   OH268155   5.835   0.847   3.809  0.5781  0.4575 -0.1516
15555TIP3    H168156   5.785   0.778   3.853  1.3490  0.6241  1.0512
15555TIP3    H268157   5.922   0.842   3.850  0.6118  2.2250  0.0476
15556TIP3   OH268158   3.093   6.039   5.730  0.0112  0.2781  0.3306
15556TIP3    H168159   3.161   6.012   5.791 -2.8344 -0.6090  3.3809
15556TIP3    H268160   3.097   5.974   5.660  3.2279  1.2028 -0.4860
15557TIP3   OH268161   6.617   1.663   2.092  0.2337 -0.2962 -0.9211
15557TIP3    H168162   6.597   1.756   2.087  0.8018 -0.1613 -0.8028
15557TIP3    H268163   6.606   1.641   2.185  0.6409 -0.2178 -0.8533
15558TIP3   OH268164   2.586   1.772  11.521  0.1974  0.3572 -0.0727
15558TIP3    H168165   2.675   1.794  11.549  0.4406 -0.6511 -0.0111
15558TIP3    H268166   2.598   1.708  11.451 -0.4998 -0.4012  0.4937
15559TIP3   OH268167   6.541   4.921  16.932  1.0227 -0.1439  0.1919
15559TIP3    H168168   6.511   5.003  16.892 -1.8247 -0.6174  1.0726
15559TIP3    H268169   6.557   4.863  16.858  1.4483  0.7031 -0.4022
15560TIP3   OH268170   0.778   0.411   3.749  0.1963  0.7660 -0.2619
15560TIP3    H168171   0.757   0.438   3.838  1.8922  1.6565 -0.0970
15560TIP3    H268172   0.723   0.466   3.693  2.0783  3.2366  0.1473
15561TIP3   OH268173   0.542   5.212   2.909  0.4898 -0.3450 -0.7155
15561TIP3    H168174   0.636   5.216   2.888  0.4629  1.0171 -0.6727
15561TIP3    H268175   0.513   5.303   2.906 -0.5239 -0.5884  0.6737
15562TIP3   OH268176   0.851   5.451   2.673  0.4456  0.3930  0.1239
15562TIP3    H168177   0.921   5.510   2.701 -1.9009  3.0374  0.7404
15562TIP3    H268178   0.799   5.501   2.611 -0.1343 -2.0167 -1.4862
15563TIP3   OH268179   6.722   3.015   3.456 -0.7596 -0.0773 -0.3533
15563TIP3    H168180   6.636   3.043   3.487 -0.6381 -0.0234 -0.0655
15563TIP3    H268181   6.751   2.951   3.521  0.0896  1.0341  0.4027
15564TIP3   OH268182   5.422   4.745  16.629 -1.2460  0.2148  0.0403
15564TIP3    H168183   5.386   4.743  16.540 -0.9763  0.2615 -0.0693
15564TIP3    H268184   5.501   4.691  16.624 -0.7058  0.9954  0.0194
15565TIP3   OH268185   4.007   1.026  13.319 -0.3192 -0.4237 -0.1847
15565TIP3    H168186   3.989   0.933  13.331  0.2463 -0.5644 -0.3948
15565TIP3    H268187   4.070   1.029  13.247  0.6040  0.0398  0.6329
15566TIP3   OH268188   4.895   2.143  17.154 -0.5432  0.7564 -0.1797
15566TIP3    H168189   4.843   2.110  17.226 -0.7709  1.3414 -0.0723
15566TIP3    H268190   4.865   2.094  17.078 -0.4449  0.2851  0.0823
15567TIP3   OH268191   4.060   0.463   0.147 -0.3479 -0.3809  0.0926
15567TIP3    H168192   4.071   0.368   0.153 -0.5037 -0.4301 -0.3885
15567TIP3    H268193   4.121   0.498   0.212 -0.9204 -0.8434  0.9032
15568TIP3   OH268194   6.540   2.751   4.780 -0.0648  0.0053 -0.3244
15568TIP3    H168195   6.458   2.764   4.828  0.1068  0.3026 -0.1102
15568TIP3    H268196   6.512   2.727   4.691 -0.4235  2.8704 -1.0623
15569TIP3   OH268197   6.268   0.391   2.137 -0.0343  0.4201 -0.8685
15569TIP3    H168198   6.314   0.475   2.133  3.4243 -1.0189  2.6644
15569TIP3    H268199   6.188   0.410   2.186  0.7865  1.6630  0.0527
15570TIP3   OH268200   0.214   1.084   5.948  0.5937 -0.3351  0.1937
15570TIP3    H168201   0.169   1.075   5.865  2.2768  1.9853 -1.0914
15570TIP3    H268202   0.150   1.122   6.007 -0.1519 -0.4755 -0.5146
15571TIP3   OH268203   3.795   2.928  15.073  0.3018 -0.0181 -0.8833
15571TIP3    H168204   3.870   2.913  15.129 -1.2318  0.9013  1.5800
15571TIP3    H268205   3.827   2.984  15.003  1.8668  0.5665  0.2519
15572TIP3   OH268206   3.765   4.741  10.199 -0.5103  0.0290 -0.1172
15572TIP3    H168207   3.861   4.748  10.200 -0.5116  1.0386 -2.0368
15572TIP3    H268208   3.736   4.800  10.268  0.2215  1.0396 -0.6488
15573TIP3   OH268209   3.414   5.317  15.380 -0.3689 -0.2256 -0.5264
15573TIP3    H168210   3.430   5.411  15.384  0.6737 -0.4334  0.8721
15573TIP3    H268211   3.330   5.304  15.424  1.2462 -0.2713  2.8723
15574TIP3   OH268212   4.460   6.800  16.859 -0.2394 -0.1352 -0.0680
15574TIP3    H168213   4.475   6.866  16.792  2.8872 -1.8038 -1.1831
15574TIP3    H268214   4.528   6.815  16.924 -0.4686 -1.2685  0.4672
15575TIP3   OH268215   1.810   5.550   2.809  0.4478  0.3329  0.0349
15575TIP3    H168216   1.826   5.457   2.790  1.8980  0.1931  1.6993
15575TIP3    H268217   1.729   5.570   2.762  0.3673 -1.6371 -0.7721
15576TIP3   OH268218   1.336   3.259  14.241  0.6693  0.0536  0.3884
15576TIP3    H168219   1.387   3.287  14.316 -0.5653 -0.1960  1.3628
15576TIP3    H268220   1.335   3.163  14.247  1.2483 -0.0161 -0.4323
15577TIP3   OH268221   4.998   2.285   4.208 -0.5297  0.2609 -0.0145
15577TIP3    H168222   5.014   2.192   4.225  1.3503  0.6137  0.3656
15577TIP3    H268223   5.056   2.331   4.270  0.7837  1.6383 -2.1491
15578TIP3   OH268224   4.617   6.681  12.107 -0.6243  0.0049  0.6356
15578TIP3    H168225   4.558   6.614  12.071 -1.3905  1.1372 -0.2652
15578TIP3    H268226   4.690   6.630  12.143 -0.7537 -1.3049 -0.7907
15579TIP3   OH268227   3.311   2.310   3.924 -0.0406 -0.4047 -0.4818
15579TIP3    H168228   3.369   2.338   3.995  0.9275 -0.5497 -1.2000
15579TIP3    H268229   3.259   2.388   3.904 -0.9998 -0.6200  0.9967
15580TIP3   OH268230   5.087   2.491  12.991 -0.2107 -0.0335 -0.5482
15580TIP3    H168231   5.057   2.559  12.931 -0.8641 -0.2728 -0.5003
15580TIP3    H268232   5.045   2.512  13.074 -0.1684 -0.3138 -0.4551
15581TIP3   OH268233   1.809   5.978  11.636 -0.7080  0.3656  0.2964
15581TIP3    H168234   1.869   5.918  11.681  0.4748  1.6499  0.5012
15581TIP3    H268235   1.824   6.063  11.678 -2.0746  0.9056 -0.2340
15582TIP3   OH268236   5.399   1.988  10.970 -0.0321 -0.3358  0.0262
15582TIP3    H168237   5.328   1.932  10.938 -0.6268  0.6943 -0.5238
15582TIP3    H268238   5.458   1.998  10.895 -1.6437  2.4263 -1.0478
15583TIP3   OH268239   4.623   4.127   5.692 -0.0451 -0.1621  0.6986
15583TIP3    H168240   4.569   4.202   5.666 -0.3282 -0.8051 -0.6780
15583TIP3    H268241   4.706   4.139   5.645  0.2416 -0.2563  1.1702
15584TIP3   OH268242   4.316   4.485   1.676 -0.6423 -0.1569  0.5241
15584TIP3    H168243   4.339   4.430   1.751 -2.0797 -1.6473 -0.0752
15584TIP3    H268244   4.366   4.450   1.603  1.0870  1.5659  0.8130
15585TIP3   OH268245   1.805   1.301  14.243 -0.2001  0.2224 -0.0714
15585TIP3    H168246   1.854   1.227  14.276  1.1535  0.2523 -1.8472
15585TIP3    H268247   1.869   1.353  14.195 -1.2042  2.3072  0.7014
15586TIP3   OH268248   6.074   3.087   1.643  0.4013 -0.4326  0.0022
15586TIP3    H168249   6.030   3.007   1.615  0.9986 -0.9400  0.4695
15586TIP3    H268250   6.152   3.092   1.588  0.1317  0.0849 -0.3438
15587TIP3   OH268251   5.315   1.851   0.512  0.0859 -0.3707 -0.2658
15587TIP3    H168252   5.316   1.820   0.421 -2.8911  0.6233 -0.7517
15587TIP3    H268253   5.307   1.771   0.564  0.0114 -0.8512 -0.9871
15588TIP3   OH268254   0.236   6.819  13.231  0.3306 -0.5980  0.2392
15588TIP3    H168255   0.180   6.887  13.267 -0.9274 -0.1346 -2.3431
15588TIP3    H268256   0.314   6.819  13.287 -1.3888  0.0482  2.7906
15589TIP3   OH268257   1.262   6.272  16.084  0.6010  0.0999 -0.2494
15589TIP3    H168258   1.236   6.215  16.156  0.6630 -0.3541 -0.5856
15589TIP3    H268259   1.356   6.258  16.075  0.7110  0.6427  0.0017
15590TIP3   OH268260   0.236   2.413   0.586  0.5048  0.0549  0.0872
15590TIP3    H168261   0.168   2.382   0.646  0.9612  1.0402  1.1533
15590TIP3    H268262   0.190   2.469   0.524  0.3515  0.9607  0.9861
15591TIP3   OH268263   3.609   3.863   5.041 -0.1207 -0.2767  0.3940
15591TIP3    H168264   3.683   3.814   5.078 -1.9017 -1.3434  2.8265
15591TIP3    H268265   3.612   3.948   5.085 -0.1158 -0.1701  0.1893
15592TIP3   OH268266   1.230   1.629   4.120 -0.0698 -0.0411 -0.5728
15592TIP3    H168267   1.180   1.636   4.038 -0.3336 -1.1908 -0.5347
15592TIP3    H268268   1.291   1.557   4.105 -0.8278 -0.9612  0.5827
15593TIP3   OH268269   3.276   1.888  16.324  0.6509 -0.4771  0.3192
15593TIP3    H168270   3.249   1.822  16.388  0.7324 -0.6714  0.1494
15593TIP3    H268271   3.361   1.919  16.357  0.3735 -0.0871  0.6826
15594TIP3   OH268272   4.653   1.063  16.968 -0.2845 -0.3720  0.1211
15594TIP3    H168273   4.562   1.087  16.984 -0.5921 -1.7236  0.5782
15594TIP3    H268274   4.657   0.970  16.992  1.6400  0.1083  1.9041
15595TIP3   OH268275   1.325   2.598  11.845  0.1631 -0.5575 -0.6895
15595TIP3    H168276   1.347   2.690  11.862 -0.1851 -0.3295 -1.4252
15595TIP3    H268277   1.365   2.579  11.760  0.6931 -1.2539 -0.2906
15596TIP3   OH268278   6.030   4.707  16.834  0.1557 -0.0365  0.1104
15596TIP3    H168279   6.047   4.730  16.742  1.7148  2.6762  0.9669
15596TIP3    H268280   5.937   4.728  16.846  0.1244  0.3251 -0.6566
15597TIP3   OH268281   2.429   0.773  11.669  0.0643 -0.1730 -0.3159
15597TIP3    H168282   2.522   0.782  11.687 -0.2200  0.0702  1.1620
15597TIP3    H268283   2.416   0.819  11.586  0.7396  2.6565  1.0372
15598TIP3   OH268284   4.320   3.391   0.178 -0.1000  0.4510  0.4489
15598TIP3    H168285   4.257   3.452   0.139  0.1237 -0.7428 -1.9770
15598TIP3    H268286   4.388   3.447   0.215 -0.0265  1.7464 -1.4973
15599TIP3   OH268287   5.157   0.197   4.454 -0.0289 -0.1749 -0.2820
15599TIP3    H168288   5.206   0.242   4.523 -0.5829 -0.0347  0.0269
15599TIP3    H268289   5.077   0.167   4.497 -0.3131 -0.2167 -0.8277
15600TIP3   OH268290   6.411   2.008  15.834 -0.4447  0.3207  0.0269
15600TIP3    H168291   6.366   1.947  15.775 -1.2966  0.3875  0.5930
15600TIP3    H268292   6.342   2.041  15.891 -0.0367  1.9872 -0.4107
15601TIP3   OH268293   6.301   3.083  14.328  0.7935  0.3386  0.2475
15601TIP3    H168294   6.332   3.042  14.248  2.3692  0.8051  0.5929
15601TIP3    H268295   6.357   3.159  14.341  1.9302 -0.7962  2.8114
15602TIP3   OH268296   2.936   0.515   3.146 -0.0462 -0.0091 -0.4786
15602TIP3    H168297   2.905   0.558   3.225 -0.3579 -0.5514 -0.3029
15602TIP3    H268298   3.032   0.523   3.150  0.0453 -1.2589  0.6801
15603TIP3   OH268299   2.869   0.318   2.544  0.1008  0.6649 -0.0177
15603TIP3    H168300   2.863   0.226   2.570 -2.2709  0.3678 -1.2886
15603TIP3    H268301   2.927   0.318   2.468 -0.3632  0.0976 -0.3872
15604TIP3   OH268302   2.615   2.269  11.706 -0.0426 -0.1413  0.3513
15604TIP3    H168303   2.657   2.233  11.627  0.8048  2.2271 -0.3751
15604TIP3    H268304   2.522   2.248  11.695  0.0756  0.0094 -1.2364
15605TIP3   OH268305   3.981   2.253  16.739  0.6169  0.7932 -0.8637
15605TIP3    H168306   3.924   2.231  16.665 -0.2508  2.6056 -0.7843
15605TIP3    H268307   4.069   2.230  16.709  0.0297 -0.7877 -1.5002
15606TIP3   OH268308   4.542   5.881   4.369  0.0595  0.0645 -0.5704
15606TIP3    H168309   4.479   5.851   4.304 -1.2087  0.0197  0.6548
15606TIP3    H268310   4.547   5.976   4.356  0.3282 -0.0222 -1.1562
15607TIP3   OH268311   2.027   2.162   2.891 -0.1393  0.3287 -0.3614
15607TIP3    H168312   2.114   2.141   2.858 -0.2483  1.0666 -1.1408
15607TIP3    H268313   2.005   2.088   2.948  1.1682  0.3408  0.2039
15608TIP3   OH268314   5.137   2.534   2.446  0.0271 -0.3988 -0.0487
15608TIP3    H168315   5.123   2.566   2.356 -2.7748 -0.2668  0.3536
15608TIP3    H268316   5.217   2.482   2.440  1.5720  1.9190 -1.9733
15609TIP3   OH268317   4.176   3.064   5.828 -0.0858  0.9901 -0.2389
15609TIP3    H168318   4.254   3.051   5.774 -0.2648  0.0914 -0.2855
15609TIP3    H268319   4.108   3.012   5.785  0.2965 -1.5818  2.0463
15610TIP3   OH268320   4.920   0.244   5.529 -0.4251 -0.0654 -0.0032
15610TIP3    H168321   4.902   0.242   5.623  1.1399  3.5278  0.5412
15610TIP3    H268322   4.848   0.295   5.492  0.2311  0.6434 -0.3318
15611TIP3   OH268323   2.181   5.184   1.184  0.2209 -0.2474 -0.0206
15611TIP3    H168324   2.087   5.183   1.167  0.4078 -0.4879 -1.0678
15611TIP3    H268325   2.188   5.207   1.277 -0.7599  4.0183 -0.7677
15612TIP3   OH268326   3.606   1.853   3.238  0.3069 -0.1195  0.2391
15612TIP3    H168327   3.648   1.874   3.322 -0.1557 -1.0024  0.6982
15612TIP3    H268328   3.647   1.772   3.210 -1.0221 -0.9563  0.6607
15613TIP3   OH268329   3.185   3.331   9.961  0.4688  0.3304 -0.5773
15613TIP3    H168330   3.114   3.276   9.929 -0.2537  1.0046 -0.1602
15613TIP3    H268331   3.210   3.292  10.044  0.3733  0.2804 -0.5717
15614TIP3   OH268332   4.468   3.025   0.587 -0.6647  0.1573  0.0904
15614TIP3    H168333   4.547   3.063   0.549 -0.2091  0.6792  1.4924
15614TIP3    H268334   4.487   2.932   0.595 -1.0395 -0.0896 -1.5579
15615TIP3   OH268335   0.418   5.134  11.904  0.4491  0.3022 -0.2801
15615TIP3    H168336   0.497   5.154  11.854  1.1333 -0.1749  0.5677
15615TIP3    H268337   0.390   5.218  11.939 -1.8561  1.2648 -3.8837
15616TIP3   OH268338   4.785   0.844   0.320  0.3302 -0.2588  0.7010
15616TIP3    H168339   4.745   0.841   0.233  1.0899 -1.7048  0.3696
15616TIP3    H268340   4.786   0.937   0.342 -0.8738  0.0429 -0.3536
15617TIP3   OH268341   2.741   6.601   3.816  0.5386  0.2196  0.3141
15617TIP3    H168342   2.650   6.605   3.846  0.7518 -0.4627  1.0894
15617TIP3    H268343   2.790   6.569   3.891  1.3973  0.3758 -0.1616
15618TIP3   OH268344   1.551   5.509  13.071  1.0098 -0.3750  0.2473
15618TIP3    H168345   1.566   5.590  13.022  1.6875 -0.0796  0.9254
15618TIP3    H268346   1.502   5.453  13.010  2.0863 -0.1350 -0.8733
15619TIP3   OH268347   4.319   0.038   3.234 -0.2851  0.0226  0.0581
15619TIP3    H168348   4.279   0.123   3.254 -1.3490 -0.1020 -1.4235
15619TIP3    H268349   4.414   0.056   3.236 -0.3816  0.6026  2.3634
15620TIP3   OH268350   5.694   0.900   5.314  0.4101  0.3867  0.3403
15620TIP3    H168351   5.787   0.901   5.335 -0.0477 -0.0581  2.7270
15620TIP3    H268352   5.674   0.809   5.294  0.1426  0.0847  1.8549
15621TIP3   OH268353   6.227   1.247   0.867  0.1288 -0.0365 -0.5696
15621TIP3    H168354   6.233   1.342   0.862  1.2271 -0.1075 -0.8350
15621TIP3    H268355   6.273   1.216   0.789 -0.6173 -0.7822 -0.7291
15622TIP3   OH268356   4.391   1.063   0.323 -0.2174  0.3765 -0.3996
15622TIP3    H168357   4.482   1.091   0.317 -0.4435  0.8168 -2.7690
15622TIP3    H268358   4.352   1.122   0.388  0.8287  1.2786 -0.5632
15623TIP3   OH268359   2.012   1.191  12.448  0.2118  0.2403 -0.1897
15623TIP3    H168360   1.924   1.171  12.417 -0.2281  1.4485  0.2341
15623TIP3    H268361   2.000   1.258  12.515  1.3655 -0.4056  0.7050
15624TIP3   OH268362   3.596   6.172   5.460  0.1707 -0.2561 -0.3427
15624TIP3    H168363   3.589   6.150   5.368 -0.8506 -1.9209  0.0922
15624TIP3    H268364   3.690   6.165   5.479  0.2945 -0.6684 -1.0718
15625TIP3   OH268365   4.297   4.494   5.793  0.3507  0.1123 -0.0454
15625TIP3    H168366   4.252   4.421   5.751 -0.1764 -1.0515  2.3736
15625TIP3    H268367   4.289   4.566   5.731 -2.6506 -0.7602 -0.8296
15626TIP3   OH268368   6.389   6.020   0.821 -0.1725 -0.3642 -0.0512
15626TIP3    H168369   6.339   5.960   0.766 -0.5340 -1.2476  1.2106
15626TIP3    H268370   6.460   5.967   0.856 -1.2261 -0.4637  2.1112
15627TIP3   OH268371   4.575   5.930  15.410  0.3203  0.0396 -0.0501
15627TIP3    H168372   4.615   5.875  15.343 -0.3255 -0.3685 -0.1114
15627TIP3    H268373   4.552   5.870  15.481 -3.6267 -0.5415 -1.5303
15628TIP3   OH268374   5.325   4.496   5.333 -0.2378  0.3144 -0.2370
15628TIP3    H168375   5.299   4.548   5.256 -1.8883 -0.1641 -0.0446
15628TIP3    H268376   5.249   4.440   5.350  0.5472 -0.3868  1.0760
15629TIP3   OH268377   4.516   3.627  13.650 -0.0767 -0.7516 -0.2149
15629TIP3    H168378   4.585   3.638  13.716 -0.6858  0.0316  0.3135
15629TIP3    H268379   4.474   3.545  13.674 -0.6032 -0.2372  0.6890
15630TIP3   OH268380   2.592   1.609  11.938 -0.1206 -0.3801 -0.3969
15630TIP3    H168381   2.509   1.581  11.899 -0.7331  0.7848  0.0362
15630TIP3    H268382   2.581   1.593  12.032  0.0194  0.1015 -0.3002
15631TIP3   OH268383   6.376   4.100   1.379 -0.3543  0.6920 -0.0230
15631TIP3    H168384   6.436   4.171   1.356 -0.4819 -0.2494 -3.8747
15631TIP3    H268385   6.432   4.032   1.415 -0.1910  2.4142  3.4511
15632TIP3   OH268386   1.802   4.984  17.130 -0.1845 -0.6758 -0.4861
15632TIP3    H168387   1.849   4.954  17.052 -1.1777  1.5951 -2.0819
15632TIP3    H268388   1.871   5.000  17.195  0.8989 -0.6710 -1.5981
15633TIP3   OH268389   0.327   5.819   5.578  0.4017  0.1160  0.0846
15633TIP3    H168390   0.394   5.874   5.620  0.3695  1.3546 -1.4157
15633TIP3    H268391   0.368   5.733   5.571  1.4443  0.5868  0.1658
15634TIP3   OH268392   0.079   1.852   4.229  0.3655 -0.2333  0.2323
15634TIP3    H168393   0.013   1.867   4.297 -0.0008 -3.1112  0.6495
15634TIP3    H268394   0.155   1.901   4.258  0.3911 -1.7302  3.0817
15635TIP3   OH268395   0.024   2.896  16.127  0.7876 -0.1516  0.3197
15635TIP3    H168396   0.058   2.949  16.056  1.7630 -0.0288  0.8568
15635TIP3    H268397   0.037   2.805  16.098 -1.2734 -0.1475 -0.7801
15636TIP3   OH268398   0.869   4.568   5.547  0.4453 -0.1463 -0.5883
15636TIP3    H168399   0.870   4.511   5.470 -0.0378 -0.5651 -0.2930
15636TIP3    H268400   0.958   4.563   5.582  0.5999 -0.1468 -0.9764
15637TIP3   OH268401   4.905   6.757  11.531 -0.0292  0.5255 -0.7543
15637TIP3    H168402   4.882   6.813  11.606 -1.3875  2.3447 -2.4194
15637TIP3    H268403   4.841   6.687  11.533  0.9634 -0.3998  0.6859
15638TIP3   OH268404   4.517   2.571  15.677 -0.0522  0.1173 -0.1726
15638TIP3    H168405   4.475   2.485  15.672 -2.0334  1.0513 -0.7017
15638TIP3    H268406   4.539   2.582  15.769 -0.1106 -0.8052 -0.0413
15639TIP3   OH268407   0.484   0.804   1.291  0.7525  0.0957  0.4574
15639TIP3    H168408   0.401   0.850   1.278  0.2885 -0.1976  2.1422
15639TIP3    H268409   0.550   0.874   1.297  0.5381  0.3619 -0.2213
15640TIP3   OH268410   4.262   1.356  17.040 -0.7746 -0.4293  0.0268
15640TIP3    H168411   4.273   1.379  16.948 -1.4961  3.1193  0.6854
15640TIP3    H268412   4.168   1.365  17.056 -0.5491 -0.0852  1.2872
15641TIP3   OH268413   5.671   4.971   4.763 -0.6300  0.4245 -0.1382
15641TIP3    H168414   5.727   4.942   4.835 -0.0113  2.3232  0.2104
15641TIP3    H268415   5.595   5.009   4.806  0.0097  2.1040 -0.4116
15642TIP3   OH268416   4.698   0.360  14.248  0.2811 -0.4649 -0.2889
15642TIP3    H168417   4.667   0.445  14.280  1.7225 -0.1834  0.4569
15642TIP3    H268418   4.782   0.379  14.206 -0.4681 -1.1965 -2.2166
15643TIP3   OH268419   6.085   1.457   1.140 -0.1052  0.1951  0.2330
15643TIP3    H168420   6.166   1.503   1.161  1.1680 -1.0499 -1.6192
15643TIP3    H268421   6.019   1.527   1.131  0.8655  1.2783  1.1419
15644TIP3   OH268422   6.037   1.123   4.014  0.3235  0.2102  0.4832
15644TIP3    H168423   5.954   1.164   3.991 -0.5788 -1.6995  0.1001
15644TIP3    H268424   6.084   1.114   3.930  0.1921 -0.1866  0.4490
15645TIP3   OH268425   4.687   0.674  16.141  0.4199  0.2053 -0.1391
15645TIP3    H168426   4.707   0.720  16.223 -1.7438  0.8099  0.1225
15645TIP3    H268427   4.702   0.739  16.073  1.6343 -0.1116 -0.1980
15646TIP3   OH268428   0.742   4.799   5.003  0.2135 -0.0265 -0.8447
15646TIP3    H168429   0.650   4.806   5.028  1.1058  0.0430  2.9941
15646TIP3    H268430   0.763   4.706   5.016  0.3840 -0.4398 -3.4118
15647TIP3   OH268431   2.838   6.753   4.925 -0.8138 -0.4405  0.0365
15647TIP3    H168432   2.843   6.764   5.020 -1.0109  0.3196 -0.0331
15647TIP3    H268433   2.918   6.706   4.902  0.5778  1.6793  0.2731
15648TIP3   OH268434   5.730   1.975  12.316  0.7859  0.1494  0.2718
15648TIP3    H168435   5.740   2.041  12.247  1.1583 -0.9254 -0.7496
15648TIP3    H268436   5.809   1.920  12.308 -0.1736 -1.2657  0.1214
15649TIP3   OH268437   5.092   2.293   0.150 -0.2619  0.6251 -0.1907
15649TIP3    H168438   5.059   2.313   0.062  0.7293 -1.3629 -1.0719
15649TIP3    H268439   5.118   2.201   0.145 -2.2753 -0.2574  2.8441
15650TIP3   OH268440   6.707   3.484   3.324  0.2251  0.1549  0.4762
15650TIP3    H168441   6.696   3.576   3.299  0.7153  0.1500  0.2287
15650TIP3    H268442   6.618   3.450   3.333  0.0266  0.8492  1.3037
15651TIP3   OH268443   0.462   0.335  14.967  0.8698 -0.3620  0.3960
15651TIP3    H168444   0.406   0.266  14.932  1.1975  0.0949 -1.0816
15651TIP3    H268445   0.401   0.395  15.010  0.2062  0.1134 -1.1721
15652TIP3   OH268446   6.568   1.606   4.486  1.0165  0.5096 -1.0868
15652TIP3    H168447   6.489   1.586   4.435  0.8349  0.0201 -0.6210
15652TIP3    H268448   6.535   1.649   4.565  1.3588  2.1189 -1.7799
15653TIP3   OH268449   1.930   2.586  15.519 -0.1473  0.3070  0.0398
15653TIP3    H168450   1.970   2.558  15.601 -1.1827 -2.6058 -0.3370
15653TIP3    H268451   1.909   2.679  15.533  0.3133  0.0803  2.7943
15654TIP3   OH268452   5.065   0.041   0.564 -0.1259  0.3558 -0.5266
15654TIP3    H168453   5.062   0.119   0.508  0.7601  0.8359  0.0735
15654TIP3    H268454   5.158   0.021   0.572 -0.1585  0.8223  1.4889
15655TIP3   OH268455   5.591   2.981  12.088  0.2057  0.4991  0.1838
15655TIP3    H168456   5.534   2.938  12.151  1.4261  2.2659  2.6906
15655TIP3    H268457   5.533   3.005  12.016 -1.9800  1.0584  2.0072
15656TIP3   OH268458   2.801   4.323  15.639  0.0598 -0.2739 -0.0552
15656TIP3    H168459   2.797   4.321  15.544 -0.3427  1.2374 -0.0948
15656TIP3    H268460   2.894   4.322  15.660  0.1437 -0.8691 -0.4426
15657TIP3   OH268461   1.761   0.206  12.525 -0.2344  0.2968  0.0215
15657TIP3    H168462   1.818   0.259  12.469 -0.6870  1.3481  0.5197
15657TIP3    H268463   1.715   0.270  12.578 -2.2492 -0.4953 -0.6965
15658TIP3   OH268464   2.908   3.044   1.940 -0.1924  0.1466  0.5493
15658TIP3    H168465   2.895   2.994   1.860  0.7949 -0.1769  0.5739
15658TIP3    H268466   3.003   3.056   1.945 -0.4009  2.2208  0.4160
15659TIP3   OH268467   4.059   2.944   4.192  0.6825 -0.2001  0.9930
15659TIP3    H168468   4.023   2.865   4.152 -0.8408  0.4514  0.9923
15659TIP3    H268469   4.154   2.933   4.187  0.5370 -1.0295 -1.0356
15660TIP3   OH268470   1.933   2.484  14.290  0.3115  0.0870  0.4909
15660TIP3    H168471   1.945   2.578  14.305 -0.5602  0.6225 -1.7854
15660TIP3    H268472   1.848   2.477  14.247  1.5308 -1.4189 -1.9017
15661TIP3   OH268473   5.944   1.285  11.844 -0.6512  0.9974 -0.2991
15661TIP3    H168474   5.983   1.350  11.786 -1.7794 -0.4326 -2.8352
15661TIP3    H268475   6.012   1.219  11.855 -0.7366  0.8215 -0.7892
15662TIP3   OH268476   6.181   3.856  12.811 -0.8385  0.1693  0.1263
15662TIP3    H168477   6.145   3.836  12.898 -1.7108  0.1156 -0.2333
15662TIP3    H268478   6.193   3.951  12.812 -0.6390  0.1430  0.3781
15663TIP3   OH268479   3.605   5.739  13.466 -0.0825 -0.1016 -0.1396
15663TIP3    H168480   3.521   5.742  13.512 -0.4827 -0.8951 -0.7744
15663TIP3    H268481   3.646   5.658  13.496 -0.4268 -0.7174 -1.2766
15664TIP3   OH268482   1.433   1.508  11.732 -0.0424  0.6432  0.2531
15664TIP3    H168483   1.517   1.511  11.779  0.0270 -0.1950  0.2055
15664TIP3    H268484   1.406   1.416  11.738 -1.3996  1.0688  1.0315
15665TIP3   OH268485   4.671   0.770   5.338 -0.1466 -0.1303  0.1767
15665TIP3    H168486   4.605   0.739   5.400  0.5837  0.8847  1.4930
15665TIP3    H268487   4.682   0.863   5.357 -1.3711  0.7524 -2.8564
15666TIP3   OH268488   6.735   2.476  14.996 -0.4605 -0.2112  0.1773
15666TIP3    H168489   6.727   2.553  15.053 -0.5954 -0.2402  0.1975
15666TIP3    H268490   6.828   2.472  14.974 -0.3288 -0.4481  0.7445
15667TIP3   OH268491   3.467   3.055   1.870  0.4813  0.4591 -0.0199
15667TIP3    H168492   3.530   3.119   1.836  1.5696 -1.0340 -0.8886
15667TIP3    H268493   3.518   2.976   1.885 -0.8766 -0.2780  0.9164
15668TIP3   OH268494   3.815   0.265   3.387  0.5681  0.0377  0.2199
15668TIP3    H168495   3.721   0.277   3.400  0.8268  2.0702  0.4264
15668TIP3    H268496   3.829   0.172   3.404 -1.3119 -0.1989  0.7042
15669TIP3   OH268497   0.289   6.171   3.483 -0.2972 -0.5148 -0.1456
15669TIP3    H168498   0.332   6.103   3.535  1.3219 -0.3401 -1.1851
15669TIP3    H268499   0.235   6.123   3.421  1.2991 -0.9576 -1.2748
15670TIP3   OH268500   2.785   0.707  15.795  0.0212  0.0251 -0.4562
15670TIP3    H168501   2.692   0.731  15.797 -0.1991 -0.8697  0.3851
15670TIP3    H268502   2.831   0.791  15.795 -0.7594  0.4708  0.6189
15671TIP3   OH268503   0.100   3.930  16.288  0.3181  0.1678  0.0207
15671TIP3    H168504   0.187   3.900  16.264  0.0387  0.8593 -2.1503
15671TIP3    H268505   0.051   3.927  16.206 -1.7058 -0.1728  1.1847
15672TIP3   OH268506   4.033   5.276  12.662 -0.1340 -0.5187 -0.0315
15672TIP3    H168507   4.105   5.338  12.654 -0.7202  0.4206  1.4716
15672TIP3    H268508   3.958   5.320  12.622 -0.5481 -0.2177  1.0244
15673TIP3   OH268509   6.309   6.063  16.698  0.0538  0.2766 -0.3278
15673TIP3    H168510   6.287   6.154  16.681 -0.3028  0.6822  2.0042
15673TIP3    H268511   6.264   6.042  16.779 -0.2282 -2.1415 -1.0248
15674TIP3   OH268512   2.005   4.043  16.649  0.0861  0.3123 -0.2763
15674TIP3    H168513   2.018   4.000  16.733 -0.7990  1.5289  0.5187
15674TIP3    H268514   2.077   4.011  16.594  0.3773 -0.8951  0.7677
15675TIP3   OH268515   6.844   4.474   5.610 -0.2131 -0.0616 -0.1546
15675TIP3    H168516   6.884   4.483   5.524  2.6698 -1.8653  0.8264
15675TIP3    H268517   6.902   4.522   5.669 -1.1253 -0.3247  0.9952
15676TIP3   OH268518   2.030   2.405  12.950  0.3543 -0.3268  0.2999
15676TIP3    H168519   2.024   2.461  13.027  0.7090 -0.3563  0.3501
15676TIP3    H268520   2.120   2.415  12.920  0.3089 -0.5654  0.0774
15677TIP3   OH268521   4.399   4.965   4.487 -0.0134  0.4555  0.4077
15677TIP3    H168522   4.417   4.885   4.536 -0.4562  0.7289  1.0256
15677TIP3    H268523   4.485   5.005   4.473  0.0059  1.3056  2.5689
15678TIP3   OH268524   1.398   1.150  13.862  0.1000  0.1379  0.1518
15678TIP3    H168525   1.473   1.140  13.803  0.1515  0.5915  0.1373
15678TIP3    H268526   1.376   1.243  13.856 -1.5330 -0.2875 -1.1334
15679TIP3   OH268527   4.612   1.204   0.774  0.1264  0.5409 -0.2757
15679TIP3    H168528   4.612   1.210   0.870 -0.2432 -0.3986 -0.2094
15679TIP3    H268529   4.526   1.236   0.748  1.0283  3.0942 -0.4944
15680TIP3   OH268530   1.132   3.180  15.927  0.0403  0.7656  0.6713
15680TIP3    H168531   1.128   3.168  16.021 -1.3705  0.0142  0.5404
15680TIP3    H268532   1.050   3.223  15.904 -0.3846 -0.5278 -0.3904
15681TIP3   OH268533   5.418   4.156  15.918 -0.1354 -0.4295 -0.0828
15681TIP3    H168534   5.347   4.099  15.949 -0.7632  0.6658  0.5202
15681TIP3    H268535   5.376   4.239  15.898  0.6568 -0.3837 -1.6699
15682TIP3   OH268536   3.211   2.261   2.258 -0.2080  0.1372 -0.1788
15682TIP3    H168537   3.157   2.339   2.246 -3.7642 -2.2311 -0.9217
15682TIP3    H268538   3.225   2.228   2.169 -0.5976 -1.2273  0.2552
15683TIP3   OH268539   3.187   5.697   1.789 -0.1676  0.0004  0.1169
15683TIP3    H168540   3.270   5.716   1.746 -0.2038  0.6850  0.3406
15683TIP3    H268541   3.138   5.643   1.726 -0.5268  1.5961 -1.0235
15684TIP3   OH268542   4.722   4.452  13.045  0.2440 -0.0942  0.1901
15684TIP3    H168543   4.689   4.524  13.098  2.0161 -0.1023  1.3841
15684TIP3    H268544   4.784   4.494  12.984  1.9092 -0.6292  1.4350
15685TIP3   OH268545   6.741   2.253  12.858  0.0194  0.4377  0.7007
15685TIP3    H168546   6.662   2.272  12.909  0.0882  0.8489  0.6535
15685TIP3    H268547   6.800   2.211  12.920 -0.2884 -0.0081  0.7015
15686TIP3   OH268548   4.882   2.722  15.004 -0.0675 -0.0629 -0.1466
15686TIP3    H168549   4.972   2.726  15.037  0.1256 -0.2304 -0.6442
15686TIP3    H268550   4.892   2.712  14.909 -0.6118  0.3779 -0.2561
15687TIP3   OH268551   6.821   0.646  13.215 -0.7698 -0.0665 -0.1177
15687TIP3    H168552   6.842   0.703  13.141  1.0022  0.2264  0.5672
15687TIP3    H268553   6.747   0.593  13.184  1.0158 -1.2155 -2.7870
15688TIP3   OH268554   6.608   4.479  12.682 -0.5792  0.1094  0.2545
15688TIP3    H168555   6.687   4.524  12.651 -0.9065 -0.8598 -2.2541
15688TIP3    H268556   6.603   4.401  12.627 -1.0740 -2.0424  3.1212
15689TIP3   OH268557   1.025   1.525   3.394  0.4326  0.4874 -0.0774
15689TIP3    H168558   1.001   1.457   3.330 -0.3943  1.1261 -0.4775
15689TIP3    H268559   1.120   1.527   3.393  0.5507 -1.6437  1.0032
15690TIP3   OH268560   3.479   6.076  13.344  0.0489  0.1298 -0.1697
15690TIP3    H168561   3.434   5.991  13.340 -1.7734  0.8233  2.6716
15690TIP3    H268562   3.462   6.116  13.259 -0.8843 -1.4875 -0.7924
15691TIP3   OH268563   3.705   1.693  15.121  0.2330 -0.0866  0.2805
15691TIP3    H168564   3.641   1.752  15.083 -0.6725 -1.9686 -1.2743
15691TIP3    H268565   3.787   1.742  15.119 -0.7199  1.5980  0.3568
15692TIP3   OH268566   1.247   5.805   4.018  0.0318 -0.1176  0.0009
15692TIP3    H168567   1.172   5.747   4.035 -0.1826 -0.2957 -1.3969
15692TIP3    H268568   1.254   5.806   3.922  0.0911  2.1124 -0.0107
15693TIP3   OH268569   0.458   6.685   3.186 -0.1571  0.2390 -0.3824
15693TIP3    H168570   0.399   6.744   3.233 -2.4394 -1.5604 -0.8451
15693TIP3    H268571   0.459   6.605   3.238  1.4405  0.0143 -0.7132
15694TIP3   OH268572   5.079   1.892   3.402  0.2821  0.2929 -0.2828
15694TIP3    H168573   5.002   1.861   3.450  0.2386  0.2375 -0.3884
15694TIP3    H268574   5.052   1.890   3.310 -0.1713  1.8811 -0.2067
15695TIP3   OH268575   2.071   1.260  15.491 -0.2604 -0.7086  0.0486
15695TIP3    H168576   2.062   1.354  15.505 -1.4563 -1.0942  2.1897
15695TIP3    H268577   2.028   1.244  15.407 -0.4870  0.5788 -0.1017
15696TIP3   OH268578   0.570   0.892   5.536 -0.1307  0.2087 -0.0309
15696TIP3    H168579   0.533   0.960   5.593  2.9434  0.3315  2.0485
15696TIP3    H268580   0.578   0.816   5.594  1.0392 -0.3748 -0.9373
15697TIP3   OH268581   5.695   5.153   2.491 -0.2745  0.3600 -0.3111
15697TIP3    H168582   5.648   5.176   2.571 -1.5875 -1.1604 -0.6024
15697TIP3    H268583   5.788   5.165   2.514 -0.6617  0.9224  1.1012
15698TIP3   OH268584   6.633   2.444   6.130 -0.6454  0.2128  0.0340
15698TIP3    H168585   6.671   2.532   6.134  0.0131  0.1803 -2.9913
15698TIP3    H268586   6.543   2.456   6.157 -0.0924  1.4508  1.4638
15699TIP3   OH268587   2.301   5.470   1.590  0.3414  0.6813  0.1536
15699TIP3    H168588   2.241   5.449   1.661 -0.6805 -0.3348 -0.9570
15699TIP3    H268589   2.263   5.547   1.547  0.0850  0.3450 -0.2367
15700TIP3   OH268590   1.380   1.270   0.738 -0.2930 -0.6480  0.2148
15700TIP3    H168591   1.424   1.202   0.686 -1.4670 -0.5987 -0.8695
15700TIP3    H268592   1.294   1.280   0.697 -0.1892  1.4200  0.4353
15701TIP3   OH268593   2.331   5.406  13.126 -0.6225 -0.4658  0.4347
15701TIP3    H168594   2.349   5.475  13.189  1.7162  0.4159 -1.0819
15701TIP3    H268595   2.379   5.330  13.159  0.9170  0.1049 -0.4301
15702TIP3   OH268596   2.338   3.297   3.350  0.2655  0.0644 -0.3648
15702TIP3    H168597   2.300   3.304   3.262 -0.0666 -2.1756 -0.4647
15702TIP3    H268598   2.431   3.315   3.339  0.3640 -0.9620 -1.3470
15703TIP3   OH268599   1.903   1.063   5.726 -0.0207  0.2871  0.4184
15703TIP3    H168600   1.861   0.981   5.751  0.2758 -0.0996 -0.3191
15703TIP3    H268601   1.856   1.130   5.775 -2.5851  0.0753 -1.5830
15704TIP3   OH268602   3.533   3.721  12.580 -0.4496  0.0209  0.2429
15704TIP3    H168603   3.498   3.750  12.496 -0.9305 -0.0827  0.4069
15704TIP3    H268604   3.487   3.773  12.645  0.3355  0.5122  0.4183
15705TIP3   OH268605   4.469   2.876  12.850 -0.1142 -0.0837  0.7954
15705TIP3    H168606   4.544   2.928  12.878  0.0669  0.5098 -0.7292
15705TIP3    H268607   4.476   2.872  12.755 -1.1291 -1.3929  0.7469
15706TIP3   OH268608   6.687   5.435  13.076  0.3179  0.2202  0.0468
15706TIP3    H168609   6.748   5.485  13.022 -0.5977 -0.6387 -1.9033
15706TIP3    H268610   6.654   5.366  13.017  0.4794 -1.8104  2.2076
15707TIP3   OH268611   4.913   1.484   2.638 -0.1028 -0.0118  0.5745
15707TIP3    H168612   4.992   1.430   2.630  0.0555  0.0817  1.4779
15707TIP3    H268613   4.893   1.484   2.731 -1.4035 -0.3525  0.3127
15708TIP3   OH268614   5.908   1.223  12.837 -0.6772 -0.1004 -1.2014
15708TIP3    H168615   5.980   1.191  12.782 -1.2120 -0.9471 -1.4400
15708TIP3    H268616   5.909   1.318  12.825  0.9597  0.0122 -0.4830
15709TIP3   OH268617   2.735   5.023  17.024  0.0673 -0.4218 -0.0280
15709TIP3    H168618   2.724   5.057  17.113  1.1352 -2.4011  0.9375
15709TIP3    H268619   2.663   5.062  16.974 -1.2869 -0.1719  1.9967
15710TIP3   OH268620   4.862   6.806  12.704 -0.2651 -0.0204  0.3966
15710TIP3    H168621   4.846   6.809  12.798 -0.7886  0.1482  0.3062
15710TIP3    H268622   4.957   6.814  12.695 -0.0063 -1.9391  1.0025
15711TIP3   OH268623   0.085   2.849   4.627  0.3801  0.0419 -0.1493
15711TIP3    H168624   0.164   2.797   4.645  0.2958 -0.2123 -0.4937
15711TIP3    H268625   0.054   2.816   4.542  0.5651  0.9580 -0.5863
15712TIP3   OH268626   6.214   2.981   0.232  0.7085 -0.3263 -0.2516
15712TIP3    H168627   6.237   3.055   0.175 -0.2925 -0.2486 -0.5826
15712TIP3    H268628   6.124   2.959   0.207  0.7073 -1.1302  0.4149
15713TIP3   OH268629   3.270   1.884  16.747  0.7434  0.0464 -0.0947
15713TIP3    H168630   3.319   1.852  16.822 -3.1725 -4.3996  1.0822
15713TIP3    H268631   3.276   1.814  16.682 -2.0373  0.2491 -0.7222
15714TIP3   OH268632   5.785   3.457   2.526 -0.1378 -0.2215 -0.1449
15714TIP3    H168633   5.789   3.418   2.439 -1.0481 -1.0193  0.1450
15714TIP3    H268634   5.845   3.404   2.579  0.2830  0.1527 -0.2456
15715TIP3   OH268635   3.765   3.579   5.794 -0.3338 -0.4136  0.3772
15715TIP3    H168636   3.711   3.639   5.744  1.0232 -0.7092 -1.5583
15715TIP3    H268637   3.743   3.492   5.761  1.4388 -0.5221 -0.6520
15716TIP3   OH268638   4.935   1.520   2.302 -0.0186 -0.3658 -0.5137
15716TIP3    H168639   5.008   1.514   2.240  0.6543  0.7015  0.1392
15716TIP3    H268640   4.921   1.430   2.331  1.0913 -0.5848 -0.6106
15717TIP3   OH268641   4.706   1.963  12.129 -0.5448  0.0317 -0.1373
15717TIP3    H168642   4.694   1.879  12.085  0.1766  0.2046 -0.6624
15717TIP3    H268643   4.780   2.004  12.085  1.5698 -0.6553  2.5053
15718TIP3   OH268644   3.673   5.136   2.264  0.4751 -0.3149  0.4832
15718TIP3    H168645   3.628   5.197   2.207  0.5545 -1.7492 -1.2177
15718TIP3    H268646   3.674   5.053   2.215  1.7519 -1.2688  1.9968
15719TIP3   OH268647   0.984   6.834  15.086 -0.1572  0.3272 -0.2709
15719TIP3    H168648   0.953   6.843  14.996 -1.7002  0.3309  0.2275
15719TIP3    H268649   0.980   6.923  15.121 -0.4116  0.1959  0.0450
15720TIP3   OH268650   6.364   2.779  15.227  0.6411 -0.5411  0.7662
15720TIP3    H168651   6.300   2.837  15.186  1.8035 -0.1980 -0.6190
15720TIP3    H268652   6.365   2.701  15.171  0.9378 -0.8429  1.1855
15721TIP3   OH268653   5.222   2.056   1.653  0.3898  0.4155 -0.1295
15721TIP3    H168654   5.268   1.973   1.641  0.7868  0.5473  0.4433
15721TIP3    H268655   5.247   2.108   1.577  0.2881  0.0780 -0.3960
15722TIP3   OH268656   1.620   3.839   5.275 -0.6205  0.1375 -0.1806
15722TIP3    H168657   1.568   3.918   5.260 -1.7821 -0.9636 -2.6627
15722TIP3    H268658   1.635   3.804   5.187  1.1180 -1.6344  0.7514
15723TIP3   OH268659   6.160   2.583   5.668 -0.1085 -0.4972  0.2146
15723TIP3    H168660   6.167   2.597   5.573 -0.1121 -2.0963 -0.0520
15723TIP3    H268661   6.069   2.604   5.689 -0.5496 -1.6653 -0.4414
15724TIP3   OH268662   6.554   6.214   5.968  0.0863  0.2173  0.3038
15724TIP3    H168663   6.611   6.282   5.933  0.1154  0.1785  0.2761
15724TIP3    H268664   6.478   6.262   6.001 -0.0352  0.2360  0.0017
15725TIP3   OH268665   2.978   3.706  14.096 -0.6635 -0.8717  0.1226
15725TIP3    H168666   2.986   3.624  14.146 -1.3756 -3.1705 -3.1476
15725TIP3    H268667   2.888   3.734  14.109 -1.1418 -2.0093 -0.5517
15726TIP3   OH268668   1.596   2.925   4.744 -0.0304 -0.4119  0.5157
15726TIP3    H168669   1.617   3.002   4.797  0.4223 -0.1283 -0.0544
15726TIP3    H268670   1.650   2.855   4.782 -0.1690 -0.3603  0.8098
15727TIP3   OH268671   4.463   1.513   2.637  0.4282 -0.4999 -0.0170
15727TIP3    H168672   4.382   1.462   2.624 -1.2105  2.3927 -2.3112
15727TIP3    H268673   4.529   1.468   2.585 -0.3746 -1.4610 -0.2313
15728TIP3   OH268674   2.695   1.968  10.655 -0.3997 -0.6833 -0.4352
15728TIP3    H168675   2.645   1.907  10.710 -0.8973  0.5278  0.5165
15728TIP3    H268676   2.691   2.051  10.703 -1.0841  0.5006 -2.4650
15729TIP3   OH268677   1.460   5.178  16.860 -0.3875 -0.1534  0.5772
15729TIP3    H168678   1.437   5.239  16.789  0.0304  0.9248  1.3511
15729TIP3    H268679   1.429   5.221  16.940  1.5103 -0.0986  1.3327
15730TIP3   OH268680   5.771   5.714  14.348 -0.1339 -0.1033 -0.2814
15730TIP3    H168681   5.701   5.738  14.408 -0.8426  1.7656 -1.7317
15730TIP3    H268682   5.819   5.796  14.334  1.3537 -0.9892 -0.5766
15731TIP3   OH268683   1.884   3.283  11.225 -0.1160 -0.3548 -0.0920
15731TIP3    H168684   1.898   3.255  11.315 -0.3102  1.7610  0.6533
15731TIP3    H268685   1.839   3.367  11.233 -1.1238 -0.6390 -2.1930
15732TIP3   OH268686   4.402   0.417  12.971  0.6799 -0.2703 -0.1119
15732TIP3    H168687   4.420   0.324  12.963  0.4693 -0.3054 -0.1722
15732TIP3    H268688   4.316   0.429  12.932  1.0672  0.0846 -0.8915
15733TIP3   OH268689   2.297   2.230  14.259  0.0579  0.8082 -0.0656
15733TIP3    H168690   2.244   2.296  14.215  0.5503  1.5796  0.4747
15733TIP3    H268691   2.378   2.225  14.209  0.6215  1.6922  0.7212
15734TIP3   OH268692   2.143   1.645  14.152  0.0508 -0.0971 -0.8144
15734TIP3    H168693   2.208   1.582  14.122 -0.1954 -0.8100  0.1268
15734TIP3    H268694   2.141   1.636  14.247 -2.4243 -1.1333 -0.8806
15735TIP3   OH268695   5.019   6.512   4.368 -0.3010  0.2401  0.0238
15735TIP3    H168696   5.097   6.545   4.323  0.7995  2.0304  2.9326
15735TIP3    H268697   4.955   6.582   4.360 -0.6273 -0.0553  0.0193
15736TIP3   OH268698   4.936   4.384   3.605  1.2276  0.4468  0.4294
15736TIP3    H168699   4.869   4.339   3.553 -0.3602  0.8127  2.0364
15736TIP3    H268700   4.927   4.476   3.581  2.6951  0.2850 -0.9322
15737TIP3   OH268701   3.700   1.236   1.863 -0.6453  0.2851  0.9951
15737TIP3    H168702   3.617   1.279   1.839 -0.8975  0.6036  2.3530
15737TIP3    H268703   3.703   1.243   1.958  0.1758 -1.1662  1.0922
15738TIP3   OH268704   3.840   5.959  11.525  0.4448 -0.0547  0.1025
15738TIP3    H168705   3.930   5.981  11.550  0.3331 -1.0185  1.4532
15738TIP3    H268706   3.786   6.015  11.580  0.2066 -1.6008  1.5347
15739TIP3   OH268707   5.468   5.579  13.341 -0.2303  0.2925  0.0057
15739TIP3    H168708   5.533   5.622  13.286  0.5208 -3.9188 -2.8544
15739TIP3    H268709   5.386   5.585  13.291 -0.7395  0.6650  0.8583
15740TIP3   OH268710   1.838   1.014   5.359  0.2018 -0.0518 -0.4267
15740TIP3    H168711   1.785   1.068   5.418 -0.1997 -1.2785  0.3700
15740TIP3    H268712   1.859   0.936   5.410  0.4544 -0.8283 -1.6677
15741TIP3   OH268713   3.877   3.641   3.200 -0.8184 -0.3698  0.3635
15741TIP3    H168714   3.808   3.688   3.247 -1.5112  0.6217 -1.5416
15741TIP3    H268715   3.910   3.577   3.263 -2.7829 -0.1972  1.6507
15742TIP3   OH268716   1.684   6.525   4.393 -0.2132 -0.0410  0.4164
15742TIP3    H168717   1.645   6.555   4.475 -0.0989  0.8295  0.1676
15742TIP3    H268718   1.740   6.452   4.418  0.5477  0.8070  1.2615
15743TIP3   OH268719   6.801   4.887   5.636  0.2601  0.0095  0.1879
15743TIP3    H168720   6.790   4.983   5.635 -0.7752 -0.0745  1.2222
15743TIP3    H268721   6.823   4.865   5.545 -1.0920  1.0662 -0.4391
15744TIP3   OH268722   1.265   4.872  14.121 -0.0068  0.0865 -0.0679
15744TIP3    H168723   1.298   4.802  14.178 -0.0757 -0.4352 -0.6613
15744TIP3    H268724   1.333   4.883  14.055 -1.4709 -1.8565 -2.0430
15745TIP3   OH268725   4.789   1.139  12.116  0.3598  0.6114 -0.0874
15745TIP3    H168726   4.862   1.083  12.088  1.1556  0.8377  1.4317
15745TIP3    H268727   4.798   1.218  12.062  0.4002  0.0840 -0.8691
15746TIP3   OH268728   6.648   1.485  12.341  0.0296  0.0460 -0.4166
15746TIP3    H168729   6.670   1.435  12.420 -0.2158  0.5502 -0.0163
15746TIP3    H268730   6.716   1.462  12.278  2.1150  2.0110  0.9747
15747TIP3   OH268731   5.781   6.047  15.461  0.0143  0.0686  0.3948
15747TIP3    H168732   5.858   6.104  15.454  0.1909 -0.0716  1.0656
15747TIP3    H268733   5.736   6.078  15.540 -0.5460  0.0556  0.0847
15748TIP3   OH268734   2.355   0.318  12.266  0.8601 -0.6709 -0.1541
15748TIP3    H168735   2.415   0.335  12.194  0.2752 -0.0666 -0.5112
15748TIP3    H268736   2.283   0.380  12.252  1.0360 -0.1130  1.2947
15749TIP3   OH268737   1.133   4.344   4.308  0.2995  0.3614  0.2779
15749TIP3    H168738   1.167   4.255   4.309  0.3643  0.3678 -0.6391
15749TIP3    H268739   1.057   4.341   4.366  0.6415 -0.1458  0.7065
15750TIP3   OH268740   3.187   2.508   3.483  0.8171 -0.1183 -0.2338
15750TIP3    H168741   3.122   2.501   3.414  1.1960 -1.4646 -0.4813
15750TIP3    H268742   3.262   2.458   3.451  0.9788 -0.8203  1.1586
15751TIP3   OH268743   1.541   4.044   4.846  0.3609 -0.1299  0.1498
15751TIP3    H168744   1.548   4.107   4.774  0.0084  1.1027  1.1720
15751TIP3    H268745   1.493   3.970   4.808 -1.1342  1.1083 -0.4922
15752TIP3   OH268746   2.452   3.632   6.074 -0.6531  0.5854 -0.0270
15752TIP3    H168747   2.427   3.541   6.058 -0.4964  0.2927  1.2233
15752TIP3    H268748   2.380   3.684   6.040 -1.0951 -0.0509 -0.0752
15753TIP3   OH268749   5.610   1.055  16.130 -0.0585 -0.3565 -0.3064
15753TIP3    H168750   5.562   1.013  16.059 -0.1426 -0.6215 -0.0978
15753TIP3    H268751   5.544   1.069  16.198 -0.0666  0.2661 -0.4378
15754TIP3   OH268752   1.298   0.589   1.936 -0.9219  0.0937  0.2281
15754TIP3    H168753   1.246   0.664   1.907 -0.1653  1.0329  1.2494
15754TIP3    H268754   1.349   0.622   2.009  3.0370 -0.0444 -2.1991
15755TIP3   OH268755   3.140   5.372   4.536 -0.7789  0.6987 -0.2013
15755TIP3    H168756   3.215   5.381   4.477  0.4044 -0.8685  0.9514
15755TIP3    H268757   3.100   5.288   4.513  0.6473 -0.7372  2.0935
15756TIP3   OH268758   5.482   5.504  12.921  0.0988 -0.4731  0.8816
15756TIP3    H168759   5.475   5.565  12.994 -1.2252  0.6928 -0.1523
15756TIP3    H268760   5.526   5.554  12.852 -1.3745 -0.4967 -0.1235
15757TIP3   OH268761   2.710   0.076  13.187  0.6595  0.0048  0.0455
15757TIP3    H168762   2.644   0.085  13.256  0.9293  2.6197  0.0893
15757TIP3    H268763   2.778   0.020  13.225 -1.3973 -2.6377  0.0415
15758TIP3   OH268764   0.746   1.349  13.837  0.2173  0.7613  0.6322
15758TIP3    H168765   0.796   1.319  13.913  0.2782  0.1481  0.3516
15758TIP3    H268766   0.803   1.333  13.763  0.4119  1.9400  0.5056
15759TIP3   OH268767   5.378   4.016  17.138 -0.1785  0.1956 -0.4465
15759TIP3    H168768   5.390   4.079  17.210 -1.7254  1.8359 -1.5296
15759TIP3    H268769   5.391   4.068  17.059  0.8473 -1.4289 -1.3899
15760TIP3   OH268770   6.275   1.580  15.950 -0.2645 -0.2442  0.3550
15760TIP3    H168771   6.311   1.523  16.018  0.7507  0.0290  0.0612
15760TIP3    H268772   6.225   1.520  15.894  0.4183 -0.7765  0.3010
15761TIP3   OH268773   4.572   0.840   5.860 -0.1385  0.2070 -0.4720
15761TIP3    H168774   4.574   0.881   5.947  1.0423 -0.8290  0.0070
15761TIP3    H268775   4.581   0.914   5.799  2.4327  0.6867  0.3750
15762TIP3   OH268776   1.524   1.599   4.147 -0.4005  0.4318 -0.0134
15762TIP3    H168777   1.582   1.675   4.146 -0.0979  0.2886  1.8905
15762TIP3    H268778   1.545   1.551   4.068  1.0918  1.1134 -0.0662
15763TIP3   OH268779   1.135   4.185  14.010  0.5579 -0.2267 -0.8851
15763TIP3    H168780   1.180   4.238  14.076 -0.4786  0.4480 -0.6828
15763TIP3    H268781   1.088   4.119  14.061 -0.2953  0.3348 -0.9208
15764TIP3   OH268782   0.896   5.472   1.330 -0.1257 -0.6639  0.3202
15764TIP3    H168783   0.802   5.480   1.344 -0.1693  0.6087 -0.5001
15764TIP3    H268784   0.919   5.550   1.279  1.0571 -1.8829 -1.0876
15765TIP3   OH268785   0.494   4.654  15.676  0.6345  0.1574  0.4223
15765TIP3    H168786   0.451   4.739  15.690  0.1781 -0.3998  2.9497
15765TIP3    H268787   0.537   4.636  15.760  3.4074 -0.6799 -1.0516
15766TIP3   OH268788   5.427   5.052  14.472 -0.0891 -0.0956 -0.5604
15766TIP3    H168789   5.478   5.133  14.467 -0.1264 -0.0417 -0.1040
15766TIP3    H268790   5.403   5.044  14.564  0.2537 -0.8349 -0.5235
15767TIP3   OH268791   4.151   1.092   2.291  1.1850  0.3190 -0.5768
15767TIP3    H168792   4.081   1.157   2.303  0.1799 -0.3274 -2.5946
15767TIP3    H268793   4.168   1.059   2.380  0.0624  1.6274  0.1663
15768TIP3   OH268794   5.014   0.773   2.678  0.2308 -0.0550 -0.5566
15768TIP3    H168795   5.108   0.774   2.698  0.1224 -3.4332  0.6902
15768TIP3    H268796   4.972   0.762   2.763 -1.2847  0.4647 -1.2075
15769TIP3   OH268797   0.375   5.437  12.729 -0.3749 -0.2521  0.0275
15769TIP3    H168798   0.407   5.521  12.762  1.5955 -0.6609 -0.7238
15769TIP3    H268799   0.361   5.451  12.636  0.7933 -0.9606 -0.2731
15770TIP3   OH268800   4.467   1.419  12.995 -0.3981 -0.5885 -0.2084
15770TIP3    H168801   4.485   1.344  13.052  1.4567  0.5025  0.7688
15770TIP3    H268802   4.454   1.381  12.908  1.1755 -2.0212  0.1233
15771TIP3   OH268803   2.544   4.345  10.766  0.0380  0.3224  0.3979
15771TIP3    H168804   2.456   4.318  10.743 -0.4011 -0.2015  2.4624
15771TIP3    H268805   2.590   4.354  10.682 -1.4674 -1.0847 -0.6345
15772TIP3   OH268806   2.979   3.765  10.701  0.4891 -0.5096 -0.8385
15772TIP3    H168807   3.066   3.788  10.669  0.0077  1.2879 -0.9652
15772TIP3    H268808   2.935   3.726  10.625  0.2270  1.3170 -1.6787
15773TIP3   OH268809   1.573   6.301  14.547  0.0238  0.3876 -0.3454
15773TIP3    H168810   1.629   6.253  14.608  1.2441  1.0707 -0.8711
15773TIP3    H268811   1.559   6.386  14.590  0.3814  0.6473 -0.7355
15774TIP3   OH268812   2.133   5.316  16.445  0.3401 -0.5556 -0.1398
15774TIP3    H168813   2.221   5.343  16.469  0.3735 -0.0758 -0.7808
15774TIP3    H268814   2.077   5.389  16.471  0.2578 -0.4456 -0.6161
15775TIP3   OH268815   4.551   3.867  16.127  0.7899  0.4737  0.0570
15775TIP3    H168816   4.589   3.852  16.213  2.3034 -0.3665 -0.7068
15775TIP3    H268817   4.459   3.886  16.144  1.2487  1.2528  1.9079
15776TIP3   OH268818   4.455   3.824   0.480 -0.4789  0.5653  0.0863
15776TIP3    H168819   4.428   3.837   0.389 -2.7462  0.0238  0.6074
15776TIP3    H268820   4.424   3.903   0.526  0.7335  0.8799  0.3892
15777TIP3   OH268821   0.765   5.753   3.770  0.3993  0.4400  0.6097
15777TIP3    H168822   0.737   5.738   3.860  0.5198 -0.0114  0.5753
15777TIP3    H268823   0.723   5.835   3.744 -0.3642  0.0993  0.7685
15778TIP3   OH268824   5.484   3.479   3.283  0.0281  0.5333 -0.4096
15778TIP3    H168825   5.455   3.548   3.343  0.0204 -0.5826  0.9190
15778TIP3    H268826   5.484   3.399   3.336  0.6272 -0.3918 -1.7407
15779TIP3   OH268827   6.674   3.717   5.631 -0.0917 -0.6206 -0.4625
15779TIP3    H168828   6.665   3.789   5.568  0.0072  1.0400  1.3023
15779TIP3    H268829   6.594   3.722   5.683  0.8549 -0.3999  1.0160
15780TIP3   OH268830   2.674   0.054   0.097  0.5021  0.3018  0.0920
15780TIP3    H168831   2.708   0.014   0.177  3.8924 -0.2978 -1.4951
15780TIP3    H268832   2.589   0.012   0.085  0.0602  0.0729  3.0660
15781TIP3   OH268833   2.395   3.491  12.035  0.2644  0.3833 -0.0621
15781TIP3    H168834   2.347   3.526  12.110 -0.7860 -0.5021 -0.2949
15781TIP3    H268835   2.366   3.544  11.961  0.6322  0.6849  0.0085
15782TIP3   OH268836   0.783   5.696  12.202 -0.4030 -0.3169  0.3283
15782TIP3    H168837   0.715   5.735  12.257 -0.8043 -0.9570  0.3012
15782TIP3    H268838   0.741   5.618  12.164 -0.3135  0.3646 -1.2729
15783TIP3   OH268839   4.622   6.806  10.527  0.2006 -0.0593 -0.5202
15783TIP3    H168840   4.701   6.838  10.570 -1.4432 -0.0568  2.9229
15783TIP3    H268841   4.632   6.711  10.526 -0.0469 -0.1247  0.7498
15784TIP3   OH268842   1.384   2.946  14.863 -0.6631  0.1129  0.0217
15784TIP3    H168843   1.298   2.923  14.827  0.0425 -2.1829 -0.3029
15784TIP3    H268844   1.398   2.884  14.934  0.7250  0.4786  0.0888
15785TIP3   OH268845   5.752   5.662  11.828  0.2263  0.0136 -0.4657
15785TIP3    H168846   5.741   5.682  11.735  1.5381  1.4992 -0.3547
15785TIP3    H268847   5.828   5.603  11.830  0.7931  0.7367 -0.2895
15786TIP3   OH268848   0.521   5.964  12.771 -0.4394 -0.1752 -0.4207
15786TIP3    H168849   0.591   6.020  12.736 -0.4282 -1.5839 -2.9028
15786TIP3    H268850   0.553   5.938  12.858  0.0577  2.6565  0.3639
15787TIP3   OH268851   4.650   0.004   3.798 -0.1728  0.6188 -0.4392
15787TIP3    H168852   4.556  -0.010   3.796 -0.4223  1.7580  0.9850
15787TIP3    H268853   4.663   0.087   3.752 -0.0396  1.1461  0.5317
15788TIP3   OH268854   1.222   1.352  16.704  0.2836 -0.6991  0.2753
15788TIP3    H168855   1.186   1.400  16.630  0.1495  0.0584  0.8247
15788TIP3    H268856   1.210   1.410  16.779  2.3717 -0.5364  0.5482
15789TIP3   OH268857   5.202   2.174  16.718 -0.0615 -0.9896 -0.0487
15789TIP3    H168858   5.193   2.266  16.693  4.3302 -0.8534 -2.1205
15789TIP3    H268859   5.195   2.173  16.814 -4.6087  0.5978 -0.1394
15790TIP3   OH268860   6.587   3.542  15.631 -0.6925  0.2634  0.5146
15790TIP3    H168861   6.595   3.625  15.678 -1.9346  1.1920 -0.8302
15790TIP3    H268862   6.674   3.503  15.635  0.8786  3.2319 -1.7053
15791TIP3   OH268863   4.943   4.267   3.859 -0.0714  0.0758  0.8422
15791TIP3    H168864   4.922   4.313   3.779 -0.8934 -2.1472 -0.3154
15791TIP3    H268865   5.039   4.265   3.863 -0.0234 -0.0934 -0.2897
15792TIP3   OH268866   3.951   2.539  12.587  0.2953  1.0604  0.1941
15792TIP3    H168867   3.982   2.450  12.572 -1.5684  0.5324 -0.7967
15792TIP3    H268868   3.977   2.587  12.509 -1.1858  0.6339 -0.6057
15793TIP3   OH268869   5.203   2.437  16.650  0.1599 -0.5490  0.5098
15793TIP3    H168870   5.174   2.466  16.564  1.4834  1.1215  0.5794
15793TIP3    H268871   5.224   2.518  16.697  1.1794 -1.5000  1.7737
15794TIP3   OH268872   3.747   2.971   2.457 -0.2619  0.0836  0.3757
15794TIP3    H168873   3.656   2.944   2.465 -0.6411  0.9489 -0.8241
15794TIP3    H268874   3.757   3.044   2.518 -0.2449 -0.2878  0.8237
15795TIP3   OH268875   4.428   1.790  14.172  0.7589 -0.6725  0.1048
15795TIP3    H168876   4.338   1.778  14.205  0.8314  0.5063  0.7838
15795TIP3    H268877   4.474   1.710  14.200  0.6957  0.0584  2.5405
15796TIP3   OH268878   5.523   0.148  15.972  0.1409  0.1628  0.0636
15796TIP3    H168879   5.445   0.202  15.981 -0.4755 -0.5946 -0.5531
15796TIP3    H268880   5.572   0.162  16.053 -2.3606 -2.0383  2.1527
15797TIP3   OH268881   3.683   6.163   1.159 -0.7414 -0.1890 -0.3786
15797TIP3    H168882   3.730   6.081   1.142 -0.0695  0.5518 -2.3016
15797TIP3    H268883   3.596   6.149   1.122 -0.8407 -0.2465 -0.1284
15798TIP3   OH268884   3.104   2.243   4.991  0.1534 -0.3084 -0.2027
15798TIP3    H168885   3.067   2.304   5.056  0.8888  1.1889 -1.1213
15798TIP3    H268886   3.120   2.298   4.914  0.1506 -1.8534 -1.3481
15799TIP3   OH268887   3.268   2.006   4.467 -0.2310  0.1305 -0.0170
15799TIP3    H168888   3.343   1.948   4.451 -0.0504  0.5766 -0.8607
15799TIP3    H268889   3.252   1.999   4.561 -0.1847 -1.2467 -0.0891
15800TIP3   OH268890   3.534   0.736   2.652 -0.1893 -0.6213 -0.3556
15800TIP3    H168891   3.574   0.655   2.621  2.3339 -0.0733  1.1413
15800TIP3    H268892   3.581   0.805   2.604  0.7652  0.0452  1.4179
15801TIP3   OH268893   3.797   6.601   2.199  0.1342  0.4371  0.1711
15801TIP3    H168894   3.771   6.569   2.112  0.7451  1.7108 -0.5185
15801TIP3    H268895   3.717   6.637   2.237 -0.0677  0.1823 -0.0125
15802TIP3   OH268896   5.972   3.784   0.251 -0.6207  0.8789  0.1067
15802TIP3    H168897   5.928   3.701   0.230  0.0013  1.0928 -2.3198
15802TIP3    H268898   5.904   3.850   0.240 -0.4088  0.9464 -0.8460
15803TIP3   OH268899   1.555   2.491   4.359 -0.2079  0.0263  0.9914
15803TIP3    H168900   1.647   2.512   4.346 -0.3858  0.0617 -0.4683
15803TIP3    H268901   1.524   2.554   4.424  1.0839 -0.8219  2.4711
15804TIP3   OH268902   1.135   2.361  13.598  0.0911  0.2038  0.4059
15804TIP3    H168903   1.135   2.378  13.504  0.1628 -0.3143  0.3103
15804TIP3    H268904   1.054   2.312  13.613 -0.3455  1.0109  0.7496
15805TIP3   OH268905   4.049   4.879   3.481 -0.4917 -0.4336  0.2922
15805TIP3    H168906   4.075   4.858   3.570 -0.9694  0.7504  0.7257
15805TIP3    H268907   4.131   4.899   3.436 -0.2916 -0.5779  0.5865
15806TIP3   OH268908   5.644   3.175   4.100  0.2793  0.1991 -0.8134
15806TIP3    H168909   5.606   3.127   4.026 -0.1608  2.2757 -2.0163
15806TIP3    H268910   5.707   3.235   4.060  1.5073  0.0032  0.7267
15807TIP3   OH268911   5.068   5.022  16.022 -0.2715  0.2740 -0.0102
15807TIP3    H168912   5.068   5.029  16.117 -2.4031  0.0432  0.0554
15807TIP3    H268913   5.014   4.945  16.003 -0.6219  0.8254 -1.4204
15808TIP3   OH268914   0.094   4.846  11.081 -0.2259 -0.2158  0.1398
15808TIP3    H168915   0.123   4.863  10.991 -0.5374 -2.1609 -0.3865
15808TIP3    H268916   0.136   4.914  11.133  1.6919 -0.2868 -1.1944
15809TIP3   OH268917   5.788   1.564  12.245  0.1866  0.1820 -0.1027
15809TIP3    H168918   5.712   1.622  12.243  0.3796  0.4420  0.1002
15809TIP3    H268919   5.812   1.554  12.152 -1.0958 -1.2378 -0.3120
15810TIP3   OH268920   1.561   4.795  12.979 -0.0462 -0.4397  0.1738
15810TIP3    H168921   1.491   4.819  13.040  1.0800 -0.1940  1.4178
15810TIP3    H268922   1.594   4.879  12.947  0.4640 -0.5036  0.5250
15811TIP3   OH268923   5.950   0.462   5.430 -0.1433 -0.6490  0.1346
15811TIP3    H168924   5.936   0.375   5.393 -2.3983 -1.1913  2.0004
15811TIP3    H268925   6.037   0.458   5.469  1.1247 -0.9448 -2.5677
15812TIP3   OH268926   1.502   0.619  13.349 -0.6714 -0.1424  0.3712
15812TIP3    H168927   1.431   0.556  13.365 -1.2507  0.6542  1.0310
15812TIP3    H268928   1.531   0.644  13.437  2.4103 -2.5529  0.2259
15813TIP3   OH268929   6.813   4.978   0.140 -0.0499  0.5810 -0.2041
15813TIP3    H168930   6.909   4.977   0.149 -0.0164  0.6581 -0.5569
15813TIP3    H268931   6.797   5.012   0.052 -0.3111 -1.9898 -1.2410
15814TIP3   OH268932   3.443   6.576   3.777 -0.2876  0.0288  0.3498
15814TIP3    H168933   3.504   6.625   3.723 -0.8620  1.0077  0.5608
15814TIP3    H268934   3.467   6.484   3.765  1.2350  0.3990  0.4636
15815TIP3   OH268935   6.613   1.885  13.174 -1.0109 -0.3288 -0.1764
15815TIP3    H168936   6.559   1.824  13.224 -0.5604  0.5002  1.3891
15815TIP3    H268937   6.564   1.967  13.175  0.1090  0.3584  1.0261
15816TIP3   OH268938   0.838   2.265   1.711 -0.5455 -0.3748 -0.1132
15816TIP3    H168939   0.811   2.344   1.758 -1.7067 -1.0973  0.4915
15816TIP3    H268940   0.845   2.198   1.779  0.7885 -0.7186 -0.5656
15817TIP3   OH268941   6.567   1.178   2.295 -0.6065  0.2310  0.4002
15817TIP3    H168942   6.526   1.103   2.338  1.3639 -0.5219  1.0798
15817TIP3    H268943   6.646   1.143   2.255 -1.0600  1.4346 -1.7078
15818TIP3   OH268944   6.260   5.461   1.102 -0.8815 -0.5584  0.1443
15818TIP3    H168945   6.174   5.480   1.064 -0.0876  2.3381 -0.4961
15818TIP3    H268946   6.301   5.401   1.040 -1.7512 -0.4366 -0.5682
15819TIP3   OH268947   1.448   0.511   0.229 -0.3343 -0.2530  0.3608
15819TIP3    H168948   1.478   0.599   0.206 -1.1496 -0.3999 -1.3815
15819TIP3    H268949   1.375   0.525   0.289  0.1420  0.2035  0.8557
15820TIP3   OH268950   3.517   2.186   4.363 -0.1939  0.2248 -0.0918
15820TIP3    H168951   3.585   2.126   4.333  0.3605  0.9359 -0.2890
15820TIP3    H268952   3.439   2.159   4.315  0.2663  0.2381 -0.8720
15821TIP3   OH268953   5.097   0.462   1.102 -0.4509 -0.0498  0.0928
15821TIP3    H168954   5.141   0.508   1.032  2.5568 -0.9043  1.2412
15821TIP3    H268955   5.012   0.505   1.111  0.9220  3.1314 -0.9427
15822TIP3   OH268956   2.398   0.538   5.893  0.5242 -0.1003  0.2277
15822TIP3    H168957   2.318   0.529   5.841  0.4144 -1.2223  0.5747
15822TIP3    H268958   2.377   0.606   5.957 -0.1041 -0.3013  0.2390
15823TIP3   OH268959   2.120   3.544  12.136 -0.4430  0.9599  0.1232
15823TIP3    H168960   2.106   3.593  12.055 -0.2993  0.8387  0.0233
15823TIP3    H268961   2.115   3.452  12.111 -0.1854  0.9197  0.2100
15824TIP3   OH268962   3.306   0.515   0.530  0.1625 -0.0975  0.4142
15824TIP3    H168963   3.393   0.511   0.491 -0.2081 -1.9985 -0.3133
15824TIP3    H268964   3.287   0.609   0.535 -0.0849  0.4410 -4.8021
15825TIP3   OH268965   4.375   3.930  14.234 -0.0186 -0.4524 -0.2232
15825TIP3    H168966   4.423   3.866  14.181  0.8749  0.1985 -0.2337
15825TIP3    H268967   4.383   3.898  14.324  0.0697 -0.5731 -0.2734
15826TIP3   OH268968   5.671   6.267  14.692  0.2346  0.2656  0.5263
15826TIP3    H168969   5.634   6.186  14.727 -1.0639 -0.6158 -2.5494
15826TIP3    H268970   5.736   6.294  14.757 -0.6836 -2.1505  2.5958
15827TIP3   OH268971   1.191   6.661  13.500  0.4622  0.1915 -0.3683
15827TIP3    H168972   1.270   6.681  13.450 -0.3893  0.9609 -1.4377
15827TIP3    H268973   1.163   6.576  13.467 -0.5852  1.0844 -1.8847
15828TIP3   OH268974   4.396   5.706   1.659  0.5147  0.1647  0.0977
15828TIP3    H168975   4.414   5.792   1.620  0.0303  0.2095 -0.0328
15828TIP3    H268976   4.477   5.656   1.645  0.0195 -0.1670 -1.9178
15829TIP3   OH268977   1.360   4.245   1.183 -0.2962  0.2878  0.1442
15829TIP3    H168978   1.398   4.158   1.186 -0.8359  0.0045 -0.8816
15829TIP3    H268979   1.300   4.249   1.258 -0.8552 -0.5089 -0.2504
15830TIP3   OH268980   1.742   5.409  15.875  0.2324  0.2455  0.2856
15830TIP3    H168981   1.689   5.344  15.828  1.8023 -0.3010 -0.8360
15830TIP3    H268982   1.702   5.414  15.962 -1.1640 -0.7041 -0.2629
15831TIP3   OH268983   6.800   4.435  12.929 -0.4520 -0.4711  0.2765
15831TIP3    H168984   6.820   4.344  12.908 -0.3519 -0.1062 -1.3860
15831TIP3    H268985   6.803   4.480  12.844 -1.6320  0.8675  0.9072
15832TIP3   OH268986   3.736   3.634   2.308  0.2083 -0.5235 -0.1783
15832TIP3    H168987   3.667   3.570   2.291  0.4719 -1.1672  1.0337
15832TIP3    H268988   3.773   3.607   2.392  0.4872  1.0855  0.2511
15833TIP3   OH268989   6.128   4.595  11.993 -0.4269  0.0779 -0.3353
15833TIP3    H168990   6.214   4.635  11.977 -0.3718 -0.4050 -1.3125
15833TIP3    H268991   6.136   4.554  12.079  1.4250 -2.7585 -1.7172
15834TIP3   OH268992   0.628   1.271  16.073  0.2659  0.5726 -0.1490
15834TIP3    H168993   0.571   1.209  16.026 -2.1592 -0.2976  3.5304
15834TIP3    H268994   0.591   1.357  16.053 -0.8384  0.2107  0.2670
15835TIP3   OH268995   5.032   0.807  11.866 -0.4788  0.4886 -0.1949
15835TIP3    H168996   5.025   0.868  11.939  0.0906  0.3400 -0.0124
15835TIP3    H268997   5.014   0.860  11.788 -0.0520  0.8736 -0.0321
15836TIP3   OH268998   0.146   4.164   4.457  0.0634 -0.2515 -0.1007
15836TIP3    H168999   0.174   4.137   4.369 -1.5153 -0.0081 -0.7225
15836TIP3    H269000   0.144   4.083   4.508 -0.9541 -0.7479 -0.8823
15837TIP3   OH269001   6.746   3.723  12.115  0.1602 -0.1594  0.4509
15837TIP3    H169002   6.759   3.645  12.169  0.5675  0.1351  0.7846
15837TIP3    H269003   6.657   3.714  12.081  0.3024 -0.8981  0.2692
15838TIP3   OH269004   5.396   5.095   3.108 -0.2577 -0.1806 -0.4557
15838TIP3    H169005   5.489   5.080   3.125 -0.4119  1.0223  1.8625
15838TIP3    H269006   5.374   5.033   3.038  1.7118 -2.2053  0.5924
15839TIP3   OH269007   6.830   5.563  11.766 -0.3053 -0.0542 -0.2265
15839TIP3    H169008   6.855   5.651  11.738 -2.1812  0.4697 -0.4016
15839TIP3    H269009   6.781   5.577  11.847 -1.5263 -0.8293 -0.8126
15840TIP3   OH269010   1.750   6.221   1.189  0.1090 -0.1750  0.3106
15840TIP3    H169011   1.664   6.178   1.185  0.2854 -0.4207 -1.3299
15840TIP3    H269012   1.805   6.160   1.238 -0.3251 -0.6065  0.2679
15841TIP3   OH269013   6.517   4.113  13.884  0.3368 -0.1987 -0.0260
15841TIP3    H169014   6.480   4.120  13.972 -1.9607  0.4789 -0.9941
15841TIP3    H269015   6.498   4.023  13.857 -1.0479  0.2738 -0.6847
15842TIP3   OH269016   5.945   3.328   3.417 -0.6440 -0.2279 -0.3772
15842TIP3    H169017   5.854   3.357   3.410 -0.2892  0.7824 -1.0225
15842TIP3    H269018   5.989   3.371   3.344  1.6031  4.1102  3.0788
15843TIP3   OH269019   2.680   4.304  15.089  0.5941  0.2928 -0.0523
15843TIP3    H169020   2.734   4.301  15.011  0.0718 -0.6001 -0.3951
15843TIP3    H269021   2.616   4.233  15.077  0.8429 -0.2153  1.4228
15844TIP3   OH269022   0.657   5.091  11.770 -0.1126  0.1086  0.1037
15844TIP3    H169023   0.744   5.132  11.774  0.5795 -1.2937 -0.0262
15844TIP3    H269024   0.658   5.041  11.689 -1.2517  0.4636 -0.1568
15845TIP3   OH269025   3.664   0.654  13.366  0.6690 -0.5003 -0.2034
15845TIP3    H169026   3.709   0.676  13.448  0.6757 -0.8100 -0.1224
15845TIP3    H269027   3.713   0.701  13.298  0.4068  0.0945  0.0155
15846TIP3   OH269028   0.486   4.855   2.820  0.5144 -0.0379 -0.2205
15846TIP3    H169029   0.430   4.826   2.748  2.3865 -0.6870 -1.4915
15846TIP3    H269030   0.434   4.839   2.899 -0.0161 -3.4031 -1.1111
15847TIP3   OH269031   4.550   0.878  15.028  0.5215  0.1159 -0.0956
15847TIP3    H169032   4.565   0.784  15.017  0.1566 -0.1206  1.2580
15847TIP3    H269033   4.526   0.909  14.940 -2.1800 -1.6049 -0.0969
15848TIP3   OH269034   1.492   4.750  16.709  0.7933 -0.6896 -0.2547
15848TIP3    H169035   1.424   4.683  16.710 -0.2470  0.3388  0.7510
15848TIP3    H269036   1.478   4.798  16.627 -1.0326  0.7864  0.8533
15849TIP3   OH269037   1.813   2.016  13.169 -0.0678 -0.6262 -0.1826
15849TIP3    H169038   1.786   2.106  13.188 -2.3909 -1.4921  0.9578
15849TIP3    H269039   1.775   1.997  13.083 -1.6129 -1.2411  0.6070
15850TIP3   OH269040   6.346   0.701   4.841 -0.6050  0.1459 -0.2519
15850TIP3    H169041   6.316   0.792   4.834  0.6438  0.5141 -1.2229
15850TIP3    H269042   6.299   0.666   4.917 -0.4347  1.8666  0.7016
15851TIP3   OH269043   3.036   4.858  15.983 -0.3110 -0.2970  0.0853
15851TIP3    H169044   2.944   4.883  15.986 -0.4664 -0.7364 -0.7607
15851TIP3    H269045   3.062   4.871  15.891  0.4804 -0.1477  0.3188
15852TIP3   OH269046   4.176   1.970   3.139 -0.0097 -0.3456 -0.3038
15852TIP3    H169047   4.218   1.930   3.063 -1.3137  0.1955 -1.3486
15852TIP3    H269048   4.202   1.916   3.213 -0.2721 -2.0540 -1.4197
15853TIP3   OH269049   3.686   3.889   2.369  0.0471  0.4515 -0.3951
15853TIP3    H169050   3.701   3.795   2.354 -0.2853  0.0668  1.3758
15853TIP3    H269051   3.771   3.930   2.354  0.5471 -0.3447  0.1779
15854TIP3   OH269052   5.246   2.625  15.935  0.0501 -0.7779 -0.4314
15854TIP3    H169053   5.189   2.685  15.885  0.3940  0.2512  0.3681
15854TIP3    H269054   5.296   2.683  15.993  0.6633 -1.8272  0.1120
15855TIP3   OH269055   3.353   0.172   4.287 -0.5072  0.1470  0.3620
15855TIP3    H169056   3.404   0.252   4.298  0.8469 -0.9382  2.8170
15855TIP3    H269057   3.392   0.129   4.211  0.0633  0.8628  0.2391
15856TIP3   OH269058   4.633   2.713   2.792  1.0399  0.5477  0.5971
15856TIP3    H169059   4.640   2.670   2.706  1.1077  2.6964 -0.5351
15856TIP3    H269060   4.577   2.788   2.777 -2.2607 -1.0739  3.3685
15857TIP3   OH269061   6.100   2.247   1.837 -0.2223  0.7883  0.0792
15857TIP3    H169062   6.184   2.202   1.828 -1.1199 -0.5691 -2.4757
15857TIP3    H269063   6.120   2.339   1.817  0.6233  0.4556 -0.6438
15858TIP3   OH269064   3.258   2.849   5.982  0.3885 -0.3935  0.2598
15858TIP3    H169065   3.254   2.887   6.070 -0.6371  0.7934 -0.2720
15858TIP3    H269066   3.204   2.770   5.988  0.3853 -0.3622  0.7067
15859TIP3   OH269067   3.709   6.702   1.482  1.0641  0.0959  0.0361
15859TIP3    H169068   3.671   6.616   1.498 -1.4441  1.5698  3.1374
15859TIP3    H269069   3.773   6.713   1.551  0.9169  0.9300  0.0531
15860TIP3   OH269070   4.872   5.202  11.083 -0.2458  0.2175  0.1540
15860TIP3    H169071   4.848   5.122  11.130  0.9175 -0.2698 -0.0310
15860TIP3    H269072   4.823   5.199  11.001  1.3506 -1.4065 -0.8041
15861TIP3   OH269073   4.059   2.421   0.848 -0.3557  0.2162 -0.0776
15861TIP3    H169074   3.992   2.360   0.814  1.3350 -2.5128  1.1395
15861TIP3    H269075   4.016   2.464   0.921 -0.9234 -1.3043  0.5353
15862TIP3   OH269076   2.313   1.809  15.239  0.1896 -0.2741 -0.2240
15862TIP3    H169077   2.343   1.718  15.238  0.0363 -0.4718  2.8983
15862TIP3    H269078   2.394   1.861  15.241  0.2770 -0.2743 -2.0152
15863TIP3   OH269079   1.157   6.246   2.703  0.5721 -0.3742 -0.0161
15863TIP3    H169080   1.071   6.288   2.706  1.6658  2.0426  2.8724
15863TIP3    H269081   1.143   6.160   2.743 -0.5721 -0.2064 -0.0291
15864TIP3   OH269082   3.686   0.340   5.544  0.6446  0.7287 -0.2510
15864TIP3    H169083   3.705   0.434   5.536  1.9277  0.9819  3.6146
15864TIP3    H269084   3.771   0.300   5.562 -0.0781 -0.9930 -0.4675
15865TIP3   OH269085   6.177   5.688   4.796  0.1816 -0.3267  0.3062
15865TIP3    H169086   6.192   5.615   4.856  2.2403 -1.2679 -1.2300
15865TIP3    H269087   6.202   5.654   4.710  1.8778  2.3578 -0.3782
15866TIP3   OH269088   3.839   1.192  16.425 -0.3830  0.3064 -0.2350
15866TIP3    H169089   3.761   1.140  16.446  1.3111 -2.6942 -0.7546
15866TIP3    H269090   3.902   1.128  16.393  1.8069  2.8262 -1.3092
15867TIP3   OH269091   0.868   4.397   0.052 -0.3934  0.5253  0.4968
15867TIP3    H169092   0.886   4.304   0.069  0.3032  0.7359  0.9602
15867TIP3    H269093   0.865   4.436   0.140  0.1472  1.0902  0.2660
15868TIP3   OH269094   6.014   5.440   4.875 -0.4921 -0.0149  0.9101
15868TIP3    H169095   6.036   5.392   4.794 -0.8904 -0.6059  1.1425
15868TIP3    H269096   6.089   5.426   4.932 -0.4026  0.0347  0.8063
15869TIP3   OH269097   4.876   6.105   5.460  0.4464  0.2848  0.6493
15869TIP3    H169098   4.874   6.050   5.539 -0.5591 -1.9427 -0.8436
15869TIP3    H269099   4.784   6.130   5.446  0.7146  1.2824  0.5466
15870TIP3   OH269100   2.000   2.735  14.568  0.0482  0.1482  0.3315
15870TIP3    H169101   2.091   2.748  14.541 -0.0754  1.0743  0.3361
15870TIP3    H269102   1.956   2.816  14.544 -1.0805 -0.7647 -0.8644
15871TIP3   OH269103   6.519   6.570   1.190  0.1036  0.2010 -0.0447
15871TIP3    H169104   6.518   6.546   1.097 -1.6250 -1.3788  0.3193
15871TIP3    H269105   6.607   6.546   1.219  0.1576 -0.7843 -0.9419
15872TIP3   OH269106   6.614   2.429   3.107 -0.2967  0.1008  0.3388
15872TIP3    H169107   6.620   2.398   3.017  2.3413  1.2705  0.0001
15872TIP3    H269108   6.627   2.351   3.160  0.2433 -0.2941 -0.3515
15873TIP3   OH269109   4.915   2.411   3.948 -0.3210 -0.5075  0.0133
15873TIP3    H169110   4.927   2.333   4.002  0.0054 -0.4723 -0.0046
15873TIP3    H269111   4.950   2.482   4.001 -0.1568 -0.4479 -0.1736
15874TIP3   OH269112   5.989   1.374  13.502 -0.0605  0.2052  0.3665
15874TIP3    H169113   5.920   1.310  13.487 -0.2526  0.5236 -0.1296
15874TIP3    H269114   5.971   1.409  13.590 -0.6623  0.4486  0.1510
15875TIP3   OH269115   5.332   3.068  13.443  0.0165  0.3257  0.4655
15875TIP3    H169116   5.304   3.074  13.534 -0.9202  0.6637  0.1615
15875TIP3    H269117   5.379   3.150  13.427  1.3727 -0.3068  1.0169
15876TIP3   OH269118   1.173   2.173  14.043 -0.3172  0.3248  0.4409
15876TIP3    H169119   1.099   2.200  14.098 -1.7942 -1.0651 -0.7780
15876TIP3    H269120   1.217   2.105  14.094 -1.6470 -0.9217 -0.0179
15877TIP3   OH269121   0.328   1.657  12.646  0.1533 -0.4745 -0.5122
15877TIP3    H169122   0.271   1.727  12.678  1.0813  0.1641 -0.2181
15877TIP3    H269123   0.289   1.577  12.679 -0.1918  0.0050  0.2621
15878TIP3   OH269124   4.299   6.113  17.073 -0.1992 -0.5033 -0.2894
15878TIP3    H169125   4.210   6.146  17.087  0.1421  0.9895 -1.4092
15878TIP3    H269126   4.293   6.020  17.092 -1.7516 -0.2359  0.7156
15879TIP3   OH269127   6.409   2.648   2.223  0.0403 -0.5017 -0.3396
15879TIP3    H169128   6.406   2.576   2.286  1.7208 -0.6439 -0.3763
15879TIP3    H269129   6.359   2.718   2.265  1.8227 -0.2871  1.5943
15880TIP3   OH269130   1.515   2.455  13.187  0.0256  0.0367  0.4951
15880TIP3    H169131   1.525   2.361  13.197  0.1223  0.1683  1.9837
15880TIP3    H269132   1.450   2.480  13.252 -0.1655  0.9714 -0.0265
15881TIP3   OH269133   1.059   2.753  16.375 -0.2360  0.2957 -0.2073
15881TIP3    H169134   0.993   2.701  16.328 -3.0243  2.2265  1.2762
15881TIP3    H269135   1.009   2.822  16.418  2.6542  1.1407  2.1407
15882TIP3   OH269136   3.555   3.908  11.806 -0.2549 -0.2941  0.3274
15882TIP3    H169137   3.543   3.848  11.732  1.0073 -0.0267 -0.1155
15882TIP3    H269138   3.540   3.995  11.769 -1.9584 -0.2977  0.9416
15883TIP3   OH269139   3.079   5.465  16.229 -0.1927 -0.5332 -0.2038
15883TIP3    H169140   3.045   5.452  16.317  0.1745 -2.2115 -0.2817
15883TIP3    H269141   3.012   5.516  16.185  1.0675  3.3977  1.9505
15884TIP3   OH269142   6.017   6.116   5.687  0.0023 -0.9412 -0.6742
15884TIP3    H169143   6.026   6.021   5.683  1.8552 -0.7690 -1.8673
15884TIP3    H269144   6.096   6.145   5.732  0.9079  0.1706 -2.8331
15885TIP3   OH269145   2.251   1.654   0.009  0.2304 -0.1207  0.3116
15885TIP3    H169146   2.165   1.695  -0.005 -1.0157 -2.1153  1.6196
15885TIP3    H269147   2.300   1.673  -0.071 -1.1746  1.6388 -0.1893
15886TIP3   OH269148   5.189   2.185  16.996 -0.0770  0.5082 -0.6131
15886TIP3    H169149   5.210   2.151  17.084  1.5773 -1.4784 -1.6654
15886TIP3    H269150   5.093   2.189  16.994 -0.1515  0.6248  1.2806
15887TIP3   OH269151   2.488   4.128  12.113  0.1682 -0.2619 -0.1510
15887TIP3    H169152   2.554   4.177  12.066  0.9416 -1.6077 -0.5305
15887TIP3    H269153   2.424   4.103  12.046 -1.6363  2.2996  0.4344
15888TIP3   OH269154   5.787   4.147  12.031  0.2248 -0.3836 -0.1722
15888TIP3    H169155   5.865   4.195  12.004  1.2416 -1.4533  0.7471
15888TIP3    H269156   5.821   4.072  12.079 -1.3688 -1.1204 -0.1398
15889TIP3   OH269157   5.817   2.491   5.132 -0.0979 -0.1252 -0.0848
15889TIP3    H169158   5.839   2.584   5.128  1.8717 -0.4993  0.9529
15889TIP3    H269159   5.850   2.455   5.050 -1.5961  0.1876 -0.8626
15890TIP3   OH269160   2.951   6.383  14.985 -0.3618  0.5631  0.5452
15890TIP3    H169161   3.033   6.414  15.023  0.1989  0.6691 -0.7047
15890TIP3    H269162   2.975   6.351  14.898 -1.8236  1.7300 -0.3362
15891TIP3   OH269163   5.887   6.405  15.408  0.0463 -0.1003  0.0880
15891TIP3    H169164   5.907   6.496  15.429  0.2852 -0.2407  0.4901
15891TIP3    H269165   5.880   6.362  15.493 -0.8960 -0.2877 -0.0735
15892TIP3   OH269166   4.497   0.605  17.173 -0.1745  0.5433 -0.3977
15892TIP3    H169167   4.533   0.537  17.117  0.8140  0.5285  0.2329
15892TIP3    H269168   4.415   0.568  17.206 -0.2892  0.1839 -1.0746
15893TIP3   OH269169   1.943   0.578  11.657 -0.1188 -0.8004 -0.1392
15893TIP3    H169170   1.876   0.510  11.651  0.1806 -0.9760 -2.0050
15893TIP3    H269171   2.026   0.529  11.661  0.0597 -0.5741 -0.8870
15894TIP3   OH269172   3.884   5.372   0.099  0.2561 -0.1972 -0.3134
15894TIP3    H169173   3.789   5.388   0.094  0.1375 -0.5902  0.6356
15894TIP3    H269174   3.897   5.328   0.183  1.1949 -0.7878 -0.7565
15895TIP3   OH269175   2.214   2.291  15.623 -0.4359  0.2795 -0.4982
15895TIP3    H169176   2.156   2.366  15.638 -0.9212  0.4529 -2.8222
15895TIP3    H269177   2.164   2.215  15.652 -0.0288  0.7739  1.6676
15896TIP3   OH269178   5.861   4.464   3.255 -0.0936  0.2715 -0.2959
15896TIP3    H169179   5.799   4.392   3.244  1.4360 -0.9651 -1.3272
15896TIP3    H269180   5.820   4.522   3.319 -1.9460 -0.8710 -0.3824
15897TIP3   OH269181   2.553   4.865  13.697 -0.0738 -0.2394  0.7170
15897TIP3    H169182   2.570   4.780  13.656  0.7285 -1.0647  2.6040
15897TIP3    H269183   2.629   4.918  13.674  0.3901 -0.7073  1.1320
15898TIP3   OH269184   3.086   6.153  16.818 -0.4289  0.0414  0.2760
15898TIP3    H169185   3.004   6.153  16.769  0.2490 -1.7657 -0.9612
15898TIP3    H269186   3.060   6.146  16.910 -1.6834  1.8220  0.0843
15899TIP3   OH269187   5.705   3.196  14.111  0.2891  0.0809 -0.6146
15899TIP3    H169188   5.654   3.274  14.087 -0.0571  0.0218 -0.0911
15899TIP3    H269189   5.752   3.222  14.190  1.0781  0.1331 -1.0953
15900TIP3   OH269190   1.828   1.714  10.648  0.4282  0.1826 -0.9074
15900TIP3    H169191   1.795   1.656  10.717 -1.3705  0.5324 -1.4063
15900TIP3    H269192   1.828   1.801  10.688  1.8488  0.0559 -0.5788
15901TIP3   OH269193   2.698   6.582   3.543 -0.5084 -0.5198 -0.1828
15901TIP3    H169194   2.630   6.516   3.526 -3.6778  2.3655  0.1244
15901TIP3    H269195   2.688   6.603   3.636  1.8034 -0.9056  0.2037
15902TIP3   OH269196   4.677   3.829  10.973  0.3235 -0.2294 -0.5246
15902TIP3    H169197   4.649   3.825  10.881  0.9657  1.3657 -0.8242
15902TIP3    H269198   4.615   3.889  11.014  1.5955  1.1766 -0.5689
15903TIP3   OH269199   3.115   1.897   4.229  0.0451 -0.4137 -0.4839
15903TIP3    H169200   3.124   1.947   4.148  2.2363 -0.8303 -0.5539
15903TIP3    H269201   3.175   1.939   4.290  0.6115 -1.8497 -0.0083
15904TIP3   OH269202   5.172   5.842   3.849  0.3676  0.0419  0.0882
15904TIP3    H169203   5.159   5.770   3.788 -0.3222 -0.6464  1.0214
15904TIP3    H269204   5.187   5.800   3.934 -0.0545  0.9812  0.6485
15905TIP3   OH269205   2.023   2.902   3.416 -0.1981  0.7278  0.4964
15905TIP3    H169206   2.039   2.924   3.324 -1.4462  0.0957  0.1180
15905TIP3    H269207   1.974   2.820   3.414 -0.9172  1.0966  1.6892
15906TIP3   OH269208   6.686   2.221  16.786 -0.5821 -0.2343  0.4405
15906TIP3    H169209   6.621   2.153  16.803 -0.3365 -0.3050  1.1364
15906TIP3    H269210   6.732   2.231  16.869 -0.7664  0.9534  0.4165
15907TIP3   OH269211   2.815   3.625   5.743  0.4362  0.0751  0.3458
15907TIP3    H169212   2.796   3.719   5.736  1.0526  0.1073 -1.7260
15907TIP3    H269213   2.850   3.602   5.657  1.0121 -1.9093  1.0667
15908TIP3   OH269214   2.981   3.778   2.766 -0.4694 -0.0614  0.2272
15908TIP3    H169215   2.974   3.687   2.735 -1.2055  0.4770 -1.2913
15908TIP3    H269216   3.075   3.790   2.783 -0.2756 -0.9074 -0.1625
15909TIP3   OH269217   5.957   2.317   4.503  0.1173 -0.0113  0.2186
15909TIP3    H169218   6.023   2.384   4.517  0.3605  0.0337 -1.0211
15909TIP3    H269219   5.876   2.356   4.536  0.4149  0.5475  0.3009
15910TIP3   OH269220   1.152   1.519  11.670 -0.2347  0.2604  0.1671
15910TIP3    H169221   1.245   1.498  11.675 -0.2063  0.3953  0.2103
15910TIP3    H269222   1.118   1.461  11.601 -0.2980 -0.4077  0.7487
15911TIP3   OH269223   4.438   6.230  16.328 -0.9325 -0.2728  0.2980
15911TIP3    H169224   4.510   6.271  16.280 -1.6850 -1.1458 -1.7063
15911TIP3    H269225   4.467   6.140  16.343 -0.5216  0.1046  1.9635
15912TIP3   OH269226   5.622   4.408  16.254 -0.0913  0.2301  0.1854
15912TIP3    H169227   5.717   4.395  16.265  0.2710  1.0510 -1.6012
15912TIP3    H269228   5.614   4.500  16.229 -1.3598  0.1146  0.1468
15913TIP3   OH269229   4.909   1.840   0.428  0.4290  0.1479  0.5874
15913TIP3    H169230   4.980   1.895   0.393  1.7992 -1.5366  0.5924
15913TIP3    H269231   4.907   1.765   0.369 -0.8173 -0.2351  1.0973
15914TIP3   OH269232   5.893   4.927   5.691 -0.4324 -0.6714 -0.2605
15914TIP3    H169233   5.869   4.905   5.601 -0.3900 -0.9645 -0.2005
15914TIP3    H269234   5.958   4.862   5.715  0.6676  0.3084 -0.5211
15915TIP3   OH269235   2.867   0.612   4.019  0.4332  0.2938  0.7553
15915TIP3    H169236   2.962   0.626   4.016  0.2834  1.2334  0.1118
15915TIP3    H269237   2.830   0.686   3.970 -0.5013 -1.4239 -1.2765
15916TIP3   OH269238   0.568   6.771   6.659  0.0627  0.1212  0.1418
15916TIP3    H169239   0.496   6.727   6.704 -0.1252 -1.0286 -1.1928
15916TIP3    H269240   0.570   6.730   6.572  2.7504 -0.3745  0.3483
15917TIP3   OH269241   3.118   5.242  16.085  0.1073  0.5579 -0.6017
15917TIP3    H169242   3.100   5.175  16.151 -0.4946  1.1556 -0.1576
15917TIP3    H269243   3.117   5.325  16.132  1.7653  0.8354 -0.9737
15918TIP3   OH269244   2.056   1.319   5.942 -0.5036 -0.2198  0.1503
15918TIP3    H169245   2.035   1.226   5.954 -2.2272  0.1791  0.5771
15918TIP3    H269246   2.141   1.319   5.899 -0.9887 -2.0430 -0.9409
15919TIP3   OH269247   1.791   5.876  11.159 -0.1710  0.1813 -0.3083
15919TIP3    H169248   1.752   5.889  11.072 -0.8472  1.3600  0.1403
15919TIP3    H269249   1.817   5.964  11.186  0.8853 -0.3050  0.2987
15920TIP3   OH269250   0.772   5.415  13.489  0.0281 -0.0923  0.2278
15920TIP3    H169251   0.790   5.464  13.409 -0.7429 -1.1695 -0.6408
15920TIP3    H269252   0.806   5.327  13.472  2.0925  0.2613  2.0430
15921TIP3   OH269253   2.646   6.072  15.327 -0.5260  0.3339  1.0641
15921TIP3    H169254   2.691   6.150  15.362  0.3750  0.5028 -0.3744
15921TIP3    H269255   2.695   5.998  15.364  0.0756  0.4992  0.6152
15922TIP3   OH269256   5.171   1.917   6.090 -0.4434  0.4361 -0.8013
15922TIP3    H169257   5.145   1.832   6.125  0.5306  0.6209  0.4357
15922TIP3    H269258   5.142   1.980   6.155  2.2407  0.7147  0.2771
15923TIP3   OH269259   1.095   2.106  16.608 -0.4035  0.7108  0.1325
15923TIP3    H169260   1.085   2.012  16.622 -0.4586  0.7708  0.4975
15923TIP3    H269261   1.057   2.121  16.521  1.0450  0.1439 -0.6314
15924TIP3   OH269262   3.772   3.678   0.213 -0.4382 -1.0435 -0.4391
15924TIP3    H169263   3.726   3.759   0.234  0.2453 -1.1334  1.5410
15924TIP3    H269264   3.831   3.702   0.142  1.5989  0.9095  1.7743
15925TIP3   OH269265   5.901   1.623   0.226  0.1514 -0.1258  0.5060
15925TIP3    H169266   5.867   1.602   0.314 -0.8971  1.4330  0.5185
15925TIP3    H269267   5.950   1.705   0.238 -1.7016  1.2326 -0.6629
15926TIP3   OH269268   4.949   4.112  11.333 -1.2060 -0.4364  0.0452
15926TIP3    H169269   4.897   4.047  11.285  0.8166 -2.0726 -0.1311
15926TIP3    H269270   5.040   4.090  11.310 -0.3227  0.8122  2.0932
15927TIP3   OH269271   0.636   1.475   2.332  0.1368 -0.7236 -0.4006
15927TIP3    H169272   0.612   1.470   2.239 -0.0990 -0.4138 -0.3575
15927TIP3    H269273   0.709   1.537   2.335 -0.4273 -0.0476 -0.2763
15928TIP3   OH269274   4.814   2.501  16.730  0.8737 -0.0737  0.4264
15928TIP3    H169275   4.830   2.583  16.776  0.1645  1.0974 -1.2890
15928TIP3    H269276   4.821   2.524  16.637  0.1400 -1.8484 -0.1205
15929TIP3   OH269277   6.702   3.883   2.626 -0.6063  0.2114  0.6616
15929TIP3    H169278   6.677   3.947   2.693 -2.1327  0.3767 -0.0154
15929TIP3    H269279   6.690   3.929   2.543 -0.5721 -0.5708  0.2104
15930TIP3   OH269280   4.372   5.827   5.278  0.1466 -0.1634  0.4863
15930TIP3    H169281   4.287   5.866   5.256 -0.4271 -1.2194  0.7502
15930TIP3    H269282   4.385   5.758   5.213  0.9737  0.2195  0.2390
15931TIP3   OH269283   5.138   3.487   4.864  0.3090 -0.6467 -0.0862
15931TIP3    H169284   5.057   3.529   4.836 -0.2650 -1.5284  0.2187
15931TIP3    H269285   5.195   3.560   4.891 -0.6971 -0.0652  0.5396
15932TIP3   OH269286   6.535   4.284   0.003 -0.2164 -0.5319  0.1394
15932TIP3    H169287   6.474   4.343   0.047 -1.0569 -1.5073  0.2908
15932TIP3    H269288   6.593   4.343  -0.047 -2.5389  0.3621 -1.6921
15933TIP3   OH269289   6.848   6.116  14.683  0.0544  0.7230  0.3782
15933TIP3    H169290   6.924   6.123  14.740 -0.0442  0.1757  0.5819
15933TIP3    H269291   6.860   6.032  14.638  1.5416  2.3108 -2.4502
15934TIP3   OH269292   2.366   6.667   2.886  0.0592  0.0458  0.0606
15934TIP3    H169293   2.280   6.628   2.875 -0.7489  1.3903  1.2151
15934TIP3    H269294   2.427   6.594   2.876 -1.2116 -0.9722 -0.5542
15935TIP3   OH269295   4.182   6.135   4.084  0.6405  0.2093  0.3799
15935TIP3    H169296   4.236   6.197   4.134  2.1717 -1.5344  1.0088
15935TIP3    H269297   4.124   6.095   4.150 -1.2238  1.7610 -0.2213
15936TIP3   OH269298   5.831   6.429   0.174 -0.3847  0.2019  0.6964
15936TIP3    H169299   5.818   6.341   0.210  0.8427 -0.7215 -0.9787
15936TIP3    H269300   5.761   6.439   0.110 -0.0720  0.1216  0.3377
15937TIP3   OH269301   6.018   1.001   0.630  0.3496 -0.8059 -0.0210
15937TIP3    H169302   5.988   1.003   0.721 -0.2554  0.3552 -0.2252
15937TIP3    H269303   5.949   0.954   0.584  0.6864 -1.4485  0.1272
15938TIP3   OH269304   2.530   3.060   2.473  0.5238 -0.5922 -0.3012
15938TIP3    H169305   2.598   3.081   2.537 -1.3439  0.3872  1.5015
15938TIP3    H269306   2.511   3.143   2.430  0.8960 -0.9896 -1.2452
15939TIP3   OH269307   2.893   2.106   4.871 -0.1687 -0.1728  0.0653
15939TIP3    H169308   2.943   2.036   4.828  0.5996  1.3882 -1.7376
15939TIP3    H269309   2.956   2.146   4.930 -0.0524  0.1185 -0.2498
15940TIP3   OH269310   5.153   0.090  14.459  0.1263 -0.5929  0.3268
15940TIP3    H169311   5.104   0.123  14.383 -0.1508 -0.5840  0.5058
15940TIP3    H269312   5.085   0.061  14.520  0.3177  0.1583  0.9123
15941TIP3   OH269313   6.078   4.374  12.796 -0.1706  0.6214 -0.6165
15941TIP3    H169314   6.106   4.388  12.705 -1.3608  2.8708 -0.7239
15941TIP3    H269315   5.997   4.424  12.804 -0.7059 -0.4651  1.3950
15942TIP3   OH269316   4.457   3.357  13.771 -0.3053 -0.1820 -0.2866
15942TIP3    H169317   4.499   3.303  13.838  0.0566 -0.1682 -0.4972
15942TIP3    H269318   4.441   3.297  13.698  0.3336  0.0473 -0.6203
15943TIP3   OH269319   6.410   1.011   1.284 -0.0996 -0.4921 -0.6203
15943TIP3    H169320   6.334   1.068   1.271 -0.1267  0.1061  1.7287
15943TIP3    H269321   6.395   0.970   1.369  1.4046 -1.6667 -0.8796
15944TIP3   OH269322   0.259   0.324   0.767  0.8296  0.7758  0.5865
15944TIP3    H169323   0.302   0.318   0.682  0.2705  0.8836  0.2897
15944TIP3    H269324   0.279   0.241   0.810 -0.9637 -0.3866 -0.6606
15945TIP3   OH269325   3.996   1.470   6.229  0.6025 -0.7673 -0.5760
15945TIP3    H169326   3.983   1.376   6.237  0.3682 -0.7082 -0.2512
15945TIP3    H269327   3.933   1.509   6.290 -0.7966 -0.3024 -2.2318
15946TIP3   OH269328   6.321   2.303   4.778  0.7076  0.0650  0.1705
15946TIP3    H169329   6.245   2.257   4.814  1.3687 -0.2703  1.1679
15946TIP3    H269330   6.284   2.361   4.711 -0.4938  0.2868  0.9863
15947TIP3   OH269331   4.655   2.771  14.110  0.6177 -0.1615  0.5596
15947TIP3    H169332   4.733   2.741  14.062  0.5516  0.9243 -0.2747
15947TIP3    H269333   4.588   2.707  14.088  0.6122  0.2625 -0.7857
15948TIP3   OH269334   5.690   2.455   3.926 -0.2205 -0.1664 -0.5825
15948TIP3    H169335   5.666   2.537   3.883 -1.0646 -0.5978 -0.9517
15948TIP3    H269336   5.626   2.446   3.997 -0.6512 -0.9218 -1.0633
15949TIP3   OH269337   0.415   0.952  16.494  0.9692  0.4225  0.2613
15949TIP3    H169338   0.476   1.013  16.451  1.2242  1.2539  1.7314
15949TIP3    H269339   0.334   0.961  16.444  0.7892  2.5402  0.8355
15950TIP3   OH269340   4.547   1.461   1.336  0.2879 -0.5273  0.1973
15950TIP3    H169341   4.620   1.487   1.393 -0.5579  2.6503  0.0096
15950TIP3    H269342   4.469   1.475   1.389 -0.3001 -2.7539 -0.0113
15951TIP3   OH269343   1.482   4.796  15.887 -0.3488 -0.8199  0.9436
15951TIP3    H169344   1.530   4.835  15.814  0.3287 -0.0507  1.7828
15951TIP3    H269345   1.455   4.710  15.854  2.8397 -1.9289  0.8872
15952TIP3   OH269346   4.731   6.202  11.943 -0.4772  0.2298 -0.2804
15952TIP3    H169347   4.674   6.204  11.866  1.0461 -1.0567 -1.4990
15952TIP3    H269348   4.748   6.109  11.958  3.2606  0.5258 -1.5625
15953TIP3   OH269349   5.959   1.363  13.190 -0.6582 -0.5706  0.0267
15953TIP3    H169350   6.036   1.410  13.221 -0.3610 -0.4196 -0.9058
15953TIP3    H269351   5.885   1.407  13.232 -0.2517 -0.5939  0.7720
15954TIP3   OH269352   1.371   1.553  12.545  0.2556 -0.4944 -0.2487
15954TIP3    H169353   1.333   1.467  12.527  0.5703 -0.5215 -0.8277
15954TIP3    H269354   1.303   1.601  12.592  0.7028 -1.6623  1.6955
15955TIP3   OH269355   4.200   3.329  16.730 -0.3082  0.0623  0.2757
15955TIP3    H169356   4.229   3.285  16.650 -0.4335  0.8112 -0.1919
15955TIP3    H269357   4.281   3.360  16.772 -0.2590 -0.1126  0.3095
15956TIP3   OH269358   4.724   3.985  16.916  0.0070  0.6599 -0.2585
15956TIP3    H169359   4.801   4.008  16.968  1.6704  0.9798 -2.7010
15956TIP3    H269360   4.740   3.894  16.889  0.2883  1.1923 -1.9630
15957TIP3   OH269361   0.967   1.276   0.671  0.5639  0.2180 -0.3044
15957TIP3    H169362   0.944   1.347   0.732  0.0490  0.1394 -0.4043
15957TIP3    H269363   0.940   1.196   0.717 -0.6869  0.2060 -0.9990
15958TIP3   OH269364   0.242   2.549   4.442 -0.6536 -0.0131  0.0384
15958TIP3    H169365   0.209   2.482   4.382  0.1530 -2.1997  1.8839
15958TIP3    H269366   0.168   2.607   4.456 -1.6722 -1.0181 -0.9643
15959TIP3   OH269367   1.530   0.026  16.366 -0.4542  0.5307  0.0798
15959TIP3    H169368   1.622   0.031  16.391 -0.4230  0.6141 -0.0496
15959TIP3    H269369   1.531   0.032  16.271 -0.6396  1.2523  0.1191
15960TIP3   OH269370   4.693   3.018  12.138 -0.2757 -0.7554 -0.5299
15960TIP3    H169371   4.602   3.022  12.108  0.0417 -2.9344 -2.0786
15960TIP3    H269372   4.743   3.060  12.068 -0.0611  0.1908  0.1870
15961TIP3   OH269373   2.656   2.592   0.354 -0.2691  0.2558  0.0922
15961TIP3    H169374   2.571   2.632   0.368  0.1711  0.0676  4.6553
15961TIP3    H269375   2.718   2.665   0.356 -0.1468  0.6391 -4.9453
15962TIP3   OH269376   4.744   3.607  13.002  0.3577  0.3570 -0.4686
15962TIP3    H169377   4.679   3.628  13.069 -0.6591 -1.1016 -0.9550
15962TIP3    H269378   4.784   3.692  12.981 -0.3095  1.0612  0.9214
15963TIP3   OH269379   4.856   6.381  15.444 -0.0909 -0.3386  0.0358
15963TIP3    H169380   4.784   6.441  15.421 -1.6808 -0.5521  3.8302
15963TIP3    H269381   4.816   6.294  15.444  1.3236 -1.0647 -1.8875
15964TIP3   OH269382   0.284   3.946  16.654 -0.2559 -0.5281 -0.0430
15964TIP3    H169383   0.301   3.981  16.566 -0.4720  0.6304  0.3685
15964TIP3    H269384   0.195   3.912  16.648 -0.7542  0.7136  0.0742
15965TIP3   OH269385   1.484   5.840   0.376 -0.2178 -0.2821 -0.6426
15965TIP3    H169386   1.396   5.856   0.411 -0.5175 -0.1321 -1.4365
15965TIP3    H269387   1.522   5.774   0.434 -1.5863 -1.8205 -1.4152
15966TIP3   OH269388   4.229   4.231   6.019  0.5081 -0.2174  0.2069
15966TIP3    H169389   4.223   4.162   6.085 -1.1683  0.1088  0.4308
15966TIP3    H269390   4.320   4.228   5.991  0.4631 -2.6602  0.0639
15967TIP3   OH269391   0.164   2.855  13.737 -0.0792  0.0655  0.1942
15967TIP3    H169392   0.216   2.811  13.669 -3.0294  0.1248 -2.3304
15967TIP3    H269393   0.132   2.934  13.694 -2.4103 -0.1008  1.4792
15968TIP3   OH269394   1.588   1.963   2.644 -0.3329  0.3142  0.1422
15968TIP3    H169395   1.499   1.927   2.649 -0.7481  0.9796 -1.5736
15968TIP3    H269396   1.582   2.032   2.578  1.6200 -0.1517 -0.5857
15969TIP3   OH269397   1.220   3.412  11.494  0.2023 -0.1386 -0.3761
15969TIP3    H169398   1.159   3.382  11.428 -0.3108  1.1497 -0.5082
15969TIP3    H269399   1.297   3.441  11.445 -0.2444  0.9768 -0.4515
15970TIP3   OH269400   6.562   4.892   5.962  0.2459 -0.2663  0.2892
15970TIP3    H169401   6.480   4.872   6.006  0.4031  0.5594  0.9766
15970TIP3    H269402   6.536   4.933   5.879 -0.0547 -2.0004 -0.5277
15971TIP3   OH269403   1.882   3.535   0.892 -0.3691  0.4183  0.2534
15971TIP3    H169404   1.826   3.459   0.905  0.4050 -0.5719 -1.8535
15971TIP3    H269405   1.932   3.516   0.813  1.0028  2.4413  0.5429
15972TIP3   OH269406   1.029   1.060   3.494  0.7160  0.1384 -0.1514
15972TIP3    H169407   1.085   1.121   3.542  2.9374 -1.6806 -0.2195
15972TIP3    H269408   1.056   0.974   3.526 -1.3312 -0.8865 -1.0339
15973TIP3   OH269409   4.908   2.254  10.687  0.6381 -0.1006 -0.0621
15973TIP3    H169410   4.899   2.182  10.750 -1.6373  0.2816  0.1348
15973TIP3    H269411   4.837   2.241  10.625  1.2255  1.0386 -1.0184
15974TIP3   OH269412   3.190   6.581   3.890 -0.4969  0.1685  0.4324
15974TIP3    H169413   3.271   6.557   3.846 -1.5678 -0.0926 -1.4994
15974TIP3    H269414   3.164   6.664   3.851 -0.9689  0.4332  1.2849
15975TIP3   OH269415   0.714   3.489  13.083 -0.2423  0.1310 -0.3554
15975TIP3    H169416   0.758   3.568  13.113  0.6913 -0.2264 -0.7641
15975TIP3    H269417   0.757   3.467  13.000  1.2327 -2.2045  0.9332
15976TIP3   OH269418   6.044   0.715   3.320 -0.3634  0.2377 -0.4865
15976TIP3    H169419   5.962   0.713   3.271  0.1059 -0.3314 -1.2783
15976TIP3    H269420   6.109   0.678   3.259  0.4249  0.4402  0.2156
15977TIP3   OH269421   1.286   2.309  15.171  0.7549  0.2499 -0.2639
15977TIP3    H169422   1.336   2.389  15.188  0.8029 -0.1058  1.3439
15977TIP3    H269423   1.244   2.288  15.254 -2.6503  0.9047 -1.6621
15978TIP3   OH269424   1.667   6.160  16.687  0.4994 -0.9169 -0.2024
15978TIP3    H169425   1.613   6.218  16.634 -2.1296 -1.9577  1.1496
15978TIP3    H269426   1.718   6.110  16.624  1.3654  1.3927 -1.4604
15979TIP3   OH269427   6.820   4.178  12.889 -0.2038  0.1209  0.5319
15979TIP3    H169428   6.810   4.092  12.931 -0.5796 -0.4412 -0.6688
15979TIP3    H269429   6.786   4.165  12.800  0.6552  1.2522  0.0234
15980TIP3   OH269430   4.847   6.684   0.547  0.7092 -0.2251 -0.3249
15980TIP3    H169431   4.867   6.617   0.481  0.9617  1.1934 -1.7563
15980TIP3    H269432   4.906   6.756   0.526  1.0196  0.1517  1.6969
15981TIP3   OH269433   3.565   2.269  15.246  0.2106  0.2162 -0.0345
15981TIP3    H169434   3.567   2.175  15.263 -1.4507  0.1729  0.1532
15981TIP3    H269435   3.569   2.277  15.150  0.8638 -0.0085 -0.0288
15982TIP3   OH269436   0.636   3.919  14.778  0.0447 -0.2652  0.1913
15982TIP3    H169437   0.606   3.830  14.795  0.2145 -0.2819  0.4112
15982TIP3    H269438   0.692   3.941  14.853  1.6154 -0.7064 -0.7961
15983TIP3   OH269439   5.358   1.019   5.191 -0.3321  0.6911  0.2248
15983TIP3    H169440   5.418   1.044   5.261 -1.4431  0.6081  1.2415
15983TIP3    H269441   5.330   0.930   5.214 -0.9361  0.7792 -0.1428
15984TIP3   OH269442   5.916   0.947  14.055  0.3016 -0.2556 -0.7642
15984TIP3    H169443   5.845   0.922  14.113  2.5779  0.8312  2.8623
15984TIP3    H269444   5.939   1.036  14.082  4.7898 -1.5235  0.4574
15985TIP3   OH269445   5.317   5.465   2.514 -0.1471 -0.7624 -0.4145
15985TIP3    H169446   5.383   5.466   2.445 -1.4013  0.6905 -1.6893
15985TIP3    H269447   5.366   5.472   2.595  1.2660  0.0271 -1.3080
15986TIP3   OH269448   0.318   2.625  16.681 -0.2966 -0.5826 -0.3678
15986TIP3    H169449   0.303   2.647  16.773  0.1855 -0.5489 -0.2909
15986TIP3    H269450   0.238   2.650  16.636 -0.1057  0.5051 -0.1323
15987TIP3   OH269451   1.476   1.178  15.047  0.7498  0.0868 -0.0277
15987TIP3    H169452   1.391   1.134  15.049  0.9678 -0.3602 -0.3222
15987TIP3    H269453   1.502   1.175  14.955  1.4341 -0.4693  0.1704
15988TIP3   OH269454   5.333   6.413   0.195 -0.4761 -0.2793 -0.0410
15988TIP3    H169455   5.240   6.417   0.215 -0.6116 -0.2250 -0.6443
15988TIP3    H269456   5.376   6.408   0.280 -1.0753 -1.3065  0.2200
15989TIP3   OH269457   0.737   1.974  12.436 -0.2698 -0.1521  0.6308
15989TIP3    H169458   0.657   1.922  12.439  0.9578 -2.2706 -0.9317
15989TIP3    H269459   0.806   1.915  12.465  1.1505  0.6619 -0.8671
15990TIP3   OH269460   4.839   3.688  14.634 -0.1356  0.0313  0.5988
15990TIP3    H169461   4.894   3.611  14.619  0.4152  0.1180  2.0512
15990TIP3    H269462   4.897   3.750  14.679 -0.3366  1.6168 -1.2027
15991TIP3   OH269463   0.506   0.908  11.537  0.0070 -0.2787  0.1745
15991TIP3    H169464   0.561   0.830  11.533  1.5137  0.7604 -1.5509
15991TIP3    H269465   0.425   0.883  11.494 -0.5618 -1.5776  1.9167
15992TIP3   OH269466   6.794   1.559  15.246 -0.1621 -0.6133 -0.4995
15992TIP3    H169467   6.774   1.530  15.157  0.4500 -2.4728 -0.0640
15992TIP3    H269468   6.855   1.494  15.280  1.4104  1.2733  0.5270
15993TIP3   OH269469   4.172   4.554   0.829  0.4622 -0.3436  0.5775
15993TIP3    H169470   4.216   4.510   0.902 -0.3109 -0.3814  1.0309
15993TIP3    H269471   4.098   4.600   0.869 -0.0397 -0.4488 -0.1930
15994TIP3   OH269472   5.919   3.528  17.094 -0.0554  0.6200 -0.4074
15994TIP3    H169473   5.931   3.622  17.106  2.3250  0.1789  1.5509
15994TIP3    H269474   5.986   3.488  17.150 -1.2379 -2.2617 -0.8747
15995TIP3   OH269475   5.112   1.431   1.401  0.2692  0.0037 -0.4409
15995TIP3    H169476   5.133   1.394   1.315  1.3614 -1.3603  0.3642
15995TIP3    H269477   5.197   1.448   1.442 -0.2006  2.5966 -0.3759
15996TIP3   OH269478   2.592   6.838   1.026  0.6338 -0.5278  1.0677
15996TIP3    H169479   2.527   6.908   1.027  1.3016  0.1154  0.6115
15996TIP3    H269480   2.541   6.759   1.007  0.0828  0.0799 -0.1089
15997TIP3   OH269481   1.253   0.325  12.578  0.9376 -0.5303 -0.0277
15997TIP3    H169482   1.251   0.417  12.605  1.5148 -0.0675 -1.4477
15997TIP3    H269483   1.160   0.299  12.574  0.1736  1.7391 -4.9313
15998TIP3   OH269484   2.195   3.381   6.466  0.3671 -0.2251  0.1187
15998TIP3    H169485   2.202   3.472   6.496 -1.4128  0.3501 -1.0171
15998TIP3    H269486   2.128   3.384   6.398  1.2034 -2.1941 -0.8614
15999TIP3   OH269487   1.001   5.142   6.244 -0.2318  0.4618 -0.0897
15999TIP3    H169488   1.082   5.186   6.217 -0.0686  0.0234 -0.3322
15999TIP3    H269489   0.981   5.179   6.330  0.0572  0.8023 -0.1665
16000TIP3   OH269490   4.704   0.399   5.414  0.4344  0.0091 -0.9494
16000TIP3    H169491   4.745   0.452   5.346  4.0752 -1.4180 -0.1326
16000TIP3    H269492   4.708   0.453   5.493  1.6597 -0.4083 -0.6973
16001TIP3   OH269493   5.005   2.174   3.506 -0.3715 -0.1382 -0.2158
16001TIP3    H169494   4.947   2.250   3.496 -2.3171 -1.4397  0.4808
16001TIP3    H269495   4.997   2.127   3.423  0.9442  0.4308 -0.7015
16002TIP3   OH269496   2.872   3.382   4.647 -0.1114  0.0070 -0.2208
16002TIP3    H169497   2.777   3.382   4.647 -0.1234 -1.1787 -0.4455
16002TIP3    H269498   2.897   3.344   4.731  0.1591  0.1072 -0.2525
16003TIP3   OH269499   6.206   5.627  16.525  0.5425  0.1661 -0.1786
16003TIP3    H169500   6.116   5.635  16.558  0.5467  1.2399 -0.3899
16003TIP3    H269501   6.239   5.546  16.564  0.4326  1.1867  2.2046
16004TIP3   OH269502   1.707   5.619   1.497  0.5577 -0.0228  0.2394
16004TIP3    H169503   1.688   5.710   1.477  3.4293  0.6240 -0.0666
16004TIP3    H269504   1.704   5.613   1.592  1.1438  0.6295  0.3066
16005TIP3   OH269505   0.389   6.660  11.210 -0.2861  0.3714 -0.2505
16005TIP3    H169506   0.409   6.749  11.180 -0.3648  0.3062 -0.4925
16005TIP3    H269507   0.417   6.603  11.138  1.8373  0.0340  0.7599
16006TIP3   OH269508   1.612   6.650   5.644  0.1681 -0.2814  0.0540
16006TIP3    H169509   1.667   6.642   5.722  0.5557  0.7048 -0.1058
16006TIP3    H269510   1.665   6.700   5.582 -0.7628  0.3574 -0.2403
16007TIP3   OH269511   6.156   4.587   3.469  0.0086  0.5098 -0.0097
16007TIP3    H169512   6.158   4.678   3.496 -0.7325 -0.1378  2.4882
16007TIP3    H269513   6.113   4.588   3.383  2.0443  2.6588 -1.1288
16008TIP3   OH269514   6.657   6.628  11.949 -0.4201  0.1102  0.4998
16008TIP3    H169515   6.749   6.607  11.969 -0.9606 -0.2878  2.7853
16008TIP3    H269516   6.653   6.723  11.953 -0.2942  0.0845  1.3138
16009TIP3   OH269517   6.259   5.122   0.532 -0.0818  0.0178  0.0788
16009TIP3    H169518   6.280   5.176   0.609  0.1999  2.5344 -1.6292
16009TIP3    H269519   6.181   5.072   0.558 -0.0299  0.8411  1.9721
16010TIP3   OH269520   3.948   6.650   2.432 -0.2862  0.0851 -0.1154
16010TIP3    H169521   3.902   6.611   2.506 -0.6699  1.8857  0.6738
16010TIP3    H269522   3.895   6.628   2.356  0.4328 -2.3050 -0.0113
16011TIP3   OH269523   0.736   6.247   3.477  0.2091 -0.6907  0.7328
16011TIP3    H169524   0.665   6.272   3.536 -1.1491  0.5460 -1.2882
16011TIP3    H269525   0.731   6.151   3.473 -1.5682 -0.6220  0.4369
16012TIP3   OH269526   0.623   1.136  10.786 -0.1649  0.6246 -0.2914
16012TIP3    H169527   0.680   1.075  10.739  0.6318 -0.2683  1.7228
16012TIP3    H269528   0.550   1.082  10.816  0.8137  0.4404  1.9728
16013TIP3   OH269529   3.860   4.299  15.442 -0.1074  0.0140 -0.4655
16013TIP3    H169530   3.840   4.352  15.365  1.7844  1.6260  0.0446
16013TIP3    H269531   3.781   4.248  15.458 -1.4254  1.4417 -2.0324
16014TIP3   OH269532   3.948   6.693   5.364  0.0394 -0.3710  0.7197
16014TIP3    H169533   3.975   6.712   5.454 -0.5557  2.7428  0.3482
16014TIP3    H269534   3.962   6.775   5.317  0.8799 -2.0775 -2.2270
16015TIP3   OH269535   0.056   1.658   2.086  0.1387  0.6822 -0.5364
16015TIP3    H169536   0.054   1.648   1.991 -1.4826 -1.4972 -0.3570
16015TIP3    H269537  -0.035   1.645   2.113 -0.0702  4.3853  1.1362
16016TIP3   OH269538   2.046   4.119   3.086 -0.0226  0.1932 -0.1333
16016TIP3    H169539   2.076   4.124   3.177 -2.5892 -1.4880  0.9477
16016TIP3    H269540   1.963   4.167   3.086  0.7797  1.6834 -2.0746
16017TIP3   OH269541   6.148   1.501  17.053  0.2510  0.2527  0.5721
16017TIP3    H169542   6.053   1.494  17.065 -0.0610  0.9961 -1.2044
16017TIP3    H269543   6.180   1.531  17.137 -0.9372 -1.0692  1.5604
16018TIP3   OH269544   6.117   5.322  13.129 -0.6188  0.0642  0.2270
16018TIP3    H169545   6.079   5.253  13.073  1.4723 -0.8567 -0.1508
16018TIP3    H269546   6.066   5.400  13.108 -0.2185 -0.3474 -2.7014
16019TIP3   OH269547   1.208   6.211  11.416  0.0706  0.2518  0.2011
16019TIP3    H169548   1.191   6.299  11.384  1.2643  0.5020  0.1982
16019TIP3    H269549   1.146   6.198  11.487 -0.5201  0.8596 -0.2006
16020TIP3   OH269550   5.312   1.868  11.914  0.0318 -0.5520 -0.3596
16020TIP3    H169551   5.256   1.832  11.983  0.4580 -1.7472 -0.6044
16020TIP3    H269552   5.395   1.887  11.957 -0.2577  0.3660 -0.1876
16021TIP3   OH269553   6.057   3.100  14.431 -0.2763  0.1053  0.1980
16021TIP3    H169554   6.140   3.078  14.389 -0.7403 -0.0844 -0.6358
16021TIP3    H269555   6.061   3.055  14.516 -0.4522 -1.7868 -0.7408
16022TIP3   OH269556   0.018   1.216   6.104  0.0528  0.3288  0.0778
16022TIP3    H169557   0.041   1.306   6.127  0.6499  0.0241  0.7023
16022TIP3    H269558  -0.009   1.176   6.186 -1.6034  0.3289 -0.4328
16023TIP3   OH269559   5.209   4.778   0.253 -0.1382 -0.3520  0.0979
16023TIP3    H169560   5.145   4.807   0.189  1.5312  0.6053 -1.2256
16023TIP3    H269561   5.199   4.839   0.327  0.2944  0.8445 -0.7857
16024TIP3   OH269562   0.507   3.374  13.514 -0.0262 -0.3584  0.7407
16024TIP3    H169563   0.591   3.409  13.545 -0.6537 -0.4691  2.6995
16024TIP3    H269564   0.531   3.316  13.442  1.4738  0.4167  0.5740
16025TIP3   OH269565   0.095   2.034  15.890 -0.3848 -0.2213 -0.4233
16025TIP3    H169566   0.075   1.966  15.955  0.6161 -0.8797 -0.7911
16025TIP3    H269567   0.118   1.986  15.811 -1.6453  0.5762 -1.3129
16026TIP3   OH269568   4.489   4.181   3.822 -0.2432 -0.0737  0.1180
16026TIP3    H169569   4.452   4.098   3.791  4.4947 -2.1675 -0.8288
16026TIP3    H269570   4.497   4.234   3.743 -1.2539  0.4459  0.3505
16027TIP3   OH269571   4.762   3.105  16.626 -0.6671 -0.9987 -0.0507
16027TIP3    H169572   4.767   3.200  16.640 -0.4639 -1.0736  0.4188
16027TIP3    H269573   4.781   3.094  16.533  1.7382 -0.7509  0.3321
16028TIP3   OH269574   3.078   5.021  16.262 -0.2358  0.1749  0.4727
16028TIP3    H169575   3.054   4.957  16.194  0.3038  0.6643 -0.2020
16028TIP3    H269576   3.030   4.993  16.339 -1.1276 -0.2151 -0.2034
16029TIP3   OH269577   3.402   1.684   2.813  0.5692  0.2011 -0.4635
16029TIP3    H169578   3.461   1.629   2.761  0.3710 -0.5862  0.1295
16029TIP3    H269579   3.416   1.656   2.903  0.5222  1.1894 -0.1371
16030TIP3   OH269580   2.444   2.886  13.677  0.2204 -0.7328  0.2331
16030TIP3    H169581   2.390   2.904  13.755 -1.3721 -1.0535 -0.7496
16030TIP3    H269582   2.414   2.801  13.646 -1.0685  0.4867 -2.1972
16031TIP3   OH269583   0.780   1.678  15.048 -0.0138 -0.3207 -0.3854
16031TIP3    H169584   0.819   1.751  14.999  0.4386  0.1196  0.6040
16031TIP3    H269585   0.714   1.719  15.104 -0.6258 -0.8378 -0.7085
16032TIP3   OH269586   4.884   0.228   1.719 -0.2241 -0.1348  0.6516
16032TIP3    H169587   4.903   0.288   1.647  1.8579 -1.1300  0.2910
16032TIP3    H269588   4.824   0.163   1.681 -0.2939  0.1680  0.2412
16033TIP3   OH269589   4.850   4.298   4.295  0.1878  0.1391  0.0759
16033TIP3    H169590   4.886   4.348   4.221  1.0483  0.2307  0.5410
16033TIP3    H269591   4.755   4.306   4.285  0.2924  1.8172  0.0952
16034TIP3   OH269592   2.242   5.932  14.794 -1.0540 -0.4879 -0.6816
16034TIP3    H169593   2.197   5.916  14.877 -0.3591 -0.2238 -0.2468
16034TIP3    H269594   2.235   5.849  14.747 -0.8880 -0.8451 -0.0862
16035TIP3   OH269595   3.439   6.598  13.226  0.2519 -0.4384 -0.0092
16035TIP3    H169596   3.389   6.532  13.176  0.3091  1.4408 -2.7681
16035TIP3    H269597   3.529   6.586  13.196  0.2526  0.8709 -0.5792
16036TIP3   OH269598   6.088   1.802  16.098  0.1169 -0.0881 -0.0606
16036TIP3    H169599   5.994   1.789  16.087  0.4719 -2.0970 -1.1330
16036TIP3    H269600   6.128   1.734  16.045  2.1889  0.2210  1.0149
16037TIP3   OH269601   4.387   6.430   2.958 -0.6201 -0.5669  0.8719
16037TIP3    H169602   4.450   6.379   3.009  0.4904 -0.8445 -0.7076
16037TIP3    H269603   4.427   6.516   2.950 -1.4552 -0.0892  1.6392
16038TIP3   OH269604   1.837   2.825   2.071  0.4752  0.0668 -0.3446
16038TIP3    H169605   1.770   2.795   2.009 -0.3191 -0.0717  0.5658
16038TIP3    H269606   1.918   2.784   2.039 -0.1575 -1.0977 -0.5308
16039TIP3   OH269607   4.501   6.073   0.755  0.4478  0.3325  0.5317
16039TIP3    H169608   4.544   6.033   0.679  0.8946  1.3315  0.2485
16039TIP3    H269609   4.558   6.146   0.780 -1.0927  1.7262  0.1227
16040TIP3   OH269610   4.507   5.617   3.184 -0.2157 -0.4598 -0.1330
16040TIP3    H169611   4.518   5.626   3.279  0.4623 -1.8914 -0.0472
16040TIP3    H269612   4.469   5.700   3.156 -2.5906 -0.8179  1.6997
16041TIP3   OH269613   3.983   0.165   1.560  0.1677  0.1419 -0.3334
16041TIP3    H169614   3.962   0.222   1.634  1.7023 -0.3174  0.4980
16041TIP3    H269615   4.044   0.101   1.595 -1.9432 -2.4604 -1.0898
16042TIP3   OH269616   1.417   2.735   2.896 -0.1118 -0.7892 -0.0080
16042TIP3    H169617   1.456   2.813   2.857  0.6846 -1.1462  0.0674
16042TIP3    H269618   1.410   2.756   2.990  1.6725 -1.4232  0.3007
16043TIP3   OH269619   2.657   1.995  15.453  0.4867  0.8205 -0.1483
16043TIP3    H169620   2.704   2.062  15.405  2.0967 -0.7458 -0.8719
16043TIP3    H269621   2.595   2.043  15.508  2.7231  2.9779  0.6356
16044TIP3   OH269622   5.955   2.880   1.499  0.0775  0.2133  0.0441
16044TIP3    H169623   6.003   2.933   1.436  0.1449  1.2134  0.9170
16044TIP3    H269624   5.931   2.801   1.450  1.1707  0.4237 -0.8741
16045TIP3   OH269625   2.152   0.017   5.852 -0.0384 -0.5585 -0.2960
16045TIP3    H169626   2.198   0.089   5.895 -3.1833  2.2333 -1.2547
16045TIP3    H269627   2.136  -0.047   5.922  0.5721  0.8363  1.1689
16046TIP3   OH269628   3.632   6.051   5.214 -0.1769  0.1376 -0.0828
16046TIP3    H169629   3.612   5.966   5.175  2.3400 -0.2116 -0.7824
16046TIP3    H269630   3.597   6.115   5.153 -2.3813 -0.3128  0.6024
16047TIP3   OH269631   5.186   5.076   4.554 -0.6146  0.3714 -0.0734
16047TIP3    H169632   5.104   5.122   4.573  0.2806  1.0467  2.6812
16047TIP3    H269633   5.220   5.052   4.641  1.5695 -0.8416 -1.1836
16048TIP3   OH269634   5.356   2.894   6.514 -0.1825 -0.3723  0.6523
16048TIP3    H169635   5.382   2.955   6.583  0.7508  0.4474 -0.4008
16048TIP3    H269636   5.263   2.914   6.499  0.1526  0.9549  0.1881
16049TIP3   OH269637   4.615   4.448   3.180 -0.3207 -0.4716 -0.3453
16049TIP3    H169638   4.639   4.361   3.148  0.6592 -0.1009 -0.6301
16049TIP3    H269639   4.520   4.453   3.166 -0.6154 -1.9698  0.8703
16050TIP3   OH269640   5.589   4.613  13.866  0.1944  0.5344  0.3014
16050TIP3    H169641   5.574   4.597  13.959 -0.3068 -0.2247  0.0969
16050TIP3    H269642   5.684   4.611  13.856  0.2335  0.2173  0.7261
16051TIP3   OH269643   6.163   2.588   0.185 -0.3723 -0.1229  0.1830
16051TIP3    H169644   6.092   2.651   0.197  0.7258  0.9112  1.5478
16051TIP3    H269645   6.240   2.642   0.168  0.5915 -1.0729  1.3768
16052TIP3   OH269646   2.803   1.227  16.528 -0.3975  0.1925 -0.1964
16052TIP3    H169647   2.737   1.294  16.546 -0.4177  0.2322 -0.4192
16052TIP3    H269648   2.858   1.264  16.459 -0.2427  0.0906 -0.1299
16053TIP3   OH269649   0.796   4.457   0.814  0.0598  0.0968  0.3336
16053TIP3    H169650   0.841   4.484   0.734 -0.8136 -1.4883 -0.7403
16053TIP3    H269651   0.758   4.538   0.848  0.1244  0.7427 -1.0673
16054TIP3   OH269652   0.410   0.961  14.480  0.4733  0.0579  0.1579
16054TIP3    H169653   0.472   0.889  14.466 -0.9244 -1.0302 -0.8088
16054TIP3    H269654   0.451   1.037  14.439  1.4770 -0.4581  0.1839
16055TIP3   OH269655   1.799   1.621  12.586 -0.0153 -0.0354 -0.1912
16055TIP3    H169656   1.769   1.685  12.650  0.2533  1.1305 -1.2133
16055TIP3    H269657   1.726   1.612  12.525 -0.2627 -1.1352  0.2283
16056TIP3   OH269658   0.327   0.738   3.788  0.2862 -0.3029  0.0492
16056TIP3    H169659   0.313   0.806   3.722  0.0713 -0.2751  0.1217
16056TIP3    H269660   0.402   0.688   3.756 -0.0627 -0.5343 -0.4175
16057TIP3   OH269661   0.953   2.569   1.519  0.0948 -0.1493  0.0991
16057TIP3    H169662   1.043   2.552   1.547 -0.4589 -0.8622  1.5817
16057TIP3    H269663   0.924   2.488   1.478 -0.0544 -0.1269  0.1588
16058TIP3   OH269664   2.797   1.512   4.050  0.4843 -0.3455  0.2810
16058TIP3    H169665   2.709   1.517   4.011  0.0953  1.2465  1.3078
16058TIP3    H269666   2.833   1.599   4.040  1.6879 -0.7993  0.5222
16059TIP3   OH269667   5.910   2.465   5.820  0.1365  0.1340 -0.5004
16059TIP3    H169668   5.872   2.504   5.899  2.5089  0.4284  0.5585
16059TIP3    H269669   5.852   2.496   5.749 -1.3644  0.8295  0.9532
16060TIP3   OH269670   6.363   1.823  13.305  0.2948 -0.3852 -0.5020
16060TIP3    H169671   6.302   1.833  13.378  0.3496 -0.5830 -0.4290
16060TIP3    H269672   6.310   1.786  13.235  0.9137 -3.4142  0.4542
16061TIP3   OH269673   5.513   1.804  13.481  0.0187  0.0719  0.5737
16061TIP3    H169674   5.485   1.863  13.550  2.0319 -1.1341  2.5783
16061TIP3    H269675   5.454   1.729  13.488 -1.3922  1.0039 -0.7798
16062TIP3   OH269676   5.779   5.140  16.544  0.1044 -0.2996 -0.4749
16062TIP3    H169677   5.738   5.181  16.621 -1.1548  0.4810 -1.5075
16062TIP3    H269678   5.776   5.046  16.562  0.6941 -0.0857  0.8275
16063TIP3   OH269679   0.824   5.582   2.935  0.2227 -0.4804 -0.0300
16063TIP3    H169680   0.883   5.637   2.883  1.6927 -0.5259  1.4893
16063TIP3    H269681   0.736   5.612   2.913  0.7574 -0.6229 -2.6280
16064TIP3   OH269682   2.762   1.614   2.165 -0.5261  0.0133  0.0719
16064TIP3    H169683   2.809   1.588   2.086  0.5119  1.1540  0.3001
16064TIP3    H269684   2.674   1.636   2.134 -0.6581 -1.2438 -0.4911
16065TIP3   OH269685   0.842   0.771  17.101 -0.1230  0.2628 -0.3193
16065TIP3    H169686   0.781   0.812  17.163  0.4655 -0.1595  0.5740
16065TIP3    H269687   0.833   0.821  17.021 -0.5723  1.1411  0.2623
16066TIP3   OH269688   5.351   0.405  12.017 -0.2580  0.1095  0.2695
16066TIP3    H169689   5.400   0.486  12.005  0.2985 -0.3673 -0.8209
16066TIP3    H269690   5.355   0.361  11.932  1.2713 -2.0548  1.3517
16067TIP3   OH269691   5.553   3.149  13.777  0.5937 -0.2387  0.1711
16067TIP3    H169692   5.564   3.090  13.852  0.1560  1.1863  1.4105
16067TIP3    H269693   5.636   3.196  13.772  0.4045  0.0949  0.1532
16068TIP3   OH269694   2.634   1.802   4.686  0.4817  0.5289 -0.4075
16068TIP3    H169695   2.712   1.750   4.670  1.2281  1.6447 -0.4730
16068TIP3    H269696   2.561   1.740   4.674  1.3081 -0.3443 -1.0814
16069TIP3   OH269697   5.397   3.527  12.169 -0.5459  0.4084 -0.4822
16069TIP3    H169698   5.413   3.508  12.076  0.8136 -1.7952  0.1163
16069TIP3    H269699   5.473   3.580  12.195 -0.7998  0.8098 -0.5434
16070TIP3   OH269700   4.733   4.452  11.351  0.3643 -0.2397  0.6839
16070TIP3    H169701   4.769   4.411  11.429 -1.0315 -0.4050  1.2647
16070TIP3    H269702   4.739   4.385  11.283  0.2386 -0.5987  1.0263
16071TIP3   OH269703   4.507   6.230  11.807  0.3025 -0.0149 -0.4548
16071TIP3    H169704   4.480   6.176  11.881  0.5047  1.1289  0.4881
16071TIP3    H269705   4.473   6.185  11.730  0.5906 -1.5409  0.2799
16072TIP3   OH269706   4.930   4.093   5.058  0.3896 -0.0064  0.4186
16072TIP3    H169707   4.839   4.118   5.043  0.3924  0.3701  0.9969
16072TIP3    H269708   4.926   3.999   5.076 -0.2157  0.4369  2.9554
16073TIP3   OH269709   5.070   1.412   0.905  0.3711 -0.4509  0.4393
16073TIP3    H169710   5.110   1.496   0.929 -0.5602 -0.2443  1.3882
16073TIP3    H269711   5.143   1.351   0.898  1.2567  0.7332 -1.7769
16074TIP3   OH269712   4.753   5.732   5.210 -0.3420  0.1850 -0.1832
16074TIP3    H169713   4.710   5.815   5.233 -0.4930  0.0227  0.1230
16074TIP3    H269714   4.759   5.685   5.293 -1.1273 -0.5226 -0.5262
16075TIP3   OH269715   3.892   0.789   5.514  0.1799  0.0116 -0.6171
16075TIP3    H169716   3.835   0.713   5.499 -1.8758  0.8788  2.0621
16075TIP3    H269717   3.832   0.860   5.537  2.2019  1.7872 -0.5209
16076TIP3   OH269718   6.024   3.630   5.884 -0.0087 -0.4176 -0.5793
16076TIP3    H169719   6.001   3.586   5.966  2.3002  2.6226  1.9393
16076TIP3    H269720   6.083   3.569   5.841  0.3018 -1.3230  1.0205
16077TIP3   OH269721   3.649   1.516   4.338  0.1182 -1.1636  0.1849
16077TIP3    H169722   3.723   1.576   4.332 -0.4297 -0.4793  0.0853
16077TIP3    H269723   3.572   1.572   4.331 -0.4178 -2.0576 -2.0871
16078TIP3   OH269724   5.906   2.714  14.949  0.2848 -0.2058  0.0570
16078TIP3    H169725   5.886   2.807  14.958  1.5794  0.1012 -0.0760
16078TIP3    H269726   5.836   2.681  14.893 -0.1061  0.7211 -0.0301
16079TIP3   OH269727   5.293   1.532   3.235 -0.3391 -0.0044  0.0440
16079TIP3    H169728   5.295   1.613   3.183  3.2447  0.6540  0.9879
16079TIP3    H269729   5.286   1.562   3.326  1.2893 -0.6816  0.4227
16080TIP3   OH269730   0.736   1.747   0.035  0.6924 -0.2057  0.0966
16080TIP3    H169731   0.687   1.712  -0.039  0.8461 -0.1287 -0.0439
16080TIP3    H269732   0.816   1.783  -0.004  0.7186 -0.0545  0.2841
16081TIP3   OH269733   2.052   3.737   4.325  0.1402  0.7302  0.1870
16081TIP3    H169734   2.022   3.808   4.268 -0.2348 -0.4170 -1.1042
16081TIP3    H269735   1.976   3.678   4.330  0.8193 -0.1496  0.2698
16082TIP3   OH269736   3.779   0.248   2.329  0.0544  0.5863 -0.6455
16082TIP3    H169737   3.870   0.218   2.336 -0.2703 -0.0424  1.6472
16082TIP3    H269738   3.786   0.336   2.293  1.7819  1.3725  1.3556
16083TIP3   OH269739   5.248   3.055   2.907 -0.1606 -0.1936 -0.4044
16083TIP3    H169740   5.255   3.139   2.864 -0.5776 -0.0667 -0.2310
16083TIP3    H269741   5.330   3.045   2.955  0.3025 -0.3351 -1.2080
16084TIP3   OH269742   3.983   4.016   2.703 -0.3681  0.0564  0.2380
16084TIP3    H169743   3.917   4.012   2.772  0.3278 -0.7671  0.8909
16084TIP3    H269744   3.933   4.026   2.622 -1.3597 -1.5301  0.6124
16085TIP3   OH269745   0.885   1.457  13.435 -0.3951  0.2719  0.0334
16085TIP3    H169746   0.898   1.398  13.509 -2.5167  1.4986  1.5019
16085TIP3    H269747   0.833   1.529  13.471 -1.7367  0.7912 -2.7042
16086TIP3   OH269748   0.689   3.688  16.009  0.0812  0.0890  0.2300
16086TIP3    H169749   0.776   3.655  15.988 -0.5181 -0.6109 -1.2709
16086TIP3    H269750   0.689   3.779  15.979  0.9264  0.7511  2.1044
16087TIP3   OH269751   5.610   2.602  15.192 -0.5431 -0.0428  0.1664
16087TIP3    H169752   5.659   2.605  15.274 -1.4784 -1.8590  0.8386
16087TIP3    H269753   5.649   2.529  15.144 -0.7298  0.3077 -0.5270
16088TIP3   OH269754   3.964   5.266   2.717  0.0675 -0.1969  0.5751
16088TIP3    H169755   3.912   5.224   2.785  0.1487 -0.1558  0.6634
16088TIP3    H269756   3.914   5.254   2.637  0.8869 -1.9723  0.2773
16089TIP3   OH269757   6.328   0.936   6.017  0.3643 -0.1647 -0.2908
16089TIP3    H169758   6.403   0.886   6.049  0.5060  0.0200 -0.3390
16089TIP3    H269759   6.297   0.984   6.093  2.0950  2.0808 -0.9052
16090TIP3   OH269760   1.087   4.222  11.334  0.1100 -0.3858 -0.1711
16090TIP3    H169761   1.025   4.218  11.407  1.1887 -0.0901  0.7931
16090TIP3    H269762   1.079   4.137  11.290  1.7023 -1.9090  2.2311
16091TIP3   OH269763   4.736   5.201   3.319 -0.8736  0.0705 -0.0343
16091TIP3    H169764   4.643   5.190   3.296 -1.0061  2.3684 -0.9331
16091TIP3    H269765   4.778   5.225   3.236  0.8563 -2.3185  0.0702
16092TIP3   OH269766   1.832   2.572  13.922 -0.0903 -0.1478 -0.1518
16092TIP3    H169767   1.765   2.564  13.990  1.2798  1.1404  1.4301
16092TIP3    H269768   1.802   2.514  13.852 -0.9373 -2.5073  2.0186
16093TIP3   OH269769   4.464   6.151  13.627 -0.7255  0.2802 -0.0352
16093TIP3    H169770   4.517   6.084  13.584 -1.2877 -0.5954  0.6253
16093TIP3    H269771   4.527   6.201  13.680 -0.1085  1.0469 -1.4211
16094TIP3   OH269772   3.812   6.145  15.287  0.4989 -0.2703 -0.0638
16094TIP3    H169773   3.784   6.095  15.363 -1.1253  0.1737 -0.3280
16094TIP3    H269774   3.767   6.103  15.213  0.7412  0.3054 -0.5475
16095TIP3   OH269775   5.806   0.770   5.921  0.0975  0.1606  0.2776
16095TIP3    H169776   5.862   0.822   5.864 -0.4251  1.1919  0.6921
16095TIP3    H269777   5.855   0.689   5.935  1.6681  1.1829  0.9214
16096TIP3   OH269778   3.114   5.678   5.011 -0.2659  1.2617 -0.1210
16096TIP3    H169779   3.022   5.686   4.987 -0.0173 -0.4141 -1.9498
16096TIP3    H269780   3.118   5.601   5.068 -0.1033  1.8465  0.6660
16097TIP3   OH269781   3.111   4.916   2.401 -0.1885  0.4539 -0.3037
16097TIP3    H169782   3.169   4.965   2.342 -0.2075  0.0064 -0.7019
16097TIP3    H269783   3.031   4.903   2.350  0.4051 -1.4227 -0.8386
16098TIP3   OH269784   6.809   5.429   4.478  0.7103 -0.0448  0.1049
16098TIP3    H169785   6.821   5.340   4.446  1.3178 -0.1697  0.6582
16098TIP3    H269786   6.846   5.428   4.566 -0.9049  0.2874  0.8313
16099TIP3   OH269787   0.421   6.239  12.019  0.0224 -0.7077  0.2397
16099TIP3    H169788   0.327   6.251  12.030  0.1782  0.0128  0.8375
16099TIP3    H269789   0.458   6.327  12.023  0.7119 -0.9659 -0.1322
16100TIP3   OH269790   3.505   2.276   4.979 -0.1881  0.3049  0.3384
16100TIP3    H169791   3.539   2.339   5.042  2.9926  0.2884 -1.1833
16100TIP3    H269792   3.487   2.197   5.031  0.8174  0.7921  1.4541
16101TIP3   OH269793   1.496   0.282  16.484 -0.0561 -0.3199 -0.3398
16101TIP3    H169794   1.547   0.252  16.559  0.3288  1.1328  0.0058
16101TIP3    H269795   1.495   0.207  16.424 -1.1045 -1.8395  1.4586
16102TIP3   OH269796   0.369   2.278   0.396  0.0848  0.4836 -0.0958
16102TIP3    H169797   0.331   2.198   0.431  1.5526 -0.0276  0.4148
16102TIP3    H269798   0.343   2.347   0.457  0.5698  0.0191  0.6511
16103TIP3   OH269799   0.333   1.956   4.298  0.3324  0.1052  0.5277
16103TIP3    H169800   0.376   1.929   4.379  1.5184  2.5308  0.8000
16103TIP3    H269801   0.278   2.030   4.323  0.5495  0.7616 -0.8309
16104TIP3   OH269802   0.732   3.863  14.182  0.2626 -0.7924  0.4190
16104TIP3    H169803   0.648   3.829  14.151  0.2918 -1.3147  0.9079
16104TIP3    H269804   0.728   3.854  14.277  2.3634 -4.4993  0.3432
16105TIP3   OH269805   0.939   6.401  11.288  0.4220 -0.0271 -0.3081
16105TIP3    H169806   0.979   6.487  11.295  0.4831 -0.0587 -0.2642
16105TIP3    H269807   0.933   6.370  11.379  0.1498  0.0458 -0.3009
16106TIP3   OH269808   2.366   2.513   3.925 -0.1852 -0.5093 -0.6327
16106TIP3    H169809   2.290   2.485   3.874 -1.5855  2.0676 -0.1435
16106TIP3    H269810   2.421   2.561   3.863 -0.2943 -0.1321 -0.4445
16107TIP3   OH269811   0.300   1.152   2.573  0.0606  0.1549  0.1044
16107TIP3    H169812   0.233   1.145   2.504 -1.3200  2.3221  1.1226
16107TIP3    H269813   0.383   1.156   2.526 -0.6139 -1.0228 -1.2765
16108TIP3   OH269814   3.300   0.676   1.223 -0.2215 -0.1608 -0.0677
16108TIP3    H169815   3.245   0.602   1.249 -0.4201  0.7917  2.3992
16108TIP3    H269816   3.389   0.648   1.245 -0.3035  0.3398  0.9299
16109TIP3   OH269817   1.405   0.776  15.707 -0.4562  0.4317  0.6456
16109TIP3    H169818   1.370   0.715  15.642 -1.2712 -0.2859  1.7271
16109TIP3    H269819   1.376   0.863  15.677  0.3830  0.2867 -0.6905
16110TIP3   OH269820   4.727   2.656  16.489  0.0399  0.2146  0.0435
16110TIP3    H169821   4.741   2.562  16.477  1.0130  0.4538 -0.8815
16110TIP3    H269822   4.656   2.678  16.428  1.6692  0.5413 -1.8252
16111TIP3   OH269823   5.083   6.222  12.427 -0.0790 -0.2638 -0.4953
16111TIP3    H169824   5.005   6.259  12.386  1.0092  1.0108 -1.5134
16111TIP3    H269825   5.139   6.196  12.353  0.5962 -0.8871  0.2117
16112TIP3   OH269826   0.389   0.133   3.737 -0.1918  0.2776  0.3692
16112TIP3    H169827   0.409   0.207   3.795 -1.9342  1.5878 -0.5991
16112TIP3    H269828   0.389   0.170   3.649  0.2199 -1.1944 -0.2827
16113TIP3   OH269829   4.756   5.445  11.952 -0.6224  0.6721 -0.0350
16113TIP3    H169830   4.762   5.452  11.857  0.7904 -0.6393 -0.0778
16113TIP3    H269831   4.846   5.457  11.983 -0.8219 -0.3403  1.0109
16114TIP3   OH269832   4.635   0.822   0.552 -0.3448  0.3875 -0.6328
16114TIP3    H169833   4.662   0.901   0.506 -0.5280  0.6463 -0.2973
16114TIP3    H269834   4.601   0.853   0.636 -1.6439  0.0725 -1.0211
16115TIP3   OH269835   4.883   2.064   4.719 -0.5373 -0.8470 -0.0062
16115TIP3    H169836   4.821   2.063   4.792 -0.5648 -1.8589 -0.0327
16115TIP3    H269837   4.874   2.151   4.681 -1.2486 -0.6577  0.5806
16116TIP3   OH269838   5.972   3.379   1.352 -0.2015  0.7231  0.0402
16116TIP3    H169839   5.958   3.473   1.342  1.4716  1.1983  1.7293
16116TIP3    H269840   5.884   3.342   1.346 -0.9252  2.3990 -0.4135
16117TIP3   OH269841   6.455   1.920   5.843 -0.2191 -0.8465 -0.0414
16117TIP3    H169842   6.372   1.969   5.837 -0.4837 -1.1686  0.7877
16117TIP3    H269843   6.474   1.918   5.937  1.8376  1.0214 -0.3243
16118TIP3   OH269844   6.651   0.692   0.035  0.2837 -0.0125 -0.8139
16118TIP3    H169845   6.562   0.659   0.047  0.1693  0.5537 -0.0468
16118TIP3    H269846   6.672   0.672  -0.057 -0.8166  0.2823 -1.1397
16119TIP3   OH269847   5.125   5.908  15.343  0.4618 -0.3285 -0.1616
16119TIP3    H169848   5.112   5.924  15.250 -0.7385  2.0816  0.3439
16119TIP3    H269849   5.052   5.852  15.369  0.9355 -1.2102 -0.6778
16120TIP3   OH269850   1.478   4.651  12.345  0.4629 -0.5401  0.1581
16120TIP3    H169851   1.409   4.708  12.313  1.2642  0.9100  0.8773
16120TIP3    H269852   1.470   4.571  12.294 -1.3266 -0.1626 -0.2036
16121TIP3   OH269853   5.715   6.829   0.170  0.4970 -0.0216 -0.0504
16121TIP3    H169854   5.677   6.909   0.134 -1.3490 -0.2012  1.3403
16121TIP3    H269855   5.762   6.789   0.097  1.9003  2.5417 -0.6632
16122TIP3   OH269856   0.303   4.701  16.634  0.4286 -0.1075 -0.4637
16122TIP3    H169857   0.217   4.743  16.628  1.1789  1.5504 -0.1432
16122TIP3    H269858   0.323   4.702  16.728  0.1968 -1.8524 -0.3454
16123TIP3   OH269859   3.384   3.145  13.951  0.4531  0.4821  0.3136
16123TIP3    H169860   3.306   3.184  13.912 -0.0181 -0.8051 -0.0969
16123TIP3    H269861   3.455   3.171  13.894  0.2532  1.2725  0.4170
16124TIP3   OH269862   4.474   6.146  12.308  0.1190  0.1889  0.1028
16124TIP3    H169863   4.516   6.225  12.274 -0.2857  0.1638 -0.4682
16124TIP3    H269864   4.425   6.176  12.385 -0.9159  0.7210 -0.7303
16125TIP3   OH269865   1.698   3.222  13.502  0.0566  0.2657  0.7348
16125TIP3    H169866   1.712   3.137  13.543  0.5985 -0.6249 -1.1836
16125TIP3    H269867   1.617   3.211  13.452 -0.2846  1.1360  1.0819
16126TIP3   OH269868   1.089   5.055  15.245 -0.0067 -0.2897 -0.2858
16126TIP3    H169869   1.160   5.118  15.235 -1.1402  1.0756  0.0241
16126TIP3    H269870   1.028   5.096  15.307 -2.7332  0.1565 -3.0035
16127TIP3   OH269871   6.637   3.920  11.039  0.3581  0.2264 -0.6253
16127TIP3    H169872   6.634   3.829  11.012  0.4668  0.2065 -0.5723
16127TIP3    H269873   6.547   3.951  11.032  0.5516  0.5455 -2.1155
16128TIP3   OH269874   6.715   3.453  16.306 -0.0198 -0.4403 -0.1987
16128TIP3    H169875   6.622   3.476  16.303 -0.1200 -0.0408  2.8396
16128TIP3    H269876   6.759   3.531  16.271 -0.7558 -0.6848 -1.8046
16129TIP3   OH269877   3.227   6.466  11.516 -0.4924 -0.1668 -0.0566
16129TIP3    H169878   3.189   6.536  11.463 -0.4426  0.7971  1.1577
16129TIP3    H269879   3.152   6.421  11.554 -0.4765  0.3781  0.6205
16130TIP3   OH269880   5.711   5.695  16.583 -0.0505 -0.8303  0.0467
16130TIP3    H169881   5.803   5.670  16.573 -0.3870 -1.8221 -0.6453
16130TIP3    H269882   5.682   5.716  16.495 -1.2354 -3.2718 -0.2327
16131TIP3   OH269883   1.711   1.534  11.556  0.1169  0.2896  0.7102
16131TIP3    H169884   1.685   1.617  11.517  0.2596 -0.1098 -0.2779
16131TIP3    H269885   1.703   1.548  11.650  4.2687  2.9180  0.9396
16132TIP3   OH269886   6.166   6.379  13.240  0.1649  0.1042 -0.0715
16132TIP3    H169887   6.206   6.410  13.321  0.9531 -0.3299 -0.2835
16132TIP3    H269888   6.104   6.448  13.215  0.2609  0.4531  0.6423
16133TIP3   OH269889   1.538   0.570  16.484  0.3865 -0.1369  0.3307
16133TIP3    H169890   1.524   0.475  16.480 -2.1274  0.1863  0.2146
16133TIP3    H269891   1.583   0.583  16.568 -2.0350 -1.1977  1.9086
16134TIP3   OH269892   6.149   1.261   1.932 -0.2510  0.2321 -0.7025
16134TIP3    H169893   6.205   1.210   1.874  0.6365 -0.6208  0.8209
16134TIP3    H269894   6.206   1.330   1.966  0.3643 -1.3544  1.7944
16135TIP3   OH269895   4.744   5.472   3.413 -0.0030  0.0943 -0.0872
16135TIP3    H169896   4.664   5.524   3.424 -0.2969 -0.4879  0.6414
16135TIP3    H269897   4.713   5.384   3.392  0.4998  0.2474 -1.5513
16136TIP3   OH269898   0.411   0.290   5.113  0.3792  0.1112 -0.0246
16136TIP3    H169899   0.481   0.247   5.064 -0.2626  1.7248 -2.5324
16136TIP3    H269900   0.457   0.347   5.175  1.3127  0.6065 -1.1265
16137TIP3   OH269901   2.996   0.067   1.926 -0.1721  0.5731 -0.1716
16137TIP3    H169902   2.988  -0.021   1.962 -0.6266  0.9614  0.7252
16137TIP3    H269903   3.088   0.090   1.938 -0.2454  0.5643  0.4434
16138TIP3   OH269904   1.110   5.951   4.289 -0.0419 -0.1106 -1.1833
16138TIP3    H169905   1.121   5.856   4.282  0.4359 -0.2525  0.9105
16138TIP3    H269906   1.023   5.962   4.327  0.7691  0.1328  0.7299
16139TIP3   OH269907   4.153   0.359   3.956 -0.2232  0.3574  0.4651
16139TIP3    H169908   4.122   0.329   3.870 -0.3008  1.0856  0.2317
16139TIP3    H269909   4.109   0.444   3.969 -0.1241  0.3064  1.1753
16140TIP3   OH269910   4.824   4.872  16.221  0.1506 -0.9851 -0.2714
16140TIP3    H169911   4.743   4.872  16.172  0.3343 -0.4736 -0.5813
16140TIP3    H269912   4.808   4.812  16.294 -1.4284  1.0735  1.1839
16141TIP3   OH269913   3.794   0.578   2.691  0.1148  0.7420 -0.1932
16141TIP3    H169914   3.875   0.559   2.644 -0.2789 -0.6542 -0.3385
16141TIP3    H269915   3.796   0.519   2.767 -1.7790 -0.9544 -1.3684
16142TIP3   OH269916   0.901   6.036  14.211  0.0656  0.5081 -0.4747
16142TIP3    H169917   0.895   6.119  14.165  0.9420  0.9811  0.2175
16142TIP3    H269918   0.966   5.985  14.162  0.0803  0.5207 -0.4684
16143TIP3   OH269919   6.604   4.115  15.979 -0.1885 -0.0691  0.2913
16143TIP3    H169920   6.601   4.027  16.017  2.7951 -1.0311 -1.4087
16143TIP3    H269921   6.624   4.101  15.887 -2.5676  2.3599 -0.7324
16144TIP3   OH269922   2.809   1.772  16.213  0.1939  0.0942  0.5275
16144TIP3    H169923   2.849   1.688  16.235  0.7925  0.5788  1.3707
16144TIP3    H269924   2.854   1.835  16.269 -0.2633  0.9750 -0.0724
16145TIP3   OH269925   3.268   5.452  10.786 -0.7726 -0.3136  0.7480
16145TIP3    H169926   3.327   5.377  10.780  0.9206  1.0368 -0.3326
16145TIP3    H269927   3.194   5.428  10.730  0.9712 -0.1885 -1.8126
16146TIP3   OH269928   2.750   4.380  11.160  0.0974 -0.2356  0.0167
16146TIP3    H169929   2.675   4.414  11.110  1.0718  2.0907  0.0471
16146TIP3    H269930   2.803   4.334  11.094  0.1527  0.7276 -0.6272
16147TIP3   OH269931   0.776   0.963  10.620  0.5905  0.1692 -0.0071
16147TIP3    H169932   0.731   0.915  10.550  0.6995  0.2793 -0.1536
16147TIP3    H269933   0.868   0.941  10.609  0.4289 -1.2438  1.2193
16148TIP3   OH269934   1.555   1.258   5.262  0.8372  0.0210 -0.5444
16148TIP3    H169935   1.599   1.303   5.189 -0.7860  2.8374  0.0787
16148TIP3    H269936   1.619   1.259   5.333  0.9111  1.2006 -0.6161
16149TIP3   OH269937   5.057   3.660  10.862  0.0730 -0.0473 -0.0860
16149TIP3    H169938   5.139   3.611  10.856 -0.0221 -0.1030 -1.0119
16149TIP3    H269939   4.993   3.597  10.895  0.2891 -0.1369  0.1643
16150TIP3   OH269940   1.162   4.057  15.287 -0.3632 -0.0152 -0.5448
16150TIP3    H169941   1.226   4.089  15.222  0.5114 -0.2208  0.1942
16150TIP3    H269942   1.204   3.980  15.326 -1.4609 -0.7059 -0.6708
16151TIP3   OH269943   5.304   6.701  14.417 -0.1362  0.0682  0.3173
16151TIP3    H169944   5.228   6.661  14.458 -1.5708  1.1505 -1.1628
16151TIP3    H269945   5.283   6.794  14.413  1.2805  0.3975 -0.1091
16152TIP3   OH269946   0.014   1.179   2.412 -0.3954  0.3365 -0.4218
16152TIP3    H169947   0.016   1.191   2.317  0.7523 -1.1885 -0.6336
16152TIP3    H269948   0.014   1.267   2.447  0.9659  0.9547 -1.8395
16153TIP3   OH269949   4.896   3.667  15.398 -0.3953 -0.0023  0.2157
16153TIP3    H169950   4.932   3.754  15.378 -1.2036 -0.1910 -2.4514
16153TIP3    H269951   4.972   3.609  15.397  0.2337  0.6812  2.5743
16154TIP3   OH269952   4.309   5.888   3.451  0.1384  0.2631 -0.6638
16154TIP3    H169953   4.361   5.934   3.517 -0.1296  0.8923 -0.8832
16154TIP3    H269954   4.313   5.944   3.374  1.9718 -1.3088 -1.8229
16155TIP3   OH269955   1.875   5.716   3.087  0.1111  0.1390 -0.0645
16155TIP3    H169956   1.901   5.808   3.079 -1.4850  0.6350  0.0862
16155TIP3    H269957   1.902   5.691   3.176 -0.7369  0.9024  0.4132
16156TIP3   OH269958   1.780   3.402   0.608 -0.0280  0.6859  0.5953
16156TIP3    H169959   1.851   3.461   0.583  0.2929  0.6757  1.4561
16156TIP3    H269960   1.701   3.455   0.598  0.2149  1.1018  0.8363
16157TIP3   OH269961   5.275   1.540   5.520  0.3778 -0.1007  0.5374
16157TIP3    H169962   5.285   1.573   5.609  2.2307  0.2905  0.2253
16157TIP3    H269963   5.185   1.562   5.496  0.4023  1.3653  1.6901
16158TIP3   OH269964   0.837   6.626  16.270  0.1585  0.7592 -0.0313
16158TIP3    H169965   0.917   6.621  16.323  1.3418  0.6999 -1.7375
16158TIP3    H269966   0.832   6.541  16.225 -1.8124  0.1159  1.2890
16159TIP3   OH269967   2.179   0.776   3.392 -0.2887  0.2426  0.2485
16159TIP3    H169968   2.195   0.824   3.473  1.3141  0.4971 -0.1939
16159TIP3    H269969   2.187   0.841   3.323  0.1866 -0.3273 -0.2424
16160TIP3   OH269970   0.692   6.407  12.162  0.0755 -0.3460 -0.2625
16160TIP3    H169971   0.621   6.456  12.121  1.5623  1.0245 -1.3336
16160TIP3    H269972   0.674   6.316  12.140 -1.6187 -0.0860 -0.0569
16161TIP3   OH269973   5.099   1.165  14.830  0.4587 -0.9921 -0.3264
16161TIP3    H169974   5.080   1.096  14.767 -1.2846  0.4092 -1.4302
16161TIP3    H269975   5.062   1.244  14.791  0.1974  0.1278  2.0274
16162TIP3   OH269976   1.360   0.653  10.855 -0.2461 -0.0234 -0.0037
16162TIP3    H169977   1.277   0.669  10.809  0.3043  0.7683 -0.7320
16162TIP3    H269978   1.333   0.607  10.935 -1.7041  2.5783  1.1220
16163TIP3   OH269979   3.476   5.477   1.854  0.4715 -0.2719  0.3639
16163TIP3    H169980   3.416   5.413   1.817 -0.2937  1.1285 -0.9338
16163TIP3    H269981   3.560   5.430   1.861 -0.3527 -1.7586  0.6611
16164TIP3   OH269982   3.058   2.569  12.999 -0.2051  0.0843 -0.5224
16164TIP3    H169983   3.089   2.547  12.911  1.6433 -2.0241  0.5380
16164TIP3    H269984   3.138   2.572  13.052 -1.3517  0.1067  1.3033
16165TIP3   OH269985   2.274   4.660  13.945 -0.3811  0.0147  0.1445
16165TIP3    H169986   2.261   4.714  13.867  0.9235  3.6247  2.1939
16165TIP3    H269987   2.203   4.685  14.004  1.1606  0.8616  1.7592
16166TIP3   OH269988   0.839   3.612  16.522 -0.0586 -0.1575 -0.0811
16166TIP3    H169989   0.902   3.665  16.570  0.0918 -0.0961 -0.3447
16166TIP3    H269990   0.888   3.578  16.447 -0.5675  0.6156 -0.7835
16167TIP3   OH269991   0.368   3.960  15.845  0.0771 -0.2006  0.2446
16167TIP3    H169992   0.377   4.053  15.824 -0.2247 -0.4447 -1.0168
16167TIP3    H269993   0.286   3.934  15.803  0.3100 -1.1043  0.3463
16168TIP3   OH269994   2.088   6.763  14.251  0.1887 -0.3008  0.1468
16168TIP3    H169995   2.064   6.768  14.344 -0.6352 -2.1930  0.1062
16168TIP3    H269996   2.181   6.742  14.251 -0.3190 -3.0618  0.7349
16169TIP3   OH269997   5.386   3.983  13.213 -0.0950  0.4147  0.3612
16169TIP3    H169998   5.394   3.894  13.178  1.9858  0.8888 -0.5943
16169TIP3    H269999   5.310   3.981  13.270 -1.2739 -1.4671 -1.1720
16170TIP3   OH270000   6.753   4.184  10.920  0.1389 -0.0366 -0.3270
16170TIP3    H170001   6.718   4.110  10.970 -0.6857  1.0532  0.7607
16170TIP3    H270002   6.835   4.151  10.882  1.9592 -0.3268  3.4630
16171TIP3   OH270003   5.296   0.699  15.337  0.7103 -0.5262 -0.1397
16171TIP3    H170004   5.257   0.737  15.258 -0.4195 -0.2439  0.5355
16171TIP3    H270005   5.344   0.623  15.305 -2.8957 -2.7804 -0.7165
16172TIP3   OH270006   3.046   2.414   1.180  0.3453  0.3323 -0.5815
16172TIP3    H170007   3.017   2.327   1.151  1.0849  0.4161 -1.6465
16172TIP3    H270008   2.965   2.460   1.201 -0.1228 -0.3176 -0.9085
16173TIP3   OH270009   1.569   1.581   2.895  0.4807  0.0455  0.0904
16173TIP3    H170010   1.592   1.490   2.878  0.5358  0.3496 -1.7581
16173TIP3    H270011   1.582   1.625   2.810 -1.2589  1.3979  0.4567
16174TIP3   OH270012   5.051   3.551  14.080  0.0320  0.0694  0.4850
16174TIP3    H170013   5.024   3.584  13.994 -0.6692 -1.2217  0.1697
16174TIP3    H270014   5.135   3.593  14.097  0.0289  0.5952 -0.6845
16175TIP3   OH270015   1.486   1.275   2.678 -0.0369  0.3553 -0.2963
16175TIP3    H170016   1.394   1.284   2.704 -0.3556  2.5298 -1.8705
16175TIP3    H270017   1.483   1.257   2.584  1.1110  1.3765 -0.5598
16176TIP3   OH270018   2.773   4.246   4.022  0.1233 -0.7567 -0.5207
16176TIP3    H170019   2.783   4.156   3.991  0.5217 -0.3732 -1.5530
16176TIP3    H270020   2.778   4.239   4.117 -0.5495 -1.9055 -0.5515
16177TIP3   OH270021   2.995   4.233  15.182 -0.3568 -0.5162 -0.2016
16177TIP3    H170022   3.064   4.262  15.123  0.3176 -2.0982 -0.2370
16177TIP3    H270023   2.930   4.190  15.125  0.1430 -1.7626  0.1296
16178TIP3   OH270024   6.212   6.764   0.981  0.0532  0.0457 -0.4611
16178TIP3    H170025   6.231   6.680   0.938  1.9354  1.1953 -2.0661
16178TIP3    H270026   6.288   6.781   1.036  0.0022  0.9910 -0.6585
16179TIP3   OH270027   2.058   2.015  15.268 -0.9029 -0.5069  0.0437
16179TIP3    H170028   2.125   1.973  15.322 -0.5845 -0.4201 -0.2816
16179TIP3    H270029   2.012   2.074  15.328 -0.2565 -0.0777  0.1145
16180TIP3   OH270030   3.741   4.721  16.055 -0.0368 -0.6056  0.3912
16180TIP3    H170031   3.710   4.630  16.060  0.1097 -0.6207  1.2110
16180TIP3    H270032   3.754   4.746  16.146  1.2860 -0.2240  0.1196
16181TIP3   OH270033   0.659   3.275  13.279  0.1708  0.6360  0.2951
16181TIP3    H170034   0.621   3.201  13.232 -0.5615  0.6562  0.8323
16181TIP3    H270035   0.680   3.339  13.211  4.8506 -1.6187 -0.8101
16182TIP3   OH270036   1.641   4.993  12.795 -0.9923  0.3709 -0.4057
16182TIP3    H170037   1.668   5.044  12.719 -0.5762 -0.5488 -0.8876
16182TIP3    H270038   1.560   4.949  12.767 -0.5147 -0.4425 -0.5366
16183TIP3   OH270039   0.242   1.323   3.464 -0.0062 -0.3802  0.3018
16183TIP3    H170040   0.191   1.369   3.397  0.0731 -0.1081  0.4234
16183TIP3    H270041   0.256   1.236   3.428  0.5760 -0.0427 -0.3189
16184TIP3   OH270042   4.705   2.972  10.689 -0.4503  0.0305  0.2494
16184TIP3    H170043   4.739   3.017  10.767  0.3029  0.0538 -0.0858
16184TIP3    H270044   4.736   2.882  10.698  2.9282  0.8165 -1.8434
16185TIP3   OH270045   3.480   1.077   4.292  0.8046 -0.1518 -0.0529
16185TIP3    H170046   3.556   1.089   4.350 -0.1756  2.3224  0.8094
16185TIP3    H270047   3.513   1.100   4.205  0.8471  1.9479  0.4727
16186TIP3   OH270048   5.443   3.359   0.980  0.7261 -0.3990 -0.2365
16186TIP3    H170049   5.448   3.297   0.908  2.2699 -0.4013 -0.1439
16186TIP3    H270050   5.373   3.420   0.955  0.2554 -1.2541 -1.0341
16187TIP3   OH270051   0.718   3.424   4.946  0.0602  0.2959  0.2095
16187TIP3    H170052   0.786   3.363   4.973  1.5984  1.5559 -0.6241
16187TIP3    H270053   0.702   3.403   4.854 -1.2755 -0.4946  0.5953
16188TIP3   OH270054   4.629   3.373   6.125 -0.0757 -0.1547 -0.0827
16188TIP3    H170055   4.696   3.315   6.162 -0.2239  1.4611  3.0733
16188TIP3    H270056   4.564   3.381   6.195 -2.7720 -0.2955 -2.3901
16189TIP3   OH270057   1.228   6.671  15.078 -0.1422  0.3034 -0.5227
16189TIP3    H170058   1.273   6.656  14.995 -1.5476 -0.0822 -1.2396
16189TIP3    H270059   1.182   6.754  15.066  0.4519  0.7618  0.2520
16190TIP3   OH270060   2.303   0.406   0.564  0.3179  0.4731  0.4212
16190TIP3    H170061   2.252   0.474   0.609  0.3197  0.2182  0.8151
16190TIP3    H270062   2.367   0.454   0.512 -2.0513  0.9556 -2.3036
16191TIP3   OH270063   5.676   4.569  11.122  0.8545  0.0908 -0.5600
16191TIP3    H170064   5.616   4.584  11.049  1.0097  0.9437 -0.5213
16191TIP3    H270065   5.726   4.491  11.097  1.9183  1.2154 -2.0401
16192TIP3   OH270066   1.410   0.015   3.936 -0.3186 -0.2100  0.4189
16192TIP3    H170067   1.497  -0.023   3.948  0.7009  1.3029 -1.4711
16192TIP3    H270068   1.350  -0.056   3.954  1.4090 -1.9635 -0.3736
16193TIP3   OH270069   6.581   3.590  11.763  0.1928 -0.1421 -0.4088
16193TIP3    H170070   6.643   3.628  11.700  2.3218 -1.1342  0.9512
16193TIP3    H270071   6.527   3.530  11.711  0.7411  0.3301 -1.5647
16194TIP3   OH270072   4.182   3.041  16.428 -0.4227  0.0630 -0.2428
16194TIP3    H170073   4.272   3.040  16.396 -0.5246 -1.7846 -0.5637
16194TIP3    H270074   4.129   3.057  16.350 -0.4220  0.1080 -0.2330
16195TIP3   OH270075   3.321   0.641  14.405  0.3271  0.0418  0.6203
16195TIP3    H170076   3.404   0.653  14.358  0.0711  1.8496  0.5538
16195TIP3    H270077   3.279   0.727  14.402 -2.6606 -1.2840 -1.3935
16196TIP3   OH270078   2.387   5.559  13.335 -0.4292  0.1805  0.1933
16196TIP3    H170079   2.366   5.606  13.415  0.5279  0.0844  0.5084
16196TIP3    H270080   2.482   5.557  13.332 -0.4376 -1.2117 -0.1086
16197TIP3   OH270081   5.823   1.894   1.292 -0.2824  0.2905  0.9042
16197TIP3    H170082   5.863   1.933   1.369  0.9930  0.9612 -0.0576
16197TIP3    H270083   5.772   1.965   1.253  2.3826  1.2534 -1.0825
16198TIP3   OH270084   4.917   0.116   4.627  0.1271 -0.3147 -0.0610
16198TIP3    H170085   4.946   0.123   4.718 -0.0533 -1.8527  0.1326
16198TIP3    H270086   4.821   0.112   4.632  0.0450  0.7016 -0.4225
16199TIP3   OH270087   5.717   3.320  13.186 -0.1584 -0.1584 -0.0918
16199TIP3    H170088   5.804   3.341  13.219  1.4282 -0.9817 -3.3673
16199TIP3    H270089   5.683   3.255  13.247  1.1314  0.7859  1.7250
16200TIP3   OH270090   3.434   4.456   1.048 -0.3896 -0.3560 -0.3941
16200TIP3    H170091   3.364   4.392   1.059  0.5796 -1.4257 -0.3838
16200TIP3    H270092   3.432   4.479   0.955 -0.4870 -0.6806 -0.4702
16201TIP3   OH270093   3.262   3.281  12.685  0.1102  0.2235  0.1225
16201TIP3    H170094   3.344   3.267  12.732 -0.8196  1.7412  2.3651
16201TIP3    H270095   3.242   3.373  12.699 -1.0661  0.3456 -1.9898
16202TIP3   OH270096   3.931   1.102  16.943  0.0060 -0.2079  0.0690
16202TIP3    H170097   3.864   1.155  16.900  0.8329  0.5882 -0.2502
16202TIP3    H270098   3.895   1.013  16.942 -1.4222  0.3250  0.6451
16203TIP3   OH270099   5.833   3.296  14.341  0.0912 -0.3194  0.2937
16203TIP3    H170100   5.858   3.369  14.398 -1.0997  0.1431  0.2474
16203TIP3    H270101   5.909   3.238  14.342  0.8093  0.6051  0.8448
16204TIP3   OH270102   0.319   3.873   0.413  0.0735 -0.2266  0.5448
16204TIP3    H170103   0.287   3.954   0.454  1.8864  0.3918  0.8477
16204TIP3    H270104   0.383   3.839   0.476  0.5246 -1.0148 -0.3261
16205TIP3   OH270105   1.209   0.564   0.389  0.5729  0.1159 -0.0286
16205TIP3    H170106   1.116   0.581   0.377  0.0678 -2.1694  0.1832
16205TIP3    H270107   1.228   0.593   0.479 -0.3841 -1.0469  0.5709
16206TIP3   OH270108   0.874   0.973  10.898 -0.2569  0.4213 -0.3852
16206TIP3    H170109   0.856   1.002  10.809 -1.5550 -1.0317 -0.6428
16206TIP3    H270110   0.871   1.053  10.951  2.4375  1.6208 -1.8328
16207TIP3   OH270111   6.405   2.714  11.545  0.0359  0.3409 -0.2897
16207TIP3    H170112   6.318   2.687  11.514  0.0064 -0.1175  0.1814
16207TIP3    H270113   6.388   2.793  11.597 -0.2639 -0.4255  0.8091
16208TIP3   OH270114   6.454   5.168  16.806  0.1796  0.1413 -0.2057
16208TIP3    H170115   6.359   5.178  16.794 -0.1478 -0.7232  1.3594
16208TIP3    H270116   6.483   5.252  16.840 -0.7448 -0.6963  2.9827
16209TIP3   OH270117   2.215   3.440   2.751 -0.4918  0.5362 -0.0026
16209TIP3    H170118   2.278   3.444   2.823  1.2222 -1.1984 -1.3078
16209TIP3    H270119   2.140   3.492   2.781  1.4545  2.5535  1.7019
16210TIP3   OH270120   0.912   2.784  11.307 -0.2874  0.3000 -0.8523
16210TIP3    H170121   0.879   2.705  11.349  0.4081  0.1001 -0.6721
16210TIP3    H270122   0.868   2.856  11.352 -0.2111  0.0493 -0.3721
16211TIP3   OH270123   2.474   2.180  14.056 -0.1680 -0.0040 -0.1606
16211TIP3    H170124   2.487   2.133  13.974  1.8939  1.7297 -0.8961
16211TIP3    H270125   2.562   2.190  14.093 -1.1464 -3.3807  3.9162
16212TIP3   OH270126   4.839   0.754  15.710  0.3480 -0.5124 -0.1661
16212TIP3    H170127   4.755   0.733  15.750 -1.0570 -0.5489 -2.9574
16212TIP3    H270128   4.828   0.843  15.676  0.1569 -1.6939 -3.5185
16213TIP3   OH270129   6.029   0.132  13.309  1.0589  0.2959  0.0600
16213TIP3    H170130   5.969   0.058  13.300 -0.5820  1.6073 -0.5095
16213TIP3    H270131   6.028   0.154  13.402  0.9107  0.1014  0.1040
16214TIP3   OH270132   5.004   4.569   0.902 -0.0250 -0.1357 -0.0481
16214TIP3    H170133   4.986   4.547   0.994  0.2853  0.5337  0.1773
16214TIP3    H270134   4.921   4.607   0.871 -0.5139 -1.4320 -0.3961
16215TIP3   OH270135   3.568   5.617   5.142  0.0823  0.2576  0.0165
16215TIP3    H170136   3.554   5.704   5.104  0.8201  0.2666 -0.2605
16215TIP3    H270137   3.661   5.615   5.163 -0.1321 -0.1032  0.9662
16216TIP3   OH270138   3.886   1.423  15.522 -0.0202  0.1351 -0.0178
16216TIP3    H170139   3.948   1.351  15.513 -2.0463 -1.5786 -1.0335
16216TIP3    H270140   3.832   1.399  15.597 -0.1885  1.0443  0.1678
16217TIP3   OH270141   5.854   2.411  16.819 -0.3144 -0.4386 -0.7442
16217TIP3    H170142   5.797   2.487  16.816 -0.3149 -0.4545 -1.4975
16217TIP3    H270143   5.942   2.447  16.827 -0.2474 -0.3089 -1.8476
16218TIP3   OH270144   2.057   4.215  12.193 -0.2354 -0.7920 -0.2187
16218TIP3    H170145   2.032   4.241  12.282 -0.1675 -0.0470 -0.4081
16218TIP3    H270146   2.011   4.133  12.178  1.5462 -2.1529  1.3383
16219TIP3   OH270147   3.680   1.177  15.158  0.0255  0.2475 -0.1346
16219TIP3    H170148   3.698   1.085  15.138  0.4135  0.4627 -0.8109
16219TIP3    H270149   3.597   1.195  15.115 -0.1055  0.1871  0.0910
16220TIP3   OH270150   2.558   2.463  12.990 -1.1387 -0.3504 -0.0770
16220TIP3    H170151   2.653   2.452  12.993 -0.8521  1.5758 -0.7467
16220TIP3    H270152   2.528   2.438  13.078  0.3406  1.5284  1.0475
16221TIP3   OH270153   2.471   3.055   5.744 -0.5169 -0.1512  0.5666
16221TIP3    H170154   2.528   2.978   5.740 -0.9617 -0.4303 -0.9838
16221TIP3    H270155   2.382   3.019   5.746 -0.7231  0.3117  0.0467
16222TIP3   OH270156   3.442   1.164   6.290  0.2904  0.3920 -0.6676
16222TIP3    H170157   3.363   1.216   6.276 -0.0497  0.0838  0.0605
16222TIP3    H270158   3.412   1.088   6.339  1.4286  1.5719  2.0565
16223TIP3   OH270159   0.420   5.886   1.349 -0.3523 -0.5140 -0.1018
16223TIP3    H170160   0.447   5.963   1.298  1.1712 -0.6817  0.3988
16223TIP3    H270161   0.371   5.923   1.423 -2.8733 -0.2861 -1.7533
16224TIP3   OH270162   1.972   0.275  15.143 -0.6997 -0.4013  0.6247
16224TIP3    H170163   2.038   0.334  15.107  1.5006 -1.1338  3.1260
16224TIP3    H270164   1.919   0.330  15.200 -0.1525 -0.4025  1.1368
16225TIP3   OH270165   5.786   3.723   4.907 -0.0003  0.1409  0.0455
16225TIP3    H170166   5.811   3.631   4.902  0.8343  0.3289  0.5032
16225TIP3    H270167   5.848   3.761   4.970 -1.2830  0.6968  0.9959
16226TIP3   OH270168   5.542   2.047   1.470 -0.1750  0.1235 -0.3800
16226TIP3    H170169   5.471   2.111   1.471 -1.0722 -0.8333  0.4929
16226TIP3    H270170   5.556   2.027   1.377 -0.5971  0.8130 -0.5962
16227TIP3   OH270171   2.507   4.325   4.431  0.1179 -0.3359 -0.1102
16227TIP3    H170172   2.428   4.305   4.481 -0.5186 -1.3785 -1.4633
16227TIP3    H270173   2.575   4.338   4.497 -0.6040 -2.0358  1.0321
16228TIP3   OH270174   2.126   0.841  15.814  0.6339  0.2553  0.2621
16228TIP3    H170175   2.123   0.918  15.757  0.6195 -1.2486 -1.8889
16228TIP3    H270176   2.039   0.802  15.806  1.0349 -0.6720  0.2808
16229TIP3   OH270177   3.812   2.569  13.674  0.2902 -0.0960  0.2825
16229TIP3    H170178   3.852   2.577  13.760 -1.8829  1.2031  1.2487
16229TIP3    H270179   3.719   2.555  13.691  0.1070 -2.4753 -1.8591
16230TIP3   OH270180   0.891   1.298  12.916 -0.0716 -0.0882 -0.1404
16230TIP3    H170181   0.834   1.352  12.971 -1.2153 -0.1515 -1.2034
16230TIP3    H270182   0.883   1.336  12.828  0.9377 -0.5723 -0.4578
16231TIP3   OH270183   3.106   2.421   4.794 -0.4336 -0.3371  0.0341
16231TIP3    H170184   3.198   2.446   4.792 -0.3717 -0.5768 -0.2092
16231TIP3    H270185   3.060   2.498   4.826  0.0471 -0.8215  1.9996
16232TIP3   OH270186   2.815   0.901   2.973  0.3575 -0.0793 -0.4534
16232TIP3    H170187   2.824   0.899   2.878  0.5079 -2.2224 -0.4483
16232TIP3    H270188   2.748   0.967   2.989  0.2635  0.2560 -2.0580
16233TIP3   OH270189   5.456   3.808   1.368 -0.4446 -0.2930  0.3170
16233TIP3    H170190   5.404   3.767   1.436 -0.4810 -2.7417 -1.0849
16233TIP3    H270191   5.402   3.803   1.289  1.4536 -2.0258 -0.9587
16234TIP3   OH270192   1.456   6.786   1.344  0.2930 -0.0233 -0.1881
16234TIP3    H170193   1.516   6.807   1.272  2.3343 -0.4408  1.2912
16234TIP3    H270194   1.511   6.743   1.409 -1.5344  0.0779  1.5187
16235TIP3   OH270195   1.040   6.068   1.601 -0.0082  0.1130 -0.3033
16235TIP3    H170196   1.122   6.100   1.563  1.1776  0.3183  2.2270
16235TIP3    H270197   0.978   6.139   1.587  0.8009  0.7991 -0.4994
16236TIP3   OH270198   5.442   2.002  15.720 -0.2521  0.0778  0.4664
16236TIP3    H170199   5.515   2.045  15.676 -1.1700  0.9033 -0.2846
16236TIP3    H270200   5.409   2.068  15.781  0.6132 -0.8383  2.0002
16237TIP3   OH270201   5.548   2.286  13.633  0.5701  0.2780  0.1650
16237TIP3    H170202   5.464   2.248  13.606  1.0723  0.1142 -1.2921
16237TIP3    H270203   5.568   2.244  13.716 -1.6161  1.6331  1.4684
16238TIP3   OH270204   3.670   1.013  13.473 -0.1429  0.4435 -0.2322
16238TIP3    H170205   3.721   0.933  13.488  0.1680  0.6283 -0.2747
16238TIP3    H270206   3.680   1.063  13.554 -1.0134  0.0802  0.1074
16239TIP3   OH270207   0.146   4.372  13.501  0.2563 -0.1939  0.9940
16239TIP3    H170208   0.216   4.308  13.499  0.1453 -0.3353 -0.9152
16239TIP3    H270209   0.182   4.448  13.454  0.0493  0.7759  2.3623
16240TIP3   OH270210   6.350   3.884  14.546 -0.7111 -0.2600  0.7591
16240TIP3    H170211   6.291   3.958  14.561  0.3206  0.9134 -0.7540
16240TIP3    H270212   6.314   3.841  14.468  0.2401  0.3160 -0.0215
16241TIP3   OH270213   1.920   1.672   2.680  0.1184 -0.8676  0.1213
16241TIP3    H170214   2.002   1.629   2.657 -0.0679 -1.4434  0.5250
16241TIP3    H270215   1.851   1.613   2.648 -0.2231  0.8549 -2.6924
16242TIP3   OH270216   3.029   1.119   2.692  0.7007 -0.2107  0.2725
16242TIP3    H170217   3.002   1.153   2.777  1.7519 -0.1342  0.5885
16242TIP3    H270218   3.105   1.172   2.668  1.3456 -1.2285 -0.0016
16243TIP3   OH270219   6.752   2.355  13.712 -0.4561 -0.0282 -0.3192
16243TIP3    H170220   6.659   2.359  13.686 -0.1497  0.8353 -1.3489
16243TIP3    H270221   6.786   2.442  13.692  0.5823 -0.3359  0.0664
16244TIP3   OH270222   4.309   1.552  16.460 -0.3916  0.7075 -0.2935
16244TIP3    H170223   4.322   1.463  16.427  0.2975 -0.5275  2.9318
16244TIP3    H270224   4.217   1.572  16.440 -0.4970 -0.6351 -1.2671
16245TIP3   OH270225   1.279   3.885   5.287  0.4938  0.7003  0.0788
16245TIP3    H170226   1.353   3.943   5.300  0.2757  1.7808 -2.8227
16245TIP3    H270227   1.299   3.837   5.207 -2.6397  2.3583 -1.9000
16246TIP3   OH270228   6.462   4.908   0.675 -0.3747 -0.9499 -0.6361
16246TIP3    H170229   6.372   4.885   0.652 -1.4705  2.1279  0.0413
16246TIP3    H270230   6.483   4.983   0.618  1.4248 -1.0252 -0.1570
16247TIP3   OH270231   1.398   5.726  12.341 -0.3209 -0.0191  1.1120
16247TIP3    H170232   1.432   5.680  12.417 -0.8424 -2.8330 -0.1889
16247TIP3    H270233   1.311   5.688  12.328 -0.8026  1.4086 -0.0739
16248TIP3   OH270234   5.842   2.758   3.877 -0.1169 -0.0395  0.3041
16248TIP3    H170235   5.853   2.829   3.813  0.0037 -0.4376 -0.1211
16248TIP3    H270236   5.748   2.748   3.886 -0.1442  0.5068  0.7459
16249TIP3   OH270237   6.565   4.246   2.072 -0.6368  0.0426 -0.8163
16249TIP3    H170238   6.594   4.157   2.092  0.5637 -0.0015 -2.5316
16249TIP3    H270239   6.525   4.240   1.985  0.6162  1.3609 -1.5336
16250TIP3   OH270240   2.457   2.551  15.215  0.3351 -0.2265  0.1650
16250TIP3    H170241   2.380   2.506  15.249  0.4035 -1.8144 -1.6178
16250TIP3    H270242   2.449   2.544  15.120  1.5828  1.5208 -0.1245
16251TIP3   OH270243   2.958   3.233  11.379 -0.0568 -0.1860  0.1393
16251TIP3    H170244   2.870   3.266  11.362  0.3714  0.7782 -0.2785
16251TIP3    H270245   2.953   3.194  11.466 -1.2212 -1.3544 -0.3989
16252TIP3   OH270246   5.508   3.521  15.027 -0.0233 -0.5933 -0.4464
16252TIP3    H170247   5.486   3.611  15.004  0.4570 -0.7952 -1.8267
16252TIP3    H270248   5.603   3.516  15.016  0.2593 -0.7297  1.7201
16253TIP3   OH270249   0.937   6.215  11.523 -0.0070  0.0104  0.0178
16253TIP3    H170250   0.860   6.230  11.467 -1.4140  1.0524  2.0846
16253TIP3    H270251   0.925   6.276  11.596  1.7461 -1.2724  1.4618
16254TIP3   OH270252   5.581   2.876   0.152 -0.2440  0.1025  0.6031
16254TIP3    H170253   5.530   2.957   0.141 -1.0786 -0.0733  2.6878
16254TIP3    H270254   5.525   2.807   0.116  0.3207  0.3602 -0.8561
16255TIP3   OH270255   2.994   6.356  11.631 -0.2294  0.7598 -0.2677
16255TIP3    H170256   2.935   6.283  11.653 -2.2616  2.3524 -0.1549
16255TIP3    H270257   2.955   6.394  11.552 -0.4545  2.9865  0.8591
16256TIP3   OH270258   0.648   1.132   4.241 -0.2528 -0.6033  0.5224
16256TIP3    H170259   0.614   1.221   4.228 -1.0360 -0.8454  0.8342
16256TIP3    H270260   0.571   1.081   4.265 -0.2615 -1.9133 -2.0429
16257TIP3   OH270261   2.167   5.976   0.685 -0.0096  0.0090  0.1414
16257TIP3    H170262   2.149   5.918   0.611  0.0658 -0.8283  0.7619
16257TIP3    H270263   2.110   5.944   0.755 -0.3007  0.9863  0.3526
16258TIP3   OH270264   4.987   4.553  15.070  0.7553  0.5829 -0.5011
16258TIP3    H170265   4.933   4.492  15.019  1.5589  0.6131 -1.4227
16258TIP3    H270266   5.053   4.497  15.111  1.5960  0.8349 -1.4832
16259TIP3   OH270267   6.018   4.087   4.697  1.1495 -0.1503 -0.1348
16259TIP3    H170268   6.061   4.170   4.717  2.4298 -1.2970  2.2478
16259TIP3    H270269   5.945   4.082   4.759 -0.4388  0.2089 -1.8699
16260TIP3   OH270270   3.531   6.062  14.672  0.0886  0.2777 -0.4146
16260TIP3    H170271   3.471   6.097  14.606  0.1746  0.5566 -0.3451
16260TIP3    H270272   3.501   6.101  14.755  0.3242  0.3670 -0.3701
16261TIP3   OH270273   6.670   5.252  15.402  0.2413 -0.9182  0.1409
16261TIP3    H170274   6.733   5.272  15.471 -1.3271  2.4220  0.8069
16261TIP3    H270275   6.591   5.226  15.448 -0.2883 -0.4204 -0.4634
16262TIP3   OH270276   5.457   1.198  16.739 -0.6895 -0.1263 -0.1453
16262TIP3    H170277   5.488   1.284  16.712 -0.8264  0.0990  0.4022
16262TIP3    H270278   5.362   1.207  16.746 -0.6933 -0.2862  0.0320
16263TIP3   OH270279   6.525   1.279   2.861  0.4347 -0.3267 -0.0760
16263TIP3    H170280   6.561   1.367   2.873 -0.6847 -0.1668  3.3427
16263TIP3    H270281   6.593   1.221   2.895 -0.1159 -0.4881  0.7772
16264TIP3   OH270282   1.397   5.453   0.475 -0.8609 -0.2015 -0.1486
16264TIP3    H170283   1.468   5.433   0.413  1.1065 -0.6749  2.0887
16264TIP3    H270284   1.379   5.369   0.517 -0.7440  0.4431  1.2482
16265TIP3   OH270285   5.442   1.209  13.552 -0.4172  0.6518  0.6110
16265TIP3    H170286   5.477   1.195  13.641  0.5067  2.3253  0.5609
16265TIP3    H270287   5.354   1.243  13.566 -0.9625 -0.7769  0.8168
16266TIP3   OH270288   3.148   6.743  15.312  0.0060  0.3737  0.0364
16266TIP3    H170289   3.079   6.806  15.330  1.0286  1.0937  1.6415
16266TIP3    H270290   3.228   6.785  15.343  0.9108 -1.1549 -0.1187
16267TIP3   OH270291   6.301   4.978  15.182 -0.3554  0.2013  0.0535
16267TIP3    H170292   6.272   5.040  15.115 -1.2413  0.3417  0.5446
16267TIP3    H270293   6.349   4.911  15.133 -1.0424  0.2676 -0.7404
16268TIP3   OH270294   4.997   1.717  13.874  0.4470 -0.7941 -0.2349
16268TIP3    H170295   5.071   1.734  13.816  1.0612  0.2010  0.7936
16268TIP3    H270296   5.011   1.776  13.948 -0.3267 -1.9932  0.9096
16269TIP3   OH270297   3.335   5.088   1.785  0.4375 -0.5059  0.3516
16269TIP3    H170298   3.425   5.118   1.772  1.1981 -2.5774  0.4126
16269TIP3    H270299   3.284   5.131   1.717  1.7660 -0.4426 -0.6215
16270TIP3   OH270300   6.201   0.936   4.804  0.1235 -0.4064 -0.0543
16270TIP3    H170301   6.144   1.011   4.790  0.2985 -0.0459  1.0237
16270TIP3    H270302   6.153   0.881   4.866  1.2263  0.2695  1.4655
16271TIP3   OH270303   6.542   0.880   1.868 -0.3642 -0.0490  0.1288
16271TIP3    H170304   6.539   0.887   1.964  0.5731 -0.4907  0.2006
16271TIP3    H270305   6.520   0.968   1.838 -0.8407  0.0524  0.7421
16272TIP3   OH270306   3.168   5.164   4.710  0.1315 -0.3224 -0.1438
16272TIP3    H170307   3.140   5.074   4.696 -0.4683 -0.0842 -0.5072
16272TIP3    H270308   3.087   5.215   4.711  0.5452  0.4415 -1.6049
16273TIP3   OH270309   2.110   2.467  10.882 -0.3966 -0.0826 -0.0196
16273TIP3    H170310   2.028   2.420  10.871 -0.6922  0.3173  0.4257
16273TIP3    H270311   2.177   2.399  10.886 -0.7806 -0.4441  0.3115
16274TIP3   OH270312   4.645   5.570   4.150  0.2732 -0.2276 -0.0600
16274TIP3    H170313   4.555   5.591   4.175  0.0793  1.4837 -1.8887
16274TIP3    H270314   4.638   5.491   4.095 -0.0442 -0.4099  0.2457
16275TIP3   OH270315   2.428   1.886   0.266 -0.7940  0.4535  0.5100
16275TIP3    H170316   2.468   1.922   0.345  0.2615 -0.4078  0.3818
16275TIP3    H270317   2.417   1.793   0.285  0.4812  0.0059 -0.7359
16276TIP3   OH270318   6.840   4.713  11.651 -0.7443  0.2487  0.3520
16276TIP3    H170319   6.800   4.792  11.615 -0.6514  0.1258 -0.0303
16276TIP3    H270320   6.930   4.713  11.616 -0.2493  0.7718  1.5821
16277TIP3   OH270321   3.608   4.155  15.472  0.2986 -0.3863 -0.7307
16277TIP3    H170322   3.565   4.085  15.520 -0.9874 -0.0398 -1.3378
16277TIP3    H270323   3.567   4.154  15.385  0.2012  1.1553 -0.7355
16278TIP3   OH270324   5.636   0.764  16.362  0.2100 -0.2864 -0.2509
16278TIP3    H170325   5.601   0.798  16.445  0.1863  1.3917 -0.9284
16278TIP3    H270326   5.731   0.764  16.374  0.3083  1.4944 -0.7555
16279TIP3   OH270327   0.897   4.968   1.281  0.0539 -0.4616 -0.2144
16279TIP3    H170328   0.863   4.884   1.311 -0.0581 -0.6859 -0.9592
16279TIP3    H270329   0.906   5.020   1.361 -2.0769 -0.3720  0.0353
16280TIP3   OH270330   4.648   2.691  12.705 -0.9620  0.2325  0.1369
16280TIP3    H170331   4.723   2.747  12.682 -2.4871  2.0729 -0.5885
16280TIP3    H270332   4.644   2.695  12.800  1.3201 -1.9691  0.4477
16281TIP3   OH270333   0.389   1.264  12.542  0.2797  0.1571  0.0442
16281TIP3    H170334   0.294   1.271  12.544  0.3673  1.8578 -0.5242
16281TIP3    H270335   0.417   1.298  12.627  0.3341 -2.5062  1.2029
16282TIP3   OH270336   2.950   1.479  11.647 -0.2587  0.2876  0.0383
16282TIP3    H170337   2.954   1.545  11.716  3.0642  0.5672 -0.2556
16282TIP3    H270338   2.925   1.398  11.692  0.3771  0.7839  1.3252
16283TIP3   OH270339   1.774   3.000   4.405  0.0314  0.0685 -0.1818
16283TIP3    H170340   1.755   3.092   4.423 -0.2676  0.2392 -1.2885
16283TIP3    H270341   1.738   2.985   4.317  0.9410 -0.8415 -0.4146
16284TIP3   OH270342   2.611   1.712   5.337  0.3025  0.3625  0.0670
16284TIP3    H170343   2.578   1.798   5.312  2.5011  1.9570  2.2094
16284TIP3    H270344   2.691   1.701   5.287  0.6310  0.0687  0.6434
16285TIP3   OH270345   1.078   1.503  15.895 -0.1013  0.2477 -0.2343
16285TIP3    H170346   1.137   1.468  15.961  1.3652  3.0957  0.1304
16285TIP3    H270347   1.059   1.429  15.838  0.1877 -1.8362  2.1794
16286TIP3   OH270348   3.892   4.325   2.245  0.4565 -0.2184 -0.2246
16286TIP3    H170349   3.909   4.403   2.193 -1.2326 -0.0060 -0.4933
16286TIP3    H270350   3.938   4.255   2.199 -0.0053  0.1847 -1.3195
16287TIP3   OH270351   2.424   0.203   0.718  1.3199 -0.1901 -0.6052
16287TIP3    H170352   2.393   0.271   0.658  0.2438 -0.0408  0.0870
16287TIP3    H270353   2.463   0.251   0.791  0.6878 -0.3082 -0.1829
16288TIP3   OH270354   4.457   4.017  16.860 -0.0356 -0.0917 -0.1263
16288TIP3    H170355   4.546   4.007  16.895 -0.1822 -0.6208  0.1014
16288TIP3    H270356   4.412   3.937  16.886 -0.2068 -0.4086 -1.3425
16289TIP3   OH270357   1.317   5.786  14.520 -0.4095  0.3764  0.3778
16289TIP3    H170358   1.377   5.803  14.448  1.1882 -3.1344  0.6703
16289TIP3    H270359   1.356   5.832  14.595 -0.8761  2.1929 -0.4442
16290TIP3   OH270360   1.203   6.397  13.961 -0.1219 -0.1443 -0.3438
16290TIP3    H170361   1.244   6.330  13.905  2.2931  1.2623 -0.3728
16290TIP3    H270362   1.184   6.470  13.901 -1.4710 -0.2245 -0.0532
16291TIP3   OH270363   4.713   4.326  15.345 -0.0535  0.2890 -0.4762
16291TIP3    H170364   4.799   4.305  15.307  0.4605  2.0175 -0.3562
16291TIP3    H270365   4.729   4.402  15.400 -1.5306  0.1411  0.2020
16292TIP3   OH270366   2.847   0.055  16.470  0.4597  0.1003 -0.2432
16292TIP3    H170367   2.840   0.083  16.379  0.6627 -1.7751 -0.8890
16292TIP3    H270368   2.778  -0.011  16.480  0.1630  0.5926  1.0974
16293TIP3   OH270369   1.055   3.677   6.304  0.5121 -0.1365  0.1599
16293TIP3    H170370   0.983   3.735   6.330  1.3888  0.6262  0.9607
16293TIP3    H270371   1.107   3.730   6.243 -0.0892 -1.0163 -1.1787
16294TIP3   OH270372   2.804   2.570  13.080  0.0578 -0.1659 -0.4750
16294TIP3    H170373   2.879   2.576  13.021 -0.9077 -0.8928 -1.8138
16294TIP3    H270374   2.841   2.539  13.162  1.1105 -1.3660 -1.3721
16295TIP3   OH270375   3.233   3.114  13.410 -0.0187 -0.3809  0.0178
16295TIP3    H170376   3.229   3.132  13.316  0.5074 -1.0458 -0.1394
16295TIP3    H270377   3.291   3.038  13.417 -2.8213 -2.6575  0.5471
16296TIP3   OH270378   4.869   0.729  12.567 -0.0739 -0.1586  0.1461
16296TIP3    H170379   4.866   0.654  12.627 -0.7757 -0.5744 -0.4022
16296TIP3    H270380   4.886   0.804  12.624  0.8201 -0.7430  0.6837
16297TIP3   OH270381   5.550   3.591   2.607 -0.1201 -0.4603  0.2031
16297TIP3    H170382   5.638   3.572   2.576 -0.6147  0.5006 -1.9537
16297TIP3    H270383   5.497   3.519   2.574 -0.4718  0.0101 -0.2692
16298TIP3   OH270384   3.217   4.985   3.420  0.4795 -0.1356  0.0313
16298TIP3    H170385   3.226   4.926   3.345  3.0108 -1.7431  1.4343
16298TIP3    H270386   3.289   5.048   3.410 -0.8829  1.4265 -0.3038
16299TIP3   OH270387   3.837   3.501  16.322  0.3683  0.5270  0.0895
16299TIP3    H170388   3.819   3.542  16.406 -0.1838  0.7539 -0.1353
16299TIP3    H270389   3.840   3.574  16.259  0.4993  0.3345 -0.1312
16300TIP3   OH270390   3.625   0.157  14.304 -0.4097  0.3270  0.1802
16300TIP3    H170391   3.618   0.195  14.217  0.7539  2.6750  1.0376
16300TIP3    H270392   3.540   0.171  14.344 -0.9031 -0.6351 -0.4803
16301TIP3   OH270393   5.115   2.597  10.791 -0.0698  0.0649  0.0805
16301TIP3    H170394   5.185   2.540  10.823 -0.6751 -0.1032  1.1638
16301TIP3    H270395   5.104   2.662  10.860 -1.6361 -0.4871  0.3873
16302TIP3   OH270396   3.436   2.404   4.180 -0.1580  0.1749  0.1674
16302TIP3    H170397   3.354   2.368   4.214 -1.0855  2.1333  0.0900
16302TIP3    H270398   3.487   2.424   4.258 -1.3290  2.4542  0.4268
16303TIP3   OH270399   2.359   4.013  11.892 -0.0635  0.0153 -0.1303
16303TIP3    H170400   2.385   3.921  11.896  2.1736  0.4217 -2.2408
16303TIP3    H270401   2.266   4.011  11.871 -0.0398 -1.7733 -0.2136
16304TIP3   OH270402   2.574   4.140   0.372 -0.0278 -0.5960 -0.1947
16304TIP3    H170403   2.497   4.133   0.428 -0.1472  0.9458 -0.0987
16304TIP3    H270404   2.641   4.088   0.416  0.2018  1.3838  2.0272
16305TIP3   OH270405   1.898   4.836  16.891  0.5754 -0.0323 -0.3100
16305TIP3    H170406   1.891   4.878  16.805 -1.1082  0.6421  0.1203
16305TIP3    H270407   1.829   4.770  16.892  1.4450 -0.9667  0.0542
16306TIP3   OH270408   0.337   4.129   1.086 -0.0774 -0.2533  0.7025
16306TIP3    H170409   0.307   4.046   1.049  1.2450 -1.6974  2.6612
16306TIP3    H270410   0.262   4.163   1.135 -0.8306  0.0898 -0.6381
16307TIP3   OH270411   6.639   6.455  15.409  0.0150  0.8346  0.5518
16307TIP3    H170412   6.625   6.536  15.360 -0.5766  2.3012  2.9448
16307TIP3    H270413   6.721   6.470  15.457  1.9569 -1.5503 -1.6867
16308TIP3   OH270414   4.080   5.976   3.577  0.0782 -0.0326 -0.6060
16308TIP3    H170415   4.138   6.050   3.594 -0.1738 -0.2767  1.5878
16308TIP3    H270416   4.137   5.909   3.539  0.2954  1.2508 -2.6789
16309TIP3   OH270417   0.912   5.520   0.369 -0.4821  0.1631  0.6263
16309TIP3    H170418   1.006   5.530   0.380 -0.2917 -0.6410 -0.0821
16309TIP3    H270419   0.875   5.604   0.395  0.3951  0.3652  1.2702
16310TIP3   OH270420   3.240   0.719  16.876  0.0793 -0.5752 -0.3865
16310TIP3    H170421   3.166   0.685  16.826 -0.1958  1.3777 -1.4205
16310TIP3    H270422   3.272   0.792  16.823  0.9965  0.3589  1.3957
16311TIP3   OH270423   0.308   4.405   0.579  0.8226  0.3335 -0.4738
16311TIP3    H170424   0.279   4.399   0.488  1.5753 -0.6659 -0.6700
16311TIP3    H270425   0.229   4.429   0.628  0.4237  0.9187 -1.3898
16312TIP3   OH270426   3.033   6.744  13.061  0.3246 -0.1142  0.0317
16312TIP3    H170427   3.024   6.798  12.982  2.7496  0.0095 -0.2182
16312TIP3    H270428   2.984   6.664  13.040  2.4276 -0.8899 -2.4298
16313TIP3   OH270429   6.687   4.970   3.682 -0.0954  0.1960 -0.0117
16313TIP3    H170430   6.642   4.915   3.746 -1.5758  0.7294 -0.5586
16313TIP3    H270431   6.720   5.044   3.733 -1.2170  0.5890  0.1689
16314TIP3   OH270432   5.824   2.344  12.349  0.3610  0.4558  0.4344
16314TIP3    H170433   5.768   2.416  12.321  0.2887  0.0296 -0.5526
16314TIP3    H270434   5.886   2.331  12.277  0.3388 -0.5012  0.5700
16315TIP3   OH270435   5.367   4.997   5.935 -0.4881 -0.1232  0.2700
16315TIP3    H170436   5.440   5.042   5.976 -0.2971  2.0695 -2.2370
16315TIP3    H270437   5.407   4.935   5.874 -0.7504 -0.7220  0.6950
16316TIP3   OH270438   1.609   1.130   4.926  0.1156  0.0207  0.5499
16316TIP3    H170439   1.651   1.066   4.983 -0.8250 -1.6890 -0.5734
16316TIP3    H270440   1.576   1.197   4.986  0.2450 -1.0716  1.9049
16317TIP3   OH270441   3.016   2.869  13.204  0.4852 -0.2733 -0.1160
16317TIP3    H170442   2.921   2.875  13.214  0.3894 -0.6367 -0.7157
16317TIP3    H270443   3.048   2.842  13.290 -0.0103 -0.6323 -0.0402
16318TIP3   OH270444   0.324   6.559  11.656  0.0474  0.1004  0.0063
16318TIP3    H170445   0.262   6.584  11.587 -0.6537 -2.6384 -0.4807
16318TIP3    H270446   0.387   6.631  11.659 -0.1889  0.5910 -3.1227
16319TIP3   OH270447   5.786   1.905   4.796  0.3631  0.2413  0.5362
16319TIP3    H170448   5.746   1.952   4.869  0.0513 -0.0569  0.5573
16319TIP3    H270449   5.787   1.969   4.724  0.6074  0.5116  0.7806
16320TIP3   OH270450   6.192   1.682   3.745  0.8974 -0.1148  0.8300
16320TIP3    H170451   6.144   1.600   3.757  0.1285  0.1025 -0.5649
16320TIP3    H270452   6.216   1.709   3.833 -0.3907 -0.9294  1.4556
16321TIP3   OH270453   4.980   0.188   3.455  0.0988  0.3157 -0.1876
16321TIP3    H170454   4.999   0.220   3.367  0.6393  0.9231  0.1403
16321TIP3    H270455   4.906   0.241   3.484  0.7687  1.0612  0.2196
16322TIP3   OH270456   1.894   0.847  13.046  0.2276 -0.5064 -0.4193
16322TIP3    H170457   1.806   0.811  13.034  0.7037 -1.1342 -2.4357
16322TIP3    H270458   1.888   0.897  13.127 -1.5146 -1.9222  0.4062
16323TIP3   OH270459   6.610   5.710   1.250 -0.2659 -0.2798  0.2440
16323TIP3    H170460   6.525   5.701   1.206 -1.0767 -2.6443  2.0458
16323TIP3    H270461   6.589   5.704   1.343  1.7623  0.7228  0.8178
16324TIP3   OH270462   4.722   2.714   3.387 -0.1042 -0.0160 -0.0123
16324TIP3    H170463   4.762   2.684   3.468  1.0632  0.4693 -0.3863
16324TIP3    H270464   4.771   2.792   3.363  0.0217 -0.5141 -1.5305
16325TIP3   OH270465   3.012   2.849   1.754 -0.2778  0.9099  0.4948
16325TIP3    H170466   3.036   2.885   1.668  1.5132  0.6923  0.8756
16325TIP3    H270467   3.091   2.858   1.807 -0.4119 -1.6660  1.2533
16326TIP3   OH270468   4.043   6.646   3.161  0.2673  0.4835  0.8726
16326TIP3    H170469   4.043   6.563   3.112 -0.2656  0.7269  0.4531
16326TIP3    H270470   4.088   6.708   3.104  0.7302  0.4730  1.2183
16327TIP3   OH270471   0.949   4.517  13.497 -0.4016  0.4361 -0.0534
16327TIP3    H170472   0.855   4.503  13.496 -0.1705 -1.5196  1.0723
16327TIP3    H270473   0.985   4.437  13.535  1.6272  1.5987  0.6388
16328TIP3   OH270474   5.546   4.045   1.272 -0.3285  0.2910 -0.8938
16328TIP3    H170475   5.597   4.080   1.345  2.3467 -0.3259 -2.3505
16328TIP3    H270476   5.520   3.958   1.300  1.8283 -0.4689 -1.1093
16329TIP3   OH270477   5.961   6.231   6.812  0.1835 -0.2014  0.3864
16329TIP3    H170478   6.036   6.281   6.782  1.5656 -2.1976  0.3258
16329TIP3    H270479   5.935   6.273   6.894  1.6499  0.2770  0.6290
16330TIP3   OH270480   5.392   2.685  16.736  0.0643  0.5308  0.0780
16330TIP3    H170481   5.349   2.711  16.654 -0.7893  1.9990  0.9557
16330TIP3    H270482   5.485   2.698  16.718 -0.0332 -0.0742 -0.9626
16331TIP3   OH270483   0.777   0.705   6.572  0.0737 -0.9239  0.1369
16331TIP3    H170484   0.817   0.708   6.485 -0.9530 -0.6850 -0.3416
16331TIP3    H270485   0.757   0.612   6.585  2.5924 -1.3921  1.2613
16332TIP3   OH270486   5.642   3.717  17.082  0.2757  0.0299  0.3128
16332TIP3    H170487   5.602   3.690  17.164  0.2785 -0.5547  0.1274
16332TIP3    H270488   5.600   3.662  17.015 -0.0779  0.8269 -0.1449
16333TIP3   OH270489   4.413   6.332   1.597  0.1026  0.6508 -0.1125
16333TIP3    H170490   4.381   6.395   1.662  2.6752  1.3805  0.5993
16333TIP3    H270491   4.356   6.256   1.607 -0.4108  1.2374  2.1207
16334TIP3   OH270492   6.310   5.509   4.604 -0.0993  0.2475 -0.5328
16334TIP3    H170493   6.323   5.425   4.648 -1.4473 -1.1561 -2.6254
16334TIP3    H270494   6.380   5.513   4.539 -0.3806  0.4646 -0.8275
16335TIP3   OH270495   3.766   0.991   5.903 -0.2402  0.3059 -0.1123
16335TIP3    H170496   3.714   0.914   5.885 -1.0848 -0.0718  3.2073
16335TIP3    H270497   3.703   1.059   5.927  0.6016  1.3202 -0.6362
16336TIP3   OH270498   4.380   0.032  10.618  0.8270 -0.0501  0.8200
16336TIP3    H170499   4.459   0.030  10.564  1.2973  0.1600  1.4962
16336TIP3    H270500   4.380  -0.052  10.664 -0.0163 -0.5869 -0.1155
16337TIP3   OH270501   4.573   2.807  13.441  0.6183 -0.4227  0.6216
16337TIP3    H170502   4.529   2.722  13.448 -0.0479 -0.0055  1.7243
16337TIP3    H270503   4.667   2.785  13.438  0.4753 -1.4532 -3.5998
16338TIP3   OH270504   5.080   1.737  12.549  0.1494  0.4430  0.3513
16338TIP3    H170505   5.003   1.684  12.528  1.5099 -1.5568  0.1361
16338TIP3    H270506   5.063   1.822  12.507 -1.0829 -0.5734 -1.3363
16339TIP3   OH270507   1.141   2.280   2.742  1.0292  0.2677 -0.1752
16339TIP3    H170508   1.050   2.288   2.768  1.1609  0.7845  0.1397
16339TIP3    H270509   1.142   2.302   2.649  0.5974 -1.3228 -0.5870
16340TIP3   OH270510   6.679   2.957   5.629  0.0161 -0.3016 -0.0747
16340TIP3    H170511   6.645   2.956   5.539 -1.4535 -1.2357  0.4609
16340TIP3    H270512   6.627   2.891   5.675 -0.0485  0.9651  1.7537
16341TIP3   OH270513   5.689   0.662  15.569 -0.3900 -0.7398  0.0527
16341TIP3    H170514   5.629   0.736  15.556 -1.3363 -1.3460  0.8330
16341TIP3    H270515   5.762   0.699  15.620 -0.1401 -0.0241 -0.7927
16342TIP3   OH270516   2.198   4.649   2.948 -0.4284 -0.0617 -0.4760
16342TIP3    H170517   2.275   4.624   2.899  0.4065 -0.1857  0.8449
16342TIP3    H270518   2.212   4.742   2.970 -0.4668 -0.1823  0.0775
16343TIP3   OH270519   2.855   0.012   2.605  0.6210 -0.6510  0.3197
16343TIP3    H170520   2.937   0.041   2.645  2.3660  0.0998 -3.3653
16343TIP3    H270521   2.819  -0.051   2.668  4.3361 -1.5102  1.8820
16344TIP3   OH270522   4.050   2.675   4.347  0.0663  0.1008  0.3401
16344TIP3    H170523   4.060   2.619   4.424 -0.9932 -1.1170 -0.3596
16344TIP3    H270524   4.088   2.758   4.373 -2.3563  0.5383  3.0572
16345TIP3   OH270525   3.565   0.452   2.576 -0.5641 -0.3241  0.6949
16345TIP3    H170526   3.491   0.393   2.562 -0.5198 -0.2265  0.0413
16345TIP3    H270527   3.634   0.395   2.611 -0.6527 -0.5806  0.4530
16346TIP3   OH270528   3.005   2.170  11.118  0.0266  0.1736 -0.3457
16346TIP3    H170529   3.019   2.264  11.106  0.8151 -0.1097 -2.0195
16346TIP3    H270530   3.013   2.134  11.029  0.5090 -1.5603  0.3655
16347TIP3   OH270531   4.606   2.954  13.684 -0.0679  0.0483 -0.0015
16347TIP3    H170532   4.613   2.870  13.729  0.0358 -0.0492 -0.1972
16347TIP3    H270533   4.576   2.932  13.595  2.3488 -0.0282 -0.8664
16348TIP3   OH270534   2.870   0.717   1.450 -0.0193 -0.6459 -0.0847
16348TIP3    H170535   2.829   0.748   1.531  1.4020  2.1943 -0.3219
16348TIP3    H270536   2.957   0.757   1.450 -0.0731 -0.2708 -3.1194
16349TIP3   OH270537   4.787   3.961   2.987  0.4767 -0.0609 -0.1669
16349TIP3    H170538   4.824   3.978   2.900 -2.7379  1.3226 -1.4415
16349TIP3    H270539   4.744   3.876   2.978  3.0127 -1.6262  1.2772
16350TIP3   OH270540   1.256   0.507  11.524 -0.0537  0.1976 -0.9115
16350TIP3    H170541   1.288   0.517  11.613 -0.5162 -3.3637 -0.1767
16350TIP3    H270542   1.334   0.513  11.469  0.4684  0.7947 -0.1297
16351TIP3   OH270543   4.688   3.358   3.169 -0.4822 -0.7913  0.1633
16351TIP3    H170544   4.700   3.353   3.074  1.1174 -0.3126  0.3042
16351TIP3    H270545   4.768   3.399   3.201 -1.3620 -0.1455  1.6514
16352TIP3   OH270546   4.650   0.342  11.439 -0.0122  0.2931 -0.1514
16352TIP3    H170547   4.734   0.312  11.475 -0.9622 -0.4474  1.5479
16352TIP3    H270548   4.669   0.362  11.347  1.7008 -1.1980 -0.1744
16353TIP3   OH270549   2.394   1.018  16.729 -0.0435 -0.8670  0.2540
16353TIP3    H170550   2.369   0.934  16.768 -2.5856 -0.5476 -0.4900
16353TIP3    H270551   2.366   1.083  16.793  0.0690 -0.5130 -0.0559
16354TIP3   OH270552   4.507   2.984  11.883  0.2961 -0.0222  0.1197
16354TIP3    H170553   4.476   3.064  11.841  1.3355  0.5073  0.3468
16354TIP3    H270554   4.600   2.981  11.864  0.7380  0.0295  2.0296
16355TIP3   OH270555   2.733   2.983  14.426 -0.0267 -0.0340 -0.0237
16355TIP3    H170556   2.719   2.937  14.343  0.8746 -1.6722  0.6857
16355TIP3    H270557   2.825   3.009  14.423 -0.0899  0.2396  0.3192
16356TIP3   OH270558   0.356   5.309   1.786  0.0505 -0.1719 -0.3154
16356TIP3    H170559   0.269   5.280   1.813 -1.5105  1.1594 -3.4228
16356TIP3    H270560   0.401   5.228   1.760 -0.7514 -0.7276 -0.0191
16357TIP3   OH270561   3.322   2.657   3.921  0.7486 -0.3149  0.0145
16357TIP3    H170562   3.258   2.609   3.870  0.2453 -0.2111  0.5276
16357TIP3    H270563   3.407   2.628   3.889  0.5463  1.8500 -2.9410
16358TIP3   OH270564   5.485   3.928  11.981 -0.7946 -0.0572  0.0343
16358TIP3    H170565   5.463   3.972  12.063  3.4154 -0.7928  1.8594
16358TIP3    H270566   5.509   3.999  11.921  0.8894  0.4483  1.2125
16359TIP3   OH270567   5.578   6.485   3.319  0.2056 -0.1141  0.4609
16359TIP3    H170568   5.658   6.490   3.372  0.2475  0.8893  0.3243
16359TIP3    H270569   5.538   6.402   3.344  1.8411 -1.1859 -0.2406
16360TIP3   OH270570   5.908   5.562   2.075  0.0081 -0.5656 -0.6894
16360TIP3    H170571   5.831   5.558   2.018 -0.7538 -3.0355  0.3722
16360TIP3    H270572   5.872   5.579   2.162  1.1479  3.1439 -0.7712
16361TIP3   OH270573   3.333   4.396  14.565 -0.0970  0.1016 -0.9314
16361TIP3    H170574   3.293   4.367  14.483  3.2061  0.0731 -2.7257
16361TIP3    H270575   3.367   4.315  14.604 -1.3602  0.1609  0.3630
16362TIP3   OH270576   1.910   3.940  16.260 -0.0073 -0.2010 -0.1059
16362TIP3    H170577   1.960   3.859  16.250  0.9883  0.6094 -2.3908
16362TIP3    H270578   1.858   3.946  16.179  0.0550  1.5117 -0.0526
16363TIP3   OH270579   6.146   6.182  12.174 -0.3787 -0.6786 -0.0668
16363TIP3    H170580   6.204   6.117  12.134  1.9559  1.5631 -0.6230
16363TIP3    H270581   6.187   6.266  12.153 -3.2193  1.0101  0.6238
16364TIP3   OH270582   4.218   1.880   4.403  0.0687 -0.0840  0.1909
16364TIP3    H170583   4.179   1.797   4.375  0.2777  0.0531 -0.5299
16364TIP3    H270584   4.266   1.858   4.483  0.1527 -0.6686 -0.0157
16365TIP3   OH270585   5.938   1.021  11.582 -0.5005  0.2771  0.2380
16365TIP3    H170586   5.902   1.010  11.670  1.6870  0.3259  1.2265
16365TIP3    H270587   6.003   1.091  11.592  1.0964 -0.9548 -0.9624
16366TIP3   OH270588   4.894   3.445  11.210 -0.1140  0.4694  0.0118
16366TIP3    H170589   4.922   3.378  11.148 -1.7841 -0.6222  0.3730
16366TIP3    H270590   4.975   3.489  11.237  1.0890 -1.7012  0.1181
16367TIP3   OH270591   6.248   4.247   4.256  0.4174  0.1705 -0.2636
16367TIP3    H170592   6.169   4.227   4.306  0.2025 -0.8840 -0.9875
16367TIP3    H270593   6.301   4.301   4.315  0.1786 -1.0219  1.0968
16368TIP3   OH270594   6.348   5.382   2.661 -0.5205  0.0942 -0.1626
16368TIP3    H170595   6.275   5.333   2.700  0.0099 -0.7157 -0.1592
16368TIP3    H270596   6.425   5.350   2.708  0.2469 -1.5071 -2.3689
16369TIP3   OH270597   5.184   5.363  14.681 -0.1851 -0.2192 -0.2831
16369TIP3    H170598   5.181   5.279  14.726  0.2695  1.6391  3.6147
16369TIP3    H270599   5.096   5.400  14.693  0.6230  1.3178  1.4230
16370TIP3   OH270600   5.225   4.880  12.959  0.1040 -0.3224 -0.4614
16370TIP3    H170601   5.236   4.952  13.021  0.2073 -1.5783  1.0125
16370TIP3    H270602   5.198   4.923  12.878  0.3323  1.3916  0.3291
16371TIP3   OH270603   4.408   5.649  12.249 -0.1931 -0.0336  0.0381
16371TIP3    H170604   4.379   5.682  12.164  0.2745 -0.3342 -0.2468
16371TIP3    H270605   4.490   5.603  12.229  0.0552  0.1246  0.6966
16372TIP3   OH270606   3.118   0.653  10.622 -0.3088  0.8568 -0.7925
16372TIP3    H170607   3.194   0.631  10.568 -1.7014 -0.8629 -2.1861
16372TIP3    H270608   3.103   0.575  10.675 -1.9249  0.5985 -1.5778
16373TIP3   OH270609   5.636   6.125   5.046  0.4638 -0.3677 -0.4925
16373TIP3    H170610   5.638   6.032   5.071 -0.3569 -0.2149  0.1733
16373TIP3    H270611   5.558   6.132   4.989  1.0516 -0.2630 -1.3033
16374TIP3   OH270612   0.173   0.502  16.765  0.2149  0.1653  0.7922
16374TIP3    H170613   0.165   0.535  16.854 -1.6037 -0.6971  1.0041
16374TIP3    H270614   0.183   0.408  16.775  2.0358  0.2441  0.1016
16375TIP3   OH270615   1.333   2.252  14.371 -0.0632  0.3737 -0.3295
16375TIP3    H170616   1.291   2.310  14.435  0.5803  1.3763 -0.7888
16375TIP3    H270617   1.387   2.194  14.424  2.9428  3.1829 -0.0007
16376TIP3   OH270618   5.812   4.228  13.411 -0.5040 -0.8662 -0.3057
16376TIP3    H170619   5.826   4.191  13.324 -1.6266 -0.1650 -0.8106
16376TIP3    H270620   5.888   4.200  13.462  1.8046  1.2502 -2.3163
16377TIP3   OH270621   5.459   3.461  15.322 -0.0828 -0.2831  0.0385
16377TIP3    H170622   5.462   3.365  15.316 -0.7619 -0.3066 -0.0185
16377TIP3    H270623   5.456   3.489  15.230  0.2508 -0.2008  0.0531
16378TIP3   OH270624   5.006   2.960   2.407  0.0869  0.4121 -0.1603
16378TIP3    H170625   5.016   2.941   2.313  0.5764 -1.2107  0.1868
16378TIP3    H270626   4.912   2.974   2.418 -0.5079 -2.7160 -0.3864
16379TIP3   OH270627   3.290   2.161  15.110  0.1063  0.4054 -0.0082
16379TIP3    H170628   3.200   2.145  15.139  0.6291 -0.7397  1.0749
16379TIP3    H270629   3.300   2.111  15.030  0.0485 -0.2180  0.3702
16380TIP3   OH270630   3.407   5.529   2.380  0.1459  0.3662  0.7160
16380TIP3    H170631   3.359   5.479   2.446 -1.0873  1.5236  0.7191
16380TIP3    H270632   3.353   5.523   2.301  1.7073 -1.2033 -0.3301
16381TIP3   OH270633   1.378   2.269  14.765  0.4480 -0.4165 -0.1244
16381TIP3    H170634   1.301   2.310  14.804 -0.5486 -1.3996 -0.9845
16381TIP3    H270635   1.450   2.330  14.783 -0.4757  0.3994  0.9136
16382TIP3   OH270636   4.390   5.499   4.764 -0.0978  0.6634 -0.2493
16382TIP3    H170637   4.358   5.555   4.835 -1.5195 -0.8148  0.3416
16382TIP3    H270638   4.379   5.552   4.685  0.0678  1.7703  0.4376
16383TIP3   OH270639   4.654   0.681  12.042  0.0859 -0.7745 -0.5316
16383TIP3    H170640   4.600   0.612  12.081 -0.8522  0.0164 -0.3660
16383TIP3    H270641   4.741   0.643  12.036 -0.4706 -2.0813 -0.7574
16384TIP3   OH270642   0.094   0.279   4.395 -0.1590  0.1413 -0.0891
16384TIP3    H170643   0.132   0.192   4.389  0.9244  0.5752  0.2810
16384TIP3    H270644   0.118   0.310   4.482 -0.8281  0.6791 -0.0881
16385TIP3   OH270645   5.227   2.207  14.876 -0.2817  0.1441 -0.2758
16385TIP3    H170646   5.191   2.249  14.954 -0.0019  2.6206 -1.3808
16385TIP3    H270647   5.322   2.218  14.885  0.0072 -2.3183  0.4499
16386TIP3   OH270648   5.109   1.932  16.585  0.0374  0.2912  0.3663
16386TIP3    H170649   5.190   1.981  16.602 -0.2142  0.2225  1.8419
16386TIP3    H270650   5.042   1.999  16.574  0.3293  0.3707 -1.3416
16387TIP3   OH270651   0.947   4.044  10.538  0.5756 -0.1708  0.4008
16387TIP3    H170652   0.912   4.008  10.619 -0.9980  1.3559  0.4462
16387TIP3    H270653   0.995   4.122  10.565  0.4583  0.0702 -0.0788
16388TIP3   OH270654   4.298   0.480   4.366  0.3566  0.1999  0.0510
16388TIP3    H170655   4.216   0.435   4.346  0.1400 -0.1823  1.6249
16388TIP3    H270656   4.298   0.557   4.310 -0.1214 -0.8158 -1.4043
16389TIP3   OH270657   0.091   2.081   2.218  0.8006 -0.2216 -0.4001
16389TIP3    H170658   0.170   2.131   2.238  0.6644 -0.3916  0.5770
16389TIP3    H270659   0.030   2.147   2.182  1.3212 -0.0669 -1.0175
16390TIP3   OH270660   0.169   6.760  12.955  0.4004 -0.2466 -0.4215
16390TIP3    H170661   0.234   6.690  12.956 -0.8227 -1.4477  1.1051
16390TIP3    H270662   0.184   6.807  13.037  0.4207  0.5437 -0.8695
16391TIP3   OH270663   4.174   5.419  16.000 -0.0464  0.6026  0.5855
16391TIP3    H170664   4.103   5.375  15.953 -1.2301  2.8504  0.1202
16391TIP3    H270665   4.131   5.454  16.079  0.7794  1.1503  0.7987
16392TIP3   OH270666   3.387   2.905  13.796  0.3339 -0.2905  0.6057
16392TIP3    H170667   3.339   2.832  13.833  0.5783  0.2046  1.9488
16392TIP3    H270668   3.331   2.981  13.812  0.4410 -0.0622 -0.0668
16393TIP3   OH270669   4.405   2.224   1.809 -0.1983  0.2449 -0.4353
16393TIP3    H170670   4.467   2.184   1.870 -0.1393  1.9927  0.7282
16393TIP3    H270671   4.386   2.156   1.745  2.8287 -0.4031 -0.7711
16394TIP3   OH270672   4.126   6.185   0.868 -0.2671 -0.2874  0.3596
16394TIP3    H170673   4.203   6.129   0.873  1.2726  1.7108  0.3452
16394TIP3    H270674   4.102   6.201   0.959  0.7061  0.8347  0.4341
16395TIP3   OH270675   1.143   2.043   5.162 -0.2023 -0.0159 -0.3823
16395TIP3    H170676   1.188   2.074   5.083  1.6386 -0.2709  0.5032
16395TIP3    H270677   1.195   1.968   5.190 -0.8439  0.0619  1.0505
16396TIP3   OH270678   0.438   3.350   6.450 -0.3065  0.2992 -0.1860
16396TIP3    H170679   0.428   3.440   6.418  0.5383  1.0199  1.4341
16396TIP3    H270680   0.530   3.330   6.434 -0.1592  0.2489  0.6460
16397TIP3   OH270681   4.172   6.739  13.665  0.6925  0.0499  0.0361
16397TIP3    H170682   4.137   6.654  13.692  0.6250  0.0885  0.0719
16397TIP3    H270683   4.266   6.725  13.657  0.7011  0.0113  0.1963
16398TIP3   OH270684   4.434   2.145   3.344  0.1457 -0.3725  0.0703
16398TIP3    H170685   4.339   2.144   3.333  0.2709 -1.4813 -1.1196
16398TIP3    H270686   4.459   2.236   3.331 -0.5972 -0.3395 -1.2275
16399TIP3   OH270687   5.064   6.396   0.188  0.2032  0.2480  0.2101
16399TIP3    H170688   5.023   6.386   0.273 -1.5902 -3.6575 -0.8929
16399TIP3    H270689   5.014   6.339   0.130  1.5603  2.4207 -3.4504
16400TIP3   OH270690   0.896   2.866   2.684  0.8209 -0.0234  0.2170
16400TIP3    H170691   0.859   2.869   2.772  0.3196 -0.7907  0.0460
16400TIP3    H270692   0.955   2.791   2.685  1.6022  0.5739  0.1799
16401TIP3   OH270693   5.512   2.109  12.416  0.0024 -0.7468  0.0370
16401TIP3    H170694   5.588   2.081  12.366 -1.2556  0.1235 -2.5561
16401TIP3    H270695   5.442   2.050  12.388 -0.9501  0.3106  0.1144
16402TIP3   OH270696   5.179   1.344  13.545  0.1019  0.6444 -0.2309
16402TIP3    H170697   5.156   1.398  13.469 -0.3415  0.8453  0.0446
16402TIP3    H270698   5.099   1.342  13.598 -0.2335 -1.1620 -0.7414
16403TIP3   OH270699   0.623   5.277  14.468  0.0083 -0.4181 -0.7265
16403TIP3    H170700   0.681   5.304  14.398  0.6176 -1.3748 -0.6160
16403TIP3    H270701   0.589   5.359  14.505  1.8490  0.2195 -0.3205
16404TIP3   OH270702   3.335   5.235  11.826  0.2782  1.0848 -0.6906
16404TIP3    H170703   3.256   5.279  11.793 -1.4112 -0.6061  0.8395
16404TIP3    H270704   3.362   5.179  11.753 -2.5240 -1.4946  0.0469
16405TIP3   OH270705   3.700   6.539  16.008  0.1694  0.4761 -0.3407
16405TIP3    H170706   3.759   6.613  15.995 -0.7029  1.2956  0.2146
16405TIP3    H270707   3.658   6.556  16.092 -0.6583 -0.2208 -0.6001
16406TIP3   OH270708   1.909   3.115  15.139  0.2661  0.3800 -0.3434
16406TIP3    H170709   1.868   3.091  15.056 -1.1540  1.8953 -0.1327
16406TIP3    H270710   1.947   3.201  15.122 -0.6329  1.0132  0.7310
16407TIP3   OH270711   3.033   2.353   0.363  0.5771  0.2561 -0.7542
16407TIP3    H170712   2.945   2.380   0.339  0.7389  0.9064 -0.6392
16407TIP3    H270713   3.091   2.415   0.318  0.9102  0.9916  0.6134
16408TIP3   OH270714   1.583   4.564  11.501  0.1631  0.2411  0.5156
16408TIP3    H170715   1.653   4.569  11.565  3.7322 -0.7056 -2.9060
16408TIP3    H270716   1.551   4.654  11.492  1.6892  0.9069  1.4446
16409TIP3   OH270717   4.773   3.032  10.956  0.1677 -0.0044 -0.9152
16409TIP3    H170718   4.682   3.058  10.941 -0.3300 -1.1378 -0.0578
16409TIP3    H270719   4.824   3.109  10.931 -0.9013  0.1402 -2.9051
16410TIP3   OH270720   0.413   0.530  14.416  0.2265  0.5109 -0.1225
16410TIP3    H170721   0.331   0.481  14.424  2.3643 -3.4413  0.2077
16410TIP3    H270722   0.433   0.528  14.322  1.0843 -0.8005  0.0578
16411TIP3   OH270723   3.054   6.148  12.728 -0.0141 -0.8033  0.5002
16411TIP3    H170724   3.093   6.071  12.686  0.0187  0.9504 -3.0225
16411TIP3    H270725   3.129   6.205  12.747 -0.3006  0.7737 -2.4465
16412TIP3   OH270726   4.258   2.640  12.795  0.3801 -0.2834  0.5801
16412TIP3    H170727   4.208   2.698  12.737  0.9845 -1.0377 -0.7573
16412TIP3    H270728   4.310   2.699  12.850 -0.7332  0.4688  0.8556
16413TIP3   OH270729   3.535   5.679   5.527 -0.2863 -0.1745  0.1390
16413TIP3    H170730   3.484   5.724   5.459  0.5288 -0.9030 -0.9966
16413TIP3    H270731   3.475   5.674   5.601 -1.3653  0.2841 -0.6620
16414TIP3   OH270732   0.205   3.761  13.741  0.2303  1.0819 -0.4470
16414TIP3    H170733   0.265   3.815  13.793 -0.6616  0.3209  1.4783
16414TIP3    H270734   0.249   3.676  13.734 -0.1819  0.8146  0.1392
16415TIP3   OH270735   5.818   1.424   5.534  0.6621  0.0931 -0.0783
16415TIP3    H170736   5.750   1.362   5.558 -1.2742  0.9073 -2.8704
16415TIP3    H270737   5.895   1.369   5.516 -0.5398 -1.3701 -1.0074
16416TIP3   OH270738   5.198   6.310   3.928  0.2153 -0.0810  0.2304
16416TIP3    H170739   5.220   6.398   3.897  1.8010 -0.5191  0.0280
16416TIP3    H270740   5.270   6.288   3.988 -0.9264 -0.6714  1.4170
16417TIP3   OH270741   0.373   0.133  11.972 -0.1682 -0.6531 -0.0437
16417TIP3    H170742   0.405   0.218  12.000  0.3529 -0.3881 -1.3664
16417TIP3    H270743   0.378   0.078  12.050  0.0641  0.3594  0.6720
16418TIP3   OH270744   5.258   2.895   0.916  0.5923  0.0265 -0.3739
16418TIP3    H170745   5.165   2.897   0.938  0.9936 -0.1708  1.5288
16418TIP3    H270746   5.297   2.965   0.968  1.5367  0.0413 -1.0654
16419TIP3   OH270747   4.275   5.327  14.522 -0.3521 -0.3392  0.0170
16419TIP3    H170748   4.229   5.301  14.602 -0.0000 -0.8041  0.0746
16419TIP3    H270749   4.232   5.408  14.494 -0.0223  0.2059  1.0562
16420TIP3   OH270750   0.780   1.134   0.287  0.0161  0.0527 -0.8392
16420TIP3    H170751   0.714   1.126   0.356  0.5606 -0.4912 -0.3783
16420TIP3    H270752   0.796   1.229   0.281  0.5284  0.0623  0.3359
16421TIP3   OH270753   0.292   2.755  15.236  0.2738 -0.2626 -0.0122
16421TIP3    H170754   0.318   2.701  15.160 -1.8197  0.1227 -1.0693
16421TIP3    H270755   0.290   2.844  15.202  0.6072  0.1006  0.8916
16422TIP3   OH270756   2.684   4.527   3.746 -0.6040 -0.6724  0.2908
16422TIP3    H170757   2.633   4.572   3.678 -0.0012  0.2631  0.4388
16422TIP3    H270758   2.618   4.482   3.799 -1.1908 -0.3399 -0.1341
16423TIP3   OH270759   1.714   0.229   5.134  0.2347  0.0739  0.0069
16423TIP3    H170760   1.735   0.322   5.147  0.7590  0.1680 -1.2872
16423TIP3    H270761   1.681   0.199   5.219 -0.7155  1.6417  0.2289
16424TIP3   OH270762   2.548   4.725   1.501  0.0708  0.0146  0.5376
16424TIP3    H170763   2.544   4.630   1.514 -0.2688  0.1657  1.6198
16424TIP3    H270764   2.610   4.756   1.567 -0.3836  0.6271  0.6837
16425TIP3   OH270765   5.048   0.839   1.952 -0.1704 -0.7749  0.4652
16425TIP3    H170766   5.061   0.816   1.860 -0.4154 -0.7716  0.4293
16425TIP3    H270767   5.132   0.820   1.994 -0.7118 -2.8504  0.6786
16426TIP3   OH270768   4.796   6.323  11.328 -0.0711 -0.2040 -0.2141
16426TIP3    H170769   4.839   6.409  11.326  0.6241 -0.5027  0.8481
16426TIP3    H270770   4.747   6.319  11.246 -0.3023  1.3022 -0.1793
16427TIP3   OH270771   3.586   0.227   6.655  0.3109 -0.4234 -1.0528
16427TIP3    H170772   3.662   0.276   6.622  0.2821 -0.6386 -1.4352
16427TIP3    H270773   3.619   0.138   6.668  1.1376  0.2003  2.1853
16428TIP3   OH270774   3.071   4.195   3.078 -0.8920  0.4882  0.2106
16428TIP3    H170775   3.018   4.238   3.145  0.1324 -1.7089  2.6291
16428TIP3    H270776   3.113   4.122   3.124 -1.2502 -2.1031 -3.1701
16429TIP3   OH270777   5.456   2.286  15.015 -0.2333 -0.0188 -0.2395
16429TIP3    H170778   5.401   2.364  15.012  0.4252  0.5806  1.7281
16429TIP3    H270779   5.530   2.311  15.070  0.5736 -1.6907 -0.5005
16430TIP3   OH270780   6.721   1.042  15.587  0.4837 -0.6027  0.5320
16430TIP3    H170781   6.715   1.113  15.651 -2.3402  0.3109 -0.5811
16430TIP3    H270782   6.657   0.977  15.617  0.7692 -1.2055 -0.1389
16431TIP3   OH270783   5.714   0.105   5.134  0.6211 -0.2108 -0.0867
16431TIP3    H170784   5.726   0.068   5.046  1.2828 -1.6212  0.5538
16431TIP3    H270785   5.620   0.100   5.150  0.3877  0.8136 -1.0049
16432TIP3   OH270786   2.910   4.505   4.246  0.4109 -0.2516  0.2220
16432TIP3    H170787   2.872   4.433   4.296  1.6662 -1.0207  0.1111
16432TIP3    H270788   2.835   4.550   4.207 -0.4197 -1.2066  0.6928
16433TIP3   OH270789   1.220   0.916  13.569  0.2933  0.1897 -0.0059
16433TIP3    H170790   1.305   0.914  13.613  1.7444  0.1097 -2.5750
16433TIP3    H270791   1.181   0.831  13.589  1.3104 -0.2021  0.3819
16434TIP3   OH270792   2.632   5.493   2.288 -0.0911  0.3380 -0.3852
16434TIP3    H170793   2.548   5.517   2.326  0.0045  1.3658 -0.7766
16434TIP3    H270794   2.673   5.577   2.265  0.7549 -0.1694 -0.7992
16435TIP3   OH270795   3.461   5.739  14.586  0.1347 -0.5206 -0.4435
16435TIP3    H170796   3.540   5.691  14.561  0.1594 -0.2598 -0.8926
16435TIP3    H270797   3.481   5.830  14.562  0.7854  0.0488  2.0302
16436TIP3   OH270798   4.754   1.112  12.400  0.9309 -0.0947  0.3799
16436TIP3    H170799   4.743   1.142  12.309  0.0294  0.5850  0.6946
16436TIP3    H270800   4.768   1.018  12.392 -0.8767 -0.3497 -0.3991
16437TIP3   OH270801   4.337   1.218   1.686  0.4979 -0.2880 -0.6971
16437TIP3    H170802   4.375   1.192   1.602  2.0596 -0.0830 -0.0899
16437TIP3    H270803   4.266   1.156   1.701  3.2715 -3.5425  0.1185
16438TIP3   OH270804   5.000   5.815  15.823  0.3368  0.1350  0.1152
16438TIP3    H170805   5.044   5.896  15.851  1.5731 -0.3376 -0.3867
16438TIP3    H270806   5.067   5.767  15.774 -0.5774 -0.8997 -0.1606
16439TIP3   OH270807   3.564   5.888   0.895  0.0870 -0.1070  0.0315
16439TIP3    H170808   3.596   5.960   0.950  0.3196 -0.0208 -0.2133
16439TIP3    H270809   3.535   5.931   0.814 -1.8393 -0.0221  0.7122
16440TIP3   OH270810   2.585   5.261  11.205  0.3806 -0.1764  0.0700
16440TIP3    H170811   2.521   5.199  11.239 -1.9697  1.9145 -0.2520
16440TIP3    H270812   2.595   5.237  11.113  1.4609 -1.5815  0.5187
16441TIP3   OH270813   6.389   5.035  12.937 -0.6925  0.0595  0.3630
16441TIP3    H170814   6.441   4.960  12.908  0.3402  1.3985 -1.3772
16441TIP3    H270815   6.400   5.036  13.033 -0.5223 -1.8262  0.4031
16442TIP3   OH270816   5.631   5.584   4.655  0.1179  0.1006  0.2851
16442TIP3    H170817   5.552   5.636   4.665 -0.5004 -0.9573  1.0861
16442TIP3    H270818   5.643   5.542   4.740  1.1927 -0.2427 -0.0171
16443TIP3   OH270819   3.556   3.178   2.735  0.2360  0.0203  0.9191
16443TIP3    H170820   3.625   3.136   2.787  0.4784 -2.8667 -1.4987
16443TIP3    H270821   3.601   3.206   2.655 -1.3862 -2.4351 -0.9608
16444TIP3   OH270822   2.974   3.767  13.272 -0.1396  0.3283  0.0844
16444TIP3    H170823   2.978   3.840  13.334  0.5248 -0.2046  0.6915
16444TIP3    H270824   3.032   3.700  13.310 -1.5149 -0.9223  0.0705
16445TIP3   OH270825   6.043   5.693  16.020  0.1868 -0.1786 -0.5177
16445TIP3    H170826   5.973   5.630  15.999 -0.3707  0.4491 -0.5589
16445TIP3    H270827   6.057   5.681  16.114 -0.4036  0.1170 -0.3859
16446TIP3   OH270828   3.601   1.089  11.320  0.2346 -0.2243  0.7693
16446TIP3    H170829   3.549   1.125  11.392 -0.4536 -0.6029  0.4746
16446TIP3    H270830   3.541   1.030  11.275  0.9713 -0.7810  0.5023
16447TIP3   OH270831   2.602   6.081   2.546  0.2398 -0.0016  0.5425
16447TIP3    H170832   2.537   6.016   2.521 -0.6184 -0.6872  4.0922
16447TIP3    H270833   2.551   6.161   2.562  0.7508  0.4109  0.1520
16448TIP3   OH270834   2.223   3.434  13.426 -0.0219 -0.2080 -0.3184
16448TIP3    H170835   2.230   3.460  13.518 -0.3132  0.2224 -0.4149
16448TIP3    H270836   2.170   3.355  13.427  0.7884 -0.7613 -0.0273
16449TIP3   OH270837   3.210   6.772  16.035  0.2551 -0.3602 -0.3283
16449TIP3    H170838   3.260   6.803  15.960 -1.2579 -0.6598 -1.5185
16449TIP3    H270839   3.203   6.847  16.094  0.7377  0.1208 -0.8881
16450TIP3   OH270840   5.637   4.454   4.689 -0.1110  0.4999  0.3334
16450TIP3    H170841   5.607   4.413   4.608 -0.2196  0.7253  0.2589
16450TIP3    H270842   5.564   4.510   4.716  0.0330  0.6370  0.4391
16451TIP3   OH270843   1.435   3.930  14.583 -0.6903  0.2855  0.4329
16451TIP3    H170844   1.437   3.964  14.494  1.1332  1.9630  1.0475
16451TIP3    H270845   1.524   3.943  14.616 -1.3676 -0.0971  2.5685
16452TIP3   OH270846   3.420   2.902  13.511 -0.2962 -0.2688 -0.2972
16452TIP3    H170847   3.424   2.807  13.515  0.3888 -0.2296 -0.0856
16452TIP3    H270848   3.395   2.929  13.599  2.2197 -0.1157  0.4322
16453TIP3   OH270849   4.557   0.963   1.962 -0.5689 -0.3143 -0.1553
16453TIP3    H170850   4.546   1.056   1.940 -1.1258 -0.2607  0.3413
16453TIP3    H270851   4.484   0.943   2.020  1.3211 -0.2262  2.4235
16454TIP3   OH270852   2.313   0.748   5.313 -0.7034 -0.0821 -0.3686
16454TIP3    H170853   2.295   0.655   5.307  0.7885 -0.3252 -1.6934
16454TIP3    H270854   2.234   0.790   5.279 -1.2014 -0.8601 -0.2003
16455TIP3   OH270855   6.199   6.801   2.121 -0.1421 -0.6284  0.1939
16455TIP3    H170856   6.264   6.847   2.174 -1.0319  0.6640  0.2049
16455TIP3    H270857   6.120   6.855   2.128 -1.1964 -2.1111  0.1063
16456TIP3   OH270858   4.188   0.148   1.239  0.4011 -0.1155 -0.0929
16456TIP3    H170859   4.235   0.189   1.311  0.0377 -0.5107  0.3740
16456TIP3    H270860   4.096   0.172   1.254  0.4505  0.8090 -1.0996
16457TIP3   OH270861   1.256   1.290   6.081 -0.3868  0.3102 -0.0990
16457TIP3    H170862   1.257   1.258   6.171  2.3842  0.6067  0.0545
16457TIP3    H270863   1.170   1.266   6.048 -0.9765 -1.0075  2.1934
16458TIP3   OH270864   1.072   2.701  10.467 -0.2220  0.1963 -0.3191
16458TIP3    H170865   1.144   2.639  10.480 -0.8656 -0.4658  0.2289
16458TIP3    H270866   1.112   2.776  10.424  0.5416 -0.6884 -1.2066
16459TIP3   OH270867   1.160   2.120   6.349 -0.1666 -0.3039 -0.3830
16459TIP3    H170868   1.111   2.044   6.317  0.4208 -0.4897 -0.8475
16459TIP3    H270869   1.247   2.086   6.368 -0.1221  0.0958  0.1338
16460TIP3   OH270870   5.044   4.833  13.358  0.1725 -0.0211 -0.2243
16460TIP3    H170871   5.035   4.928  13.345  0.7803  0.2675  1.2215
16460TIP3    H270872   5.018   4.795  13.274  0.0607  1.4293 -0.8906
16461TIP3   OH270873   6.733   5.700  15.666 -0.0865 -0.7146  0.2629
16461TIP3    H170874   6.775   5.637  15.607  2.2655  1.0533 -0.1012
16461TIP3    H270875   6.744   5.784  15.622 -1.3861  0.2244  1.6401
16462TIP3   OH270876   1.933   1.499  11.198  0.0851  0.6742 -0.5988
16462TIP3    H170877   1.940   1.519  11.292  0.6858  1.0446 -0.7189
16462TIP3    H270878   2.020   1.471  11.172  0.0735  1.1428 -1.1740
16463TIP3   OH270879   3.560   2.616   5.251  0.1412 -0.5686  0.2556
16463TIP3    H170880   3.507   2.618   5.331 -0.9847 -2.2929 -0.3940
16463TIP3    H270881   3.582   2.524   5.239  0.1738 -0.3527 -1.4939
16464TIP3   OH270882   1.405   0.949   0.445  0.0676  0.2729 -0.1769
16464TIP3    H170883   1.441   0.905   0.367 -1.4747 -1.1022 -0.1760
16464TIP3    H270884   1.315   0.917   0.450 -0.3976  1.7023  1.1999
16465TIP3   OH270885   6.563   2.723  11.832 -0.1201 -0.3320 -0.2384
16465TIP3    H170886   6.567   2.776  11.753 -0.7986 -0.5473 -0.4258
16465TIP3    H270887   6.482   2.750  11.876  0.8291  0.6283  1.0043
16466TIP3   OH270888   0.030   0.823  13.027 -0.0306  0.2128  0.4799
16466TIP3    H170889   0.055   0.837  12.936  0.6573 -0.3869  0.5686
16466TIP3    H270890   0.043   0.907  13.070  0.2072  0.3425  0.1496
16467TIP3   OH270891   1.232   5.170   0.346 -0.3585 -0.3189  0.2904
16467TIP3    H170892   1.178   5.228   0.399 -0.9106 -0.8313  0.3007
16467TIP3    H270893   1.282   5.119   0.410 -1.2675 -1.1692  0.3490
16468TIP3   OH270894   2.773   0.129  14.875 -0.0251  0.5475  0.6459
16468TIP3    H170895   2.840   0.172  14.928 -0.5522  0.5240  1.3464
16468TIP3    H270896   2.777   0.037  14.903 -0.4769  0.5824  0.8333
16469TIP3   OH270897   1.438   1.988   0.601  0.1974 -0.5343  0.4134
16469TIP3    H170898   1.403   2.074   0.624  0.3079 -0.6024  0.8522
16469TIP3    H270899   1.364   1.928   0.612  0.7121 -0.8787  2.5909
16470TIP3   OH270900   4.462   5.605  12.706 -0.1405  0.1563 -0.4910
16470TIP3    H170901   4.496   5.669  12.769  0.8349  1.3582 -2.1563
16470TIP3    H270902   4.420   5.659  12.639 -2.6537 -1.1564 -0.1126
16471TIP3   OH270903   2.720   1.717   1.483 -0.0874 -0.2564  0.2961
16471TIP3    H170904   2.725   1.790   1.546  1.3352 -0.5240  0.5202
16471TIP3    H270905   2.811   1.694   1.466 -0.5066 -1.9618  0.1894
16472TIP3   OH270906   1.869   2.357  10.858 -0.3758  0.6932  0.2487
16472TIP3    H170907   1.810   2.325  10.790 -2.1518 -0.6678  2.2533
16472TIP3    H270908   1.921   2.281  10.883 -1.2737  0.5370  1.8156
16473TIP3   OH270909   5.827   1.312   4.840  0.5654 -0.0960 -0.0638
16473TIP3    H170910   5.788   1.241   4.789 -0.3643  0.1881  0.2241
16473TIP3    H270911   5.773   1.388   4.819  0.0407 -0.0201  1.4811
16474TIP3   OH270912   5.147   5.544  15.439 -0.2088 -0.4630  0.1647
16474TIP3    H170913   5.096   5.566  15.517 -1.3470  0.8418 -0.8798
16474TIP3    H270914   5.166   5.451  15.448 -1.8923 -0.7597  1.1242
16475TIP3   OH270915   3.645   3.042  11.470 -0.6482 -0.4519 -0.0832
16475TIP3    H170916   3.562   2.994  11.472 -0.8232 -0.1955 -0.8372
16475TIP3    H270917   3.690   3.015  11.550 -1.4530 -0.6020  0.3291
16476TIP3   OH270918   2.717   3.062  13.965 -0.2889  0.6985 -0.0877
16476TIP3    H170919   2.685   3.050  13.875  0.4247 -0.3291 -0.2280
16476TIP3    H270920   2.809   3.034  13.961 -0.4029  0.1244  1.0781
16477TIP3   OH270921   4.070   3.309  10.329 -0.2450  0.2892  0.1702
16477TIP3    H170922   4.050   3.316  10.236  1.1234  0.4976 -0.1391
16477TIP3    H270923   4.096   3.217  10.341 -2.9240 -0.4397  0.9204
16478TIP3   OH270924   2.619   2.632  10.890  0.2391  0.1791  0.5091
16478TIP3    H170925   2.575   2.579  10.824  1.7836 -1.3217  0.6204
16478TIP3    H270926   2.649   2.569  10.956  2.6450  1.0447  0.3661
16479TIP3   OH270927   1.665   0.268   4.757 -0.2196 -0.5104  0.6378
16479TIP3    H170928   1.616   0.275   4.675  0.5781 -1.2112  0.0733
16479TIP3    H270929   1.599   0.254   4.824 -0.9774  1.2512  0.3038
16480TIP3   OH270930   4.439   1.132  11.188  0.4817 -0.0432  0.1905
16480TIP3    H170931   4.345   1.138  11.206  0.4758 -2.5180  1.3191
16480TIP3    H270932   4.444   1.098  11.098  0.2080 -1.9515  0.8592
16481TIP3   OH270933   1.118   1.825   6.573 -0.3651 -0.2322 -0.2082
16481TIP3    H170934   1.129   1.844   6.667 -0.0870 -1.3941 -0.0009
16481TIP3    H270935   1.037   1.872   6.550 -0.4111  0.1152  0.5972
16482TIP3   OH270936   2.583   1.220   3.952  0.1714 -0.4523 -0.2454
16482TIP3    H170937   2.552   1.178   4.033 -0.3593  0.0130 -0.2023
16482TIP3    H270938   2.574   1.314   3.968  1.9237 -0.2640 -0.1133
16483TIP3   OH270939   1.410   5.400   4.514 -0.2613  0.2252  0.2872
16483TIP3    H170940   1.474   5.329   4.512 -1.2654 -0.7606  1.1980
16483TIP3    H270941   1.436   5.458   4.442  0.9327 -0.7600 -0.1155
16484TIP3   OH270942   3.341   1.418  10.976 -0.7738 -0.5076 -0.3266
16484TIP3    H170943   3.307   1.388  10.892 -0.8910  1.1797 -0.9163
16484TIP3    H270944   3.330   1.513  10.974 -0.0938 -0.3615  1.2975
16485TIP3   OH270945   2.654   3.996  14.897  0.1074 -0.0360 -0.4295
16485TIP3    H170946   2.639   3.928  14.964  0.6933  1.2262  1.0482
16485TIP3    H270947   2.566   4.018  14.866 -0.4712  1.1621  1.8347
16486TIP3   OH270948   5.746   1.664   3.000 -0.3205 -0.8518  0.1085
16486TIP3    H170949   5.738   1.757   2.976  1.1214 -0.7508 -0.0255
16486TIP3    H270950   5.659   1.628   2.982 -1.1122  0.6041  0.7913
16487TIP3   OH270951   1.669   2.440   1.800 -0.0713 -0.4028  0.1304
16487TIP3    H170952   1.745   2.495   1.778 -1.6369  0.9681 -2.4058
16487TIP3    H270953   1.703   2.377   1.863  2.6415  1.4565  0.7381
16488TIP3   OH270954   1.540   1.223   4.001  0.0629  0.6243  0.1243
16488TIP3    H170955   1.479   1.194   4.069 -1.2473  1.8952 -0.4500
16488TIP3    H270956   1.493   1.293   3.956  1.5543  0.9136 -1.0394
16489TIP3   OH270957   3.295   4.260   1.307  0.2554 -0.3293 -0.6110
16489TIP3    H170958   3.214   4.272   1.257  0.2033 -0.4198 -0.5492
16489TIP3    H270959   3.266   4.259   1.399  0.2430 -1.0055 -0.6155
16490TIP3   OH270960   6.295   1.898   4.936  0.2306 -1.0034 -0.5063
16490TIP3    H170961   6.217   1.926   4.889 -0.0545  0.8523  0.9678
16490TIP3    H270962   6.278   1.807   4.959 -2.1952 -0.2457  1.0327
16491TIP3   OH270963   3.826   1.819   2.153 -0.0751  0.4618 -0.3844
16491TIP3    H170964   3.757   1.830   2.087  0.0255  1.4108 -0.3425
16491TIP3    H270965   3.892   1.884   2.128 -0.2304  1.1393  0.8976
16492TIP3   OH270966   6.627   5.608  16.376  0.0291 -0.0506  0.2164
16492TIP3    H170967   6.553   5.666  16.358  1.4489  2.5431  2.1463
16492TIP3    H270968   6.699   5.645  16.325  0.5271 -1.3503 -0.0639
16493TIP3   OH270969   3.719   4.840   0.456 -1.0508  0.3472  0.0879
16493TIP3    H170970   3.695   4.931   0.477 -0.8763  0.8262 -1.6330
16493TIP3    H270971   3.705   4.792   0.538 -1.3645  1.8798  0.9728
16494TIP3   OH270972   4.914   1.817   2.725  0.2020  0.4446  0.2215
16494TIP3    H170973   4.983   1.808   2.791  0.2071 -0.9673  0.0412
16494TIP3    H270974   4.948   1.772   2.648 -0.5825  0.4505 -0.1361
16495TIP3   OH270975   5.363   5.948   0.191 -0.0761  0.2234 -0.1673
16495TIP3    H170976   5.450   5.962   0.154 -0.0633 -1.0788 -0.6657
16495TIP3    H270977   5.320   5.888   0.130 -1.7596  1.7320 -0.5478
16496TIP3   OH270978   0.793   4.809   5.461  0.0816  0.0081 -0.6836
16496TIP3    H170979   0.842   4.831   5.381  1.4111 -0.8055 -0.1130
16496TIP3    H270980   0.817   4.718   5.480 -0.4077  0.1116  0.5030
16497TIP3   OH270981   4.440   5.242  15.301 -0.7910  0.0016  0.4472
16497TIP3    H170982   4.527   5.206  15.317 -0.3027 -0.4224 -2.5643
16497TIP3    H270983   4.381   5.180  15.344  0.3162 -1.1711  0.3455
16498TIP3   OH270984   2.293   3.769  15.185  0.1639  0.1910  0.9291
16498TIP3    H170985   2.277   3.686  15.231  0.9866  0.5457  1.8995
16498TIP3    H270986   2.208   3.813  15.185  0.3401  0.6976  3.2278
16499TIP3   OH270987   4.055   5.060  14.381 -0.3042  0.4877  0.4697
16499TIP3    H170988   4.140   5.039  14.421 -0.4875  1.4055  1.3746
16499TIP3    H270989   3.994   4.999  14.423  0.0225 -0.7844 -0.8268
16500TIP3   OH270990   1.457   3.484  15.531  0.6746  0.1162 -0.2067
16500TIP3    H170991   1.476   3.560  15.476 -0.7451 -0.7590 -2.0210
16500TIP3    H270992   1.525   3.421  15.509 -1.3349 -1.2537 -3.1712
16501TIP3   OH270993   4.132   5.004  15.663 -0.0295  0.0259  0.0721
16501TIP3    H170994   4.079   5.005  15.583 -0.7445  0.4559  0.5350
16501TIP3    H270995   4.090   5.068  15.720 -0.0965 -0.9578  1.1644
16502TIP3   OH270996   6.434   3.480  16.298 -0.2854 -0.0632 -0.6364
16502TIP3    H170997   6.411   3.526  16.217 -2.6647  0.6773  0.3580
16502TIP3    H270998   6.434   3.388  16.274 -0.8428  0.1573 -1.5223
16503TIP3   OH270999   4.275   3.513   3.875 -0.2148 -0.0829 -0.2719
16503TIP3    H171000   4.300   3.511   3.782 -0.6562  0.4891 -0.4099
16503TIP3    H271001   4.236   3.428   3.891  1.0792 -0.6944 -0.2570
16504TIP3   OH271002   3.137   4.804   1.092  0.3639 -0.1653  0.0938
16504TIP3    H171003   3.218   4.798   1.142  0.2001 -0.6117  0.3071
16504TIP3    H271004   3.103   4.892   1.113 -0.2910 -0.7551  1.6910
16505TIP3   OH271005   1.670   6.284  13.522  0.2583  0.5042  0.1969
16505TIP3    H171006   1.601   6.218  13.509  0.1624  0.4602  0.8804
16505TIP3    H271007   1.653   6.319  13.610  1.1194  0.4767  0.3835
16506TIP3   OH271008   2.906   3.835   1.945  0.3283  0.4416  0.5012
16506TIP3    H171009   2.921   3.929   1.935 -0.1685  0.4386 -0.3555
16506TIP3    H271010   2.943   3.814   2.031  1.5235  1.1805  0.1903
16507TIP3   OH271011   1.420   3.694   1.871  0.3068  0.5969  0.1552
16507TIP3    H171012   1.485   3.700   1.942  1.4752  1.3795 -0.9465
16507TIP3    H271013   1.336   3.687   1.916  1.1591 -0.9414  1.6451
16508TIP3   OH271014   6.525   3.017  12.887 -0.0519 -0.0112  0.0195
16508TIP3    H171015   6.445   3.066  12.904 -2.2900 -2.7152 -1.8527
16508TIP3    H271016   6.582   3.080  12.842 -2.4988  1.1258 -1.7106
16509TIP3   OH271017   5.958   4.335  14.477  0.4488  0.2994 -0.0812
16509TIP3    H171018   6.009   4.344  14.557  1.0062 -0.0249 -0.3912
16509TIP3    H271019   5.951   4.425  14.443  0.3220  0.4185  0.2650
16510TIP3   OH271020   2.345   2.334  14.513  0.4735 -0.8123  0.4645
16510TIP3    H171021   2.438   2.314  14.524  0.9148 -0.9950 -2.6322
16510TIP3    H271022   2.313   2.266  14.454 -1.2166  0.1793  0.1831
16511TIP3   OH271023   1.101   0.750  15.814  0.1050 -0.5506  0.1024
16511TIP3    H171024   1.124   0.836  15.779 -0.6612 -0.9315 -1.4355
16511TIP3    H271025   1.163   0.736  15.886  3.0933 -0.4407 -2.2066
16512TIP3   OH271026   0.523   6.511  11.927 -0.1070 -0.1662  0.1826
16512TIP3    H171027   0.586   6.582  11.934 -1.4210  1.1238 -0.5166
16512TIP3    H271028   0.447   6.549  11.882 -0.5971 -2.1867 -0.8757
16513TIP3   OH271029   6.469   0.083  13.895  0.2331 -0.4139 -0.3502
16513TIP3    H171030   6.406   0.125  13.954  0.6767 -0.6431  0.2978
16513TIP3    H271031   6.417   0.060  13.818 -0.3549 -0.0804 -0.0647
16514TIP3   OH271032   4.483   0.886   1.604  0.4453  0.4145  0.0764
16514TIP3    H171033   4.534   0.936   1.667 -0.0762  0.9351  0.0991
16514TIP3    H271034   4.436   0.952   1.553  1.2741  0.0355 -1.2337
16515TIP3   OH271035   2.229   6.688  12.453 -0.2296 -0.6563  0.5156
16515TIP3    H171036   2.193   6.776  12.462 -1.8942 -1.1451 -0.7876
16515TIP3    H271037   2.315   6.700  12.414 -0.5265  0.3805  0.1755
16516TIP3   OH271038   5.424   5.625  15.486  0.4906 -0.0030 -0.1423
16516TIP3    H171039   5.343   5.589  15.450  0.0978  1.0954 -0.3958
16516TIP3    H271040   5.408   5.632  15.580  0.6137 -0.6019 -0.0778
16517TIP3   OH271041   4.528   1.459  14.489 -0.7070  0.1304 -0.5880
16517TIP3    H171042   4.504   1.514  14.415  0.3093 -0.2903 -1.2647
16517TIP3    H271043   4.581   1.389  14.450 -2.3443 -1.6129  0.1719
16518TIP3   OH271044   1.319   0.792   3.722  0.0074  0.3155  0.4864
16518TIP3    H171045   1.312   0.887   3.725  3.0526  0.6615  0.6523
16518TIP3    H271046   1.259   0.766   3.652 -0.8533  2.3569  0.3929
16519TIP3   OH271047   0.384   3.296   5.398  0.0288  0.0575 -0.0575
16519TIP3    H171048   0.410   3.333   5.483 -0.4460  0.5876 -0.1381
16519TIP3    H271049   0.404   3.203   5.406 -0.4286  0.0212  0.8069
16520TIP3   OH271050   6.046   3.567  14.333  0.6699  0.3316 -0.2874
16520TIP3    H171051   6.089   3.482  14.341  2.7848  1.3380 -0.2037
16520TIP3    H271052   5.962   3.556  14.378  0.2580 -2.0617 -1.4661
16521TIP3   OH271053   4.699   1.521  15.231  0.1405 -0.1289 -0.2100
16521TIP3    H171054   4.635   1.495  15.164  1.8485 -0.9042 -1.6130
16521TIP3    H271055   4.716   1.613  15.213  0.2359 -0.2094 -0.5443
16522TIP3   OH271056   1.895   6.088  13.584 -0.1962  0.0186  0.0846
16522TIP3    H171057   1.983   6.084  13.547  0.0523 -1.3967  0.7320
16522TIP3    H271058   1.837   6.077  13.509  0.2344 -0.4733 -0.1894
16523TIP3   OH271059   2.480   1.630   2.101  0.2391  0.0199  0.0261
16523TIP3    H171060   2.489   1.535   2.096 -1.4348 -0.0918 -2.1577
16523TIP3    H271061   2.424   1.644   2.178  1.0823 -0.6816  0.7919
16524TIP3   OH271062   4.532   1.092   5.731 -0.1364 -0.1105  0.6179
16524TIP3    H171063   4.578   1.158   5.679 -0.3022 -0.2376  0.3036
16524TIP3    H271064   4.445   1.129   5.745 -0.1124 -0.1046  0.7537
16525TIP3   OH271065   4.898   6.772  15.003 -1.1357 -0.1080 -0.1359
16525TIP3    H171066   4.886   6.691  14.953 -1.9900 -0.7126  0.9610
16525TIP3    H271067   4.893   6.842  14.939 -2.4813 -0.8342 -0.8719
16526TIP3   OH271068   2.365   6.416   2.558  0.0335 -0.5028 -0.3603
16526TIP3    H171069   2.447   6.424   2.510 -0.5126  0.0594 -1.2223
16526TIP3    H271070   2.313   6.491   2.529 -0.9817 -1.1400 -0.2107
16527TIP3   OH271071   1.420   5.344  10.935 -0.0639 -0.8711 -0.1227
16527TIP3    H171072   1.510   5.362  10.961 -0.4066 -0.6717  0.9822
16527TIP3    H271073   1.368   5.370  11.010 -1.2666  1.3722 -1.6066
16528TIP3   OH271074   4.150   3.899   5.499 -0.2748 -0.1493 -0.0425
16528TIP3    H171075   4.231   3.933   5.461  0.1468  0.0165  0.9648
16528TIP3    H271076   4.111   3.846   5.429  1.5359 -1.5769 -0.0487
16529TIP3   OH271077   1.843   5.075  14.343 -0.2446  0.4528 -0.0918
16529TIP3    H171078   1.838   5.070  14.247 -1.9094 -0.1156  0.0009
16529TIP3    H271079   1.914   5.137  14.360 -1.4881  2.4280 -1.7176
16530TIP3   OH271080   2.554   2.185   0.316  0.8101 -0.5659  0.0023
16530TIP3    H171081   2.525   2.119   0.253 -0.3311 -0.2477  0.1643
16530TIP3    H271082   2.472   2.224   0.349  1.4359  0.3870  0.4782
16531TIP3   OH271083   6.370   0.750   2.752  0.0731  0.0055 -0.2667
16531TIP3    H171084   6.459   0.784   2.759 -0.1705  0.9171 -1.3222
16531TIP3    H271085   6.365   0.714   2.663 -0.3648 -0.8169  0.0729
16532TIP3   OH271086   2.230   2.029   4.473  0.2711 -0.4573  0.0316
16532TIP3    H171087   2.196   1.940   4.467 -0.7324 -0.0469 -0.5927
16532TIP3    H271088   2.172   2.072   4.536  0.1926  0.0012 -0.3486
16533TIP3   OH271089   0.074   2.464  12.737 -0.0193  0.0441 -0.6169
16533TIP3    H171090   0.018   2.387  12.743  0.7120 -0.3820  1.7258
16533TIP3    H271091   0.021   2.529  12.691 -1.7501 -0.9300 -0.0916
16534TIP3   OH271092   5.232   4.448  11.693  0.7712 -0.3407  0.1910
16534TIP3    H171093   5.208   4.366  11.737  1.8386 -1.2155 -0.7775
16534TIP3    H271094   5.211   4.433  11.601  0.2847  0.7702  0.1094
16535TIP3   OH271095   0.242   4.190  15.219  0.4621 -0.4667  0.6460
16535TIP3    H171096   0.213   4.170  15.131  1.9904 -1.6213  0.3569
16535TIP3    H271097   0.274   4.280  15.214  1.0606 -0.7156 -0.1304
16536TIP3   OH271098   6.848   1.017  15.998  0.0848 -0.1340  0.9582
16536TIP3    H171099   6.862   0.991  16.089  0.6161  0.1971  0.9762
16536TIP3    H271100   6.810   0.939  15.957  1.8605 -1.0671  0.9630
16537TIP3   OH271101   4.860   2.470   2.454 -0.1552 -0.1618 -0.4253
16537TIP3    H171102   4.834   2.458   2.546 -0.0806  2.5954  0.0442
16537TIP3    H271103   4.932   2.532   2.458 -0.6278  0.5782 -2.3852
16538TIP3   OH271104   5.761   4.431   4.943 -0.4878  0.2585  0.2176
16538TIP3    H171105   5.829   4.485   4.901 -0.3307 -0.1603 -0.0811
16538TIP3    H271106   5.698   4.415   4.873 -0.7324  0.3827  0.4121
16539TIP3   OH271107   5.329   2.883   4.498  0.2112  0.6213  0.2513
16539TIP3    H171108   5.245   2.862   4.539 -0.0604  0.3794 -0.4126
16539TIP3    H271109   5.330   2.978   4.492 -0.0961  0.6147  0.0865
16540TIP3   OH271110   4.628   4.750  16.582  0.2250 -0.6660 -0.3208
16540TIP3    H171111   4.620   4.819  16.516 -1.3100 -0.2847  0.2175
16540TIP3    H271112   4.712   4.708  16.562  0.6807  0.6271 -1.3514
16541TIP3   OH271113   2.250   2.709   1.167  0.4320  0.2107  0.3267
16541TIP3    H171114   2.255   2.776   1.099  0.6229 -0.4090 -0.2797
16541TIP3    H271115   2.222   2.756   1.246 -0.6056  0.8047 -0.3742
16542TIP3   OH271116   2.441   6.242   2.292 -0.3264  0.2592  0.0724
16542TIP3    H171117   2.360   6.270   2.336 -0.7233 -2.2615  1.1041
16542TIP3    H271118   2.511   6.289   2.339 -1.0242  0.6161  0.7790
16543TIP3   OH271119   6.305   2.010   3.516  0.0203  0.0889 -0.0177
16543TIP3    H171120   6.345   1.938   3.565  1.2650  0.6999 -0.0948
16543TIP3    H271121   6.339   2.001   3.427 -1.8507 -0.7236 -0.7105
16544TIP3   OH271122   1.428   4.620   2.078 -0.9248  0.0057  0.1069
16544TIP3    H171123   1.481   4.547   2.111 -0.8993  0.1869  0.4776
16544TIP3    H271124   1.380   4.584   2.004  1.0284  0.2870 -1.3674
16545TIP3   OH271125   2.409   5.349   0.195 -0.5348  0.2891  0.8325
16545TIP3    H171126   2.352   5.425   0.200  1.0289  1.6469 -0.5583
16545TIP3    H271127   2.494   5.384   0.169  0.5453 -1.8158  1.2684
16546TIP3   OH271128   4.355   0.046  16.577 -0.1233 -0.0411 -0.3659
16546TIP3    H171129   4.302   0.106  16.630 -0.1178 -0.0572 -0.3412
16546TIP3    H271130   4.437   0.093  16.562 -0.2212  0.0656 -0.5731
16547TIP3   OH271131   2.629   2.014   4.498 -0.0594  0.0071  0.1687
16547TIP3    H171132   2.581   1.967   4.567 -3.6811 -0.0134 -2.1329
16547TIP3    H271133   2.599   2.105   4.505  0.9286  0.3808 -0.2732
16548TIP3   OH271134   5.337   3.536  12.584 -0.1373 -0.3643 -0.7598
16548TIP3    H171135   5.384   3.578  12.512  0.9834 -0.9284 -0.3753
16548TIP3    H271136   5.330   3.444  12.558  2.5095 -1.1430  0.8890
16549TIP3   OH271137   5.363   2.425  11.242 -0.4504  0.0596  0.4093
16549TIP3    H171138   5.365   2.336  11.207  1.1157 -1.2782  3.4977
16549TIP3    H271139   5.272   2.453  11.231 -0.2340 -0.3848 -3.8851
16550TIP3   OH271140   3.819   1.743  12.516  0.2852 -0.0021 -0.0502
16550TIP3    H171141   3.830   1.721  12.608 -0.1758 -2.0488 -0.4305
16550TIP3    H271142   3.867   1.825  12.505  1.1473 -0.2060  1.7973
16551TIP3   OH271143   6.009   1.292   2.316 -0.0197  0.2263 -0.1454
16551TIP3    H171144   5.987   1.332   2.401  0.0551  0.1200 -0.0752
16551TIP3    H271145   6.074   1.351   2.278 -2.0836  1.8132 -1.3919
16552TIP3   OH271146   0.247   2.498   3.778  0.0470  0.3405  0.3317
16552TIP3    H171147   0.333   2.495   3.735  0.1462 -1.1889  0.5860
16552TIP3    H271148   0.258   2.445   3.857 -0.8461  1.0237  0.9371
16553TIP3   OH271149   0.345   4.646  12.425  0.0853 -0.0649  0.3994
16553TIP3    H171150   0.291   4.584  12.376  0.1184  0.4116 -0.2547
16553TIP3    H271151   0.386   4.700  12.358  0.0702  0.6495  0.9567
16554TIP3   OH271152   4.667   4.699  14.871 -0.0052  0.2414  0.0892
16554TIP3    H171153   4.657   4.709  14.776  0.0334 -2.2009 -0.2341
16554TIP3    H271154   4.579   4.680  14.903  0.1775 -0.1941  0.3441
16555TIP3   OH271155   0.842   5.521  14.716 -0.3281 -0.7673 -0.5649
16555TIP3    H171156   0.821   5.454  14.782 -3.2756  2.0006  1.6554
16555TIP3    H271157   0.767   5.521  14.657  1.1380 -1.4763 -2.5514
16556TIP3   OH271158   2.759   6.755  12.190  0.0762  0.1787 -0.5706
16556TIP3    H171159   2.794   6.786  12.273 -0.4843 -1.4044  0.3013
16556TIP3    H271160   2.805   6.806  12.123  3.3615 -1.0611  0.5316
16557TIP3   OH271161   6.309   5.437  14.666 -0.0830 -0.0113  0.2441
16557TIP3    H171162   6.312   5.436  14.762 -2.4124  2.8758  0.4897
16557TIP3    H271163   6.256   5.360  14.643  0.3148 -0.6139  1.2710
16558TIP3   OH271164   3.574   5.073  12.252 -0.1745  0.1732  0.4723
16558TIP3    H171165   3.502   5.062  12.314 -0.4661 -1.2707 -0.0746
16558TIP3    H271166   3.650   5.036  12.296 -0.2032 -0.1101  0.2858
16559TIP3   OH271167   0.734   4.373   1.801 -0.2596 -0.2560  0.4974
16559TIP3    H171168   0.701   4.286   1.782  1.2205 -0.2913 -2.4991
16559TIP3    H271169   0.826   4.359   1.824  0.1711  0.5247 -0.6623
16560TIP3   OH271170   0.889   3.091   3.128 -0.0474  0.7298  0.6254
16560TIP3    H171171   0.968   3.119   3.081 -0.9300  0.1445 -1.3120
16560TIP3    H271172   0.843   3.173   3.147 -0.3829  0.9331 -0.9043
16561TIP3   OH271173   3.296   2.640  11.916  0.1238 -0.1454  0.1347
16561TIP3    H171174   3.289   2.718  11.972  2.6169  0.0722  0.2596
16561TIP3    H271175   3.237   2.658  11.843  0.2986  1.7050  0.3913
16562TIP3   OH271176   6.825   5.015   1.837  0.3035 -0.8560  0.3837
16562TIP3    H171177   6.901   4.958   1.825  1.0153  0.4474 -2.1354
16562TIP3    H271178   6.752   4.967   1.799  0.1793 -1.4734  1.3902
16563TIP3   OH271179   0.918   6.311   6.073  0.7712  0.1551  0.0768
16563TIP3    H171180   0.893   6.240   6.014 -1.7916  1.1886 -0.2183
16563TIP3    H271181   0.909   6.274   6.161 -1.0317  0.1586 -0.0568
16564TIP3   OH271182   5.341   6.173   1.210  0.3476 -0.1519  0.2586
16564TIP3    H171183   5.272   6.136   1.265  1.4552  0.5622  2.2575
16564TIP3    H271184   5.298   6.243   1.161 -0.9296 -1.5737 -0.7129
16565TIP3   OH271185   6.757   6.696   4.454 -0.4340 -0.0725  0.0542
16565TIP3    H171186   6.663   6.692   4.436 -0.3801 -4.0636 -0.3728
16565TIP3    H271187   6.798   6.704   4.367 -0.3780 -0.1829  0.0699
16566TIP3   OH271188   1.504   4.134   1.533  0.0631  0.1466  0.7723
16566TIP3    H171189   1.550   4.127   1.617  2.8508  1.6399 -0.4782
16566TIP3    H271190   1.518   4.048   1.492  1.8458  0.5706  0.4206
16567TIP3   OH271191   3.494   5.366   5.276  0.2055  0.7564 -0.1608
16567TIP3    H171192   3.504   5.462   5.271  0.3405  0.8002  0.8598
16567TIP3    H271193   3.500   5.346   5.369 -2.7072  0.0437 -0.0380
16568TIP3   OH271194   1.239   1.298   0.326 -0.0061  0.4625 -0.0734
16568TIP3    H171195   1.184   1.225   0.296  0.4758  0.0686 -0.0172
16568TIP3    H271196   1.195   1.330   0.404  0.7391 -0.9568  0.9692
16569TIP3   OH271197   4.671   2.093  12.984  0.2754  0.7202 -0.2055
16569TIP3    H171198   4.698   2.001  12.989  0.3293  0.7452  0.0079
16569TIP3    H271199   4.609   2.096  12.911  0.5111  0.5762 -0.4127
16570TIP3   OH271200   0.202   4.261   6.112  0.1691  0.0787  0.5035
16570TIP3    H171201   0.280   4.278   6.059  0.3882 -0.1209  0.7574
16570TIP3    H271202   0.219   4.306   6.195 -1.1718  2.3643 -0.3832
16571TIP3   OH271203   3.032   4.756   1.513  0.3516 -0.3806  0.0209
16571TIP3    H171204   3.016   4.714   1.597  1.2327 -0.7055  0.0376
16571TIP3    H271205   3.098   4.701   1.470  0.1378 -0.0529 -0.7557
16572TIP3   OH271206   0.527   3.517  16.152  0.2392  0.2218 -0.0653
16572TIP3    H171207   0.504   3.586  16.215 -0.4043  0.0118 -0.0590
16572TIP3    H271208   0.580   3.561  16.086  0.2754  0.6101  0.2209
16573TIP3   OH271209   6.530   5.758   4.957 -0.0126  0.4935  0.1394
16573TIP3    H171210   6.445   5.789   4.989 -0.9962  0.8910 -2.5700
16573TIP3    H271211   6.527   5.663   4.969 -0.4530  0.5852  0.8399
16574TIP3   OH271212   5.275   2.574   2.719  0.0256  0.1538 -0.4324
16574TIP3    H171213   5.232   2.648   2.761 -0.0558 -0.0615 -0.1296
16574TIP3    H271214   5.213   2.545   2.652 -0.9696 -1.0571  0.9527
16575TIP3   OH271215   4.443   0.836  10.168  0.0230  0.4224  0.1798
16575TIP3    H171216   4.355   0.851  10.203  0.0463  1.2360 -0.0781
16575TIP3    H271217   4.475   0.924  10.146 -0.5624 -0.0754 -3.2731
16576TIP3   OH271218   5.344   6.190   5.215 -0.7584 -0.4171 -0.2483
16576TIP3    H171219   5.406   6.231   5.154 -0.7571  0.4129  0.2820
16576TIP3    H271220   5.390   6.113   5.248 -0.9012 -1.0769 -1.5606
16577TIP3   OH271221   5.712   5.704   4.140 -0.3195 -0.0474 -0.1473
16577TIP3    H171222   5.665   5.679   4.219  2.1550 -0.9361  1.1605
16577TIP3    H271223   5.696   5.798   4.130 -0.4714  0.1347  1.5774
16578TIP3   OH271224   4.747   4.679  13.167  0.6777 -0.1868  0.3675
16578TIP3    H171225   4.841   4.697  13.172  0.3052  2.1542  0.2404
16578TIP3    H271226   4.711   4.753  13.119 -1.1683 -1.4152 -0.2676
16579TIP3   OH271227   0.276   3.698  13.314 -0.0401  0.2916 -0.0638
16579TIP3    H171228   0.274   3.755  13.391  1.1431  1.2532 -0.7203
16579TIP3    H271229   0.367   3.698  13.285 -0.3494 -0.5334 -1.1228
16580TIP3   OH271230   0.464   3.075  13.007 -0.2967 -0.1522 -0.4230
16580TIP3    H171231   0.425   3.149  12.961  0.6750  0.8280  0.2835
16580TIP3    H271232   0.393   3.039  13.061 -0.0871  2.2214  1.6288
16581TIP3   OH271233   5.232   2.503   0.254 -0.3579  0.2037  0.1019
16581TIP3    H171234   5.187   2.427   0.219 -0.4052 -0.6827  1.9343
16581TIP3    H271235   5.164   2.553   0.298 -0.0124  0.2721  0.5671
16582TIP3   OH271236   0.183   1.386  15.257  0.0046  0.2441 -0.1729
16582TIP3    H171237   0.261   1.441  15.252 -0.8672  1.4510 -0.9171
16582TIP3    H271238   0.217   1.299  15.278  1.3519  1.2491  2.2723
16583TIP3   OH271239   4.517   3.114  13.896  0.0238  0.2079  0.2865
16583TIP3    H171240   4.459   3.040  13.916 -0.8221  0.7379 -0.1647
16583TIP3    H271241   4.562   3.087  13.815 -1.3752  0.7804 -0.7142
16584TIP3   OH271242   5.148   3.510   5.560  0.6170  0.3164 -0.5591
16584TIP3    H171243   5.056   3.514   5.587  0.6451  1.9090 -0.5869
16584TIP3    H271244   5.159   3.422   5.524 -0.4343 -0.4917  1.0084
16585TIP3   OH271245   0.039   4.192  15.892 -0.0924 -0.3919 -0.7939
16585TIP3    H171246   0.120   4.242  15.885 -0.1166 -0.0272  1.0096
16585TIP3    H271247  -0.030   4.257  15.877 -0.0869 -0.5612 -1.6197
16586TIP3   OH271248   3.606   5.624   1.391 -0.1263 -0.1384  1.0417
16586TIP3    H171249   3.666   5.677   1.443 -0.3067  1.8131 -0.6150
16586TIP3    H271250   3.657   5.598   1.315 -1.1765  1.0961 -0.1283
16587TIP3   OH271251   2.003   5.951  10.896 -0.6956  0.2419  0.1887
16587TIP3    H171252   1.910   5.930  10.896 -0.5103 -0.7545  1.4898
16587TIP3    H271253   2.013   6.018  10.963 -0.2938 -0.7577  1.1633
16588TIP3   OH271254   0.580   5.856  13.029  0.4884 -0.2715  0.1198
16588TIP3    H171255   0.671   5.885  13.026  0.2943  0.2534 -1.4744
16588TIP3    H271256   0.567   5.828  13.120  1.8556  0.8503  0.7004
16589TIP3   OH271257   1.915   2.122   0.486 -0.1491  0.4280 -0.2382
16589TIP3    H171258   1.823   2.134   0.509 -0.2385  0.0141 -0.3696
16589TIP3    H271259   1.962   2.180   0.545 -0.5242  0.9885 -0.4805
16590TIP3   OH271260   6.598   2.724   3.118  0.1293 -0.3178 -0.4042
16590TIP3    H171261   6.600   2.628   3.113  0.1878 -0.5958  2.7967
16590TIP3    H271262   6.689   2.748   3.138  0.3753  0.5870 -2.3773
16591TIP3   OH271263   4.978   1.740   4.190 -0.3265  0.1838 -0.5926
16591TIP3    H171264   4.892   1.722   4.228  0.6180 -2.5995  0.4309
16591TIP3    H271265   4.959   1.768   4.100 -2.2775 -0.4140 -0.4126
16592TIP3   OH271266   1.397   1.804   1.845  0.2294 -0.1465  0.1757
16592TIP3    H171267   1.362   1.717   1.865  0.1365 -0.0740  0.3297
16592TIP3    H271268   1.488   1.787   1.819 -0.0102 -0.3669 -0.5512
16593TIP3   OH271269   4.414   0.926  13.282 -0.1739  0.6016  0.5677
16593TIP3    H171270   4.456   1.004  13.245 -0.7956  1.0233  0.7418
16593TIP3    H271271   4.336   0.912  13.228 -0.9364  1.0559  1.5163
16594TIP3   OH271272   6.745   4.523  13.628  1.1107  0.3436  0.0300
16594TIP3    H171273   6.803   4.463  13.582 -0.2884  1.3134 -3.3029
16594TIP3    H271274   6.788   4.608  13.623  0.5077  0.6344 -0.3121
16595TIP3   OH271275   3.886   6.377   4.659 -0.5609  1.1677  0.8488
16595TIP3    H171276   3.797   6.412   4.656 -0.3864  1.5441 -0.9779
16595TIP3    H271277   3.920   6.388   4.570  1.7200  2.0933  1.7323
16596TIP3   OH271278   4.771   0.464   6.557  0.4015  0.2964  0.2590
16596TIP3    H171279   4.677   0.470   6.570  0.6409  1.9652  1.6216
16596TIP3    H271280   4.782   0.454   6.462 -1.1630 -1.8273  0.2343
16597TIP3   OH271281   3.224   3.880  10.609 -0.0373 -0.4684 -0.1324
16597TIP3    H171282   3.277   3.958  10.593  0.3871 -0.6635  0.2872
16597TIP3    H271283   3.288   3.810  10.621 -0.4050 -0.8109 -0.1415
16598TIP3   OH271284   3.096   5.789  11.605  0.0259  0.7383  0.1594
16598TIP3    H171285   3.063   5.875  11.578 -1.1818 -0.1280 -1.3090
16598TIP3    H271286   3.126   5.801  11.695 -0.7840  2.5177  0.2241
16599TIP3   OH271287   0.986   2.254   0.628  0.3650  0.0090  0.0626
16599TIP3    H171288   1.033   2.274   0.709  0.9979  0.1379 -0.3223
16599TIP3    H271289   1.038   2.297   0.559 -1.0679  1.3233 -0.2506
16600TIP3   OH271290   6.170   5.114  12.003  0.5209 -0.1467  0.3309
16600TIP3    H171291   6.095   5.166  12.029  1.4223  0.8908  0.9567
16600TIP3    H271292   6.243   5.176  12.001  1.4647 -1.2184  0.2671
16601TIP3   OH271293   1.839   6.679  11.063 -0.1973  0.3612  0.0942
16601TIP3    H171294   1.914   6.723  11.102  0.0228 -0.8633  1.1197
16601TIP3    H271295   1.763   6.722  11.102 -0.0298  1.1306 -0.4108
16602TIP3   OH271296   6.219   2.636   5.277 -0.4227 -0.3266 -0.2037
16602TIP3    H171297   6.250   2.556   5.317 -2.6473 -0.3289  1.6797
16602TIP3    H271298   6.130   2.617   5.249 -0.0756  0.7009 -2.2923
16603TIP3   OH271299   0.710   2.335  12.966 -0.0850 -0.3418 -0.3009
16603TIP3    H171300   0.779   2.270  12.970  1.3081  1.0843 -0.2283
16603TIP3    H271301   0.702   2.356  12.873  0.6326  0.5456 -0.1761
16604TIP3   OH271302   2.138   5.015  10.305  0.4326 -0.1843  0.1222
16604TIP3    H171303   2.131   5.007  10.400  0.2283 -0.4023  0.0904
16604TIP3    H271304   2.074   4.952  10.271 -1.2333  1.5727 -0.1478
16605TIP3   OH271305   4.303   0.554  15.762  0.2489  0.7685  0.2758
16605TIP3    H171306   4.221   0.557  15.811  0.5633 -0.2848  0.8969
16605TIP3    H271307   4.340   0.642  15.771  0.5121  0.4787  2.3297
16606TIP3   OH271308   1.553   5.723  13.412  0.0788  0.3394 -0.2291
16606TIP3    H171309   1.513   5.649  13.366  1.7066 -0.0156 -1.1247
16606TIP3    H271310   1.565   5.692  13.502 -0.8284  0.1547 -0.1610
16607TIP3   OH271311   1.279   4.685  16.323  0.4715  0.3111 -0.2059
16607TIP3    H171312   1.219   4.694  16.248 -1.0931  1.5481  1.1215
16607TIP3    H271313   1.225   4.704  16.399  2.6360  1.9658  1.0423
16608TIP3   OH271314   3.825   0.189  13.236  0.1625 -1.0497  0.3159
16608TIP3    H171315   3.881   0.213  13.162  2.3084 -0.5967  1.9857
16608TIP3    H271316   3.851   0.099  13.257  1.0265 -0.5175  1.6938
16609TIP3   OH271317   1.416   3.875  10.844  0.0078  0.8221  0.0726
16609TIP3    H171318   1.372   3.812  10.788  0.6779  1.2953 -1.0298
16609TIP3    H271319   1.372   3.958  10.827 -0.7878  0.7022  1.4197
16610TIP3   OH271320   4.158   2.337   6.077 -0.2240 -0.0026  0.4226
16610TIP3    H171321   4.066   2.325   6.101  0.3737 -0.3629  2.8165
16610TIP3    H271322   4.193   2.248   6.072  0.4934  0.1588  1.9175
16611TIP3   OH271323   5.827   1.033  14.661 -0.0315 -0.3709 -0.2998
16611TIP3    H171324   5.824   1.127  14.640 -1.2090 -0.3311  0.0010
16611TIP3    H271325   5.781   0.991  14.589  0.9440 -0.7868 -0.7016
16612TIP3   OH271326   2.055   3.385  16.598 -0.6988 -0.0958  0.2991
16612TIP3    H171327   1.995   3.455  16.571 -1.0658 -0.5520 -0.0824
16612TIP3    H271328   2.139   3.408  16.559 -1.1456 -0.5821 -0.9860
16613TIP3   OH271329   3.792   6.487   2.704  0.0831 -0.1952 -0.2343
16613TIP3    H171330   3.742   6.450   2.631 -2.0816 -0.1315  1.1419
16613TIP3    H271331   3.866   6.426   2.715  0.0093 -0.6518 -1.9256
16614TIP3   OH271332   5.537   3.867   6.096 -0.0919  0.0906  0.4898
16614TIP3    H171333   5.462   3.869   6.037 -0.3257  2.5284  0.7630
16614TIP3    H271334   5.500   3.883   6.183  0.6564  0.6229  0.7184
16615TIP3   OH271335   3.226   1.245   4.298 -0.0552 -0.4396  0.6167
16615TIP3    H171336   3.306   1.295   4.281  0.0605 -1.0614 -0.8199
16615TIP3    H271337   3.257   1.161   4.333 -0.0801 -0.6835  0.0520
16616TIP3   OH271338   1.937   5.032  12.569  0.4596 -0.2180  0.1667
16616TIP3    H171339   1.929   4.938  12.585  3.7422 -0.4776  1.0684
16616TIP3    H271340   1.900   5.044  12.482 -1.5007 -2.0273  0.6703
16617TIP3   OH271341   4.525   1.656  15.680  0.2615 -0.5042  0.2338
16617TIP3    H171342   4.560   1.584  15.628 -0.4708 -0.9592  0.3507
16617TIP3    H271343   4.537   1.734  15.626 -0.1355 -0.9141 -0.4561
16618TIP3   OH271344   4.335   3.983   3.706  0.2947 -0.0915 -0.1368
16618TIP3    H171345   4.259   3.963   3.761 -0.6352  0.6003 -1.1324
16618TIP3    H271346   4.342   3.908   3.647 -0.8568  0.7062 -1.3465
16619TIP3   OH271347   6.269   0.196  10.758 -0.1822 -0.3693  0.1795
16619TIP3    H171348   6.323   0.260  10.804  0.2302 -0.2966 -0.4097
16619TIP3    H271349   6.296   0.111  10.794  1.5424 -0.4975 -1.2943
16620TIP3   OH271350   0.444   6.090  13.206 -0.1116  0.3312 -0.3011
16620TIP3    H171351   0.515   6.035  13.175  0.0485  0.2766  0.1520
16620TIP3    H271352   0.423   6.055  13.293 -1.6472 -0.5696 -0.9778
16621TIP3   OH271353   4.667   0.830  16.400 -0.4214 -0.6491  0.1218
16621TIP3    H171354   4.635   0.879  16.475 -1.0936 -0.8217 -0.0496
16621TIP3    H271355   4.720   0.759  16.437 -0.2443 -0.3694  0.4030
16622TIP3   OH271356   1.102   0.451   4.428  0.2918  0.5553 -0.1413
16622TIP3    H171357   1.136   0.525   4.477  2.3058 -0.9575  0.9037
16622TIP3    H271358   1.089   0.383   4.494  0.6591 -0.7252 -1.3395
16623TIP3   OH271359   2.804   4.295  16.614 -0.6089  0.3754 -0.2126
16623TIP3    H171360   2.811   4.381  16.654 -0.7982  0.9988 -1.4452
16623TIP3    H271361   2.794   4.234  16.687  1.6880  1.1281  0.8004
16624TIP3   OH271362   1.399   4.490   1.807  0.6167  0.1072  0.5636
16624TIP3    H171363   1.372   4.402   1.834  0.6418 -0.2943 -0.6607
16624TIP3    H271364   1.488   4.478   1.773  0.3510  0.4536 -0.2860
16625TIP3   OH271365   4.366   2.788  16.610  0.3257  0.5866 -0.5230
16625TIP3    H171366   4.379   2.830  16.525 -1.1885  0.4796 -0.8229
16625TIP3    H271367   4.405   2.849  16.673  1.3761  0.7092 -1.2604
16626TIP3   OH271368   0.278   3.232   2.636 -0.3182  0.5080 -0.3978
16626TIP3    H171369   0.318   3.168   2.694  0.6038  0.4522 -1.0718
16626TIP3    H271370   0.197   3.190   2.606  0.6286 -0.6681 -1.3940
16627TIP3   OH271371   1.718   2.863   2.556 -0.2283 -0.1160  0.0061
16627TIP3    H171372   1.806   2.858   2.518 -0.6991 -2.9406 -0.8841
16627TIP3    H271373   1.666   2.908   2.490 -0.1192 -1.2752 -0.8985
16628TIP3   OH271374   3.468   0.044  16.472  0.2474 -0.5311 -0.1270
16628TIP3    H171375   3.454  -0.038  16.518 -1.1239 -1.4087 -1.9623
16628TIP3    H271376   3.400   0.103  16.505  0.4747 -0.5239  0.3251
16629TIP3   OH271377   0.503   4.437   3.603 -0.5203 -0.1142 -0.2569
16629TIP3    H171378   0.465   4.384   3.534  1.5583  0.1394 -1.7000
16629TIP3    H271379   0.496   4.527   3.572 -0.5109  0.1033  0.3512
16630TIP3   OH271380   6.451   2.950   3.161  0.3103 -0.3280 -0.4459
16630TIP3    H171381   6.501   2.870   3.144  0.3133 -0.6953  1.1856
16630TIP3    H271382   6.455   2.961   3.256 -1.8856  0.1756 -0.3783
16631TIP3   OH271383   2.369   4.182   1.351 -0.2949 -0.2760 -0.7424
16631TIP3    H171384   2.455   4.143   1.336  0.7400  1.0955  1.2021
16631TIP3    H271385   2.318   4.113   1.394  0.0701 -0.8735 -1.2645
16632TIP3   OH271386   6.769   2.175   1.604 -0.0541  0.5427  0.1567
16632TIP3    H171387   6.818   2.165   1.522  0.6074 -0.3084  0.6375
16632TIP3    H271388   6.711   2.099   1.607  1.0930 -0.3501  1.2244
16633TIP3   OH271389   0.047   3.633  16.201  0.0575  0.3392 -0.0312
16633TIP3    H171390   0.006   3.648  16.116  0.2164 -0.1235 -0.1917
16633TIP3    H271391   0.128   3.587  16.181  0.0944  0.2300  0.3687
16634TIP3   OH271392   1.430   1.314   5.879  0.2663  0.1603 -0.2130
16634TIP3    H171393   1.373   1.296   5.953 -0.1845  0.5868 -0.4531
16634TIP3    H271394   1.484   1.388   5.908 -0.8271  1.2127 -0.7816
16635TIP3   OH271395   5.778   1.125   3.161  0.0764  0.1564 -0.1749
16635TIP3    H171396   5.871   1.101   3.159 -0.1388 -0.7768  0.5900
16635TIP3    H271397   5.762   1.162   3.074  0.8328 -0.9680 -0.8190
16636TIP3   OH271398   3.903   4.171  12.888  0.5872 -0.2409  0.4650
16636TIP3    H171399   3.937   4.237  12.827 -0.9059  0.2642  0.1363
16636TIP3    H271400   3.967   4.100  12.885  1.6728  0.7355  0.0030
16637TIP3   OH271401   3.607   0.291   3.138  0.0813  0.1913  0.6879
16637TIP3    H171402   3.666   0.257   3.070  0.4130 -0.2451  1.1882
16637TIP3    H271403   3.609   0.386   3.127  0.3389  0.1366  0.2584
16638TIP3   OH271404   4.042   1.907   4.713  0.0494  0.4196  0.2399
16638TIP3    H171405   4.002   1.840   4.769  0.5737 -1.1273 -1.1626
16638TIP3    H271406   4.126   1.925   4.755 -0.3195  0.5899  0.9156
16639TIP3   OH271407   0.983   2.831   4.192  0.1757  0.0581  0.1144
16639TIP3    H171408   1.025   2.746   4.197  1.6011  0.7214 -0.1477
16639TIP3    H271409   0.895   2.816   4.226  0.7518 -1.2853  1.1035
16640TIP3   OH271410   5.823   6.826  14.955 -0.2351  0.4024  0.4691
16640TIP3    H171411   5.882   6.876  14.899 -1.0821 -0.3053 -1.1274
16640TIP3    H271412   5.772   6.772  14.894 -0.9662 -0.6607  1.9577
16641TIP3   OH271413   4.807   6.195   5.156 -0.5476  0.3116 -0.3489
16641TIP3    H171414   4.850   6.167   5.237  0.7311 -0.4082 -1.2297
16641TIP3    H271415   4.860   6.156   5.087 -2.5697 -0.4982 -1.5332
16642TIP3   OH271416   1.006   5.464  12.716  0.2116  0.2770 -0.0228
16642TIP3    H171417   1.092   5.428  12.695  0.8914  2.0993 -0.4834
16642TIP3    H271418   1.003   5.548  12.671 -0.9312  1.2669  1.7954
16643TIP3   OH271419   4.865   6.780  13.560  0.3692 -0.0172 -0.3585
16643TIP3    H171420   4.806   6.823  13.499  0.4381  2.2627  1.0984
16643TIP3    H271421   4.816   6.774  13.642  1.2870 -0.3874  0.1799
16644TIP3   OH271422   4.008   3.472   6.132 -0.5506  0.1200 -0.1055
16644TIP3    H171423   3.991   3.403   6.068 -0.7860 -1.1215  1.2618
16644TIP3    H271424   4.048   3.427   6.207 -0.4243  1.5083  0.7021
16645TIP3   OH271425   5.303   6.238   2.777 -0.3543 -0.6421  0.2461
16645TIP3    H171426   5.372   6.294   2.741  1.0521 -1.9539  0.7487
16645TIP3    H271427   5.294   6.167   2.712 -0.4978 -1.0252  0.6812
16646TIP3   OH271428   1.236   5.517   1.764  0.4235  0.0429  0.0102
16646TIP3    H171429   1.291   5.594   1.777 -1.6419  1.5348  0.2177
16646TIP3    H271430   1.201   5.526   1.676 -1.9766  0.8277  0.9765
16647TIP3   OH271431   4.670   5.836   1.368  0.3253  0.1627 -0.0586
16647TIP3    H171432   4.713   5.763   1.324  0.2151  0.8542 -1.3721
16647TIP3    H271433   4.716   5.914   1.337  1.9461  0.5943  3.0510
16648TIP3   OH271434   0.405   0.358   5.896 -0.6694  0.2488  0.3715
16648TIP3    H171435   0.403   0.262   5.902  1.7505  0.1796  0.9981
16648TIP3    H271436   0.314   0.383   5.879 -1.1922 -2.2103 -0.7999
16649TIP3   OH271437   0.416   1.890  13.469 -0.1276  0.1501 -0.6194
16649TIP3    H171438   0.497   1.915  13.514  0.7801 -0.6150 -1.7484
16649TIP3    H271439   0.374   1.972  13.447 -0.3211  0.5547  1.0978
16650TIP3   OH271440   4.563   5.399   1.372  0.8683  0.6707  0.4119
16650TIP3    H171441   4.639   5.363   1.326  0.4072 -2.2660  1.7400
16650TIP3    H271442   4.493   5.395   1.307  0.9202 -0.5523  0.4056
16651TIP3   OH271443   2.663   4.328  13.677 -0.1438 -0.2334 -0.2743
16651TIP3    H171444   2.605   4.403  13.690  0.4535  0.2223 -0.1635
16651TIP3    H271445   2.611   4.252  13.702 -1.5184 -0.1065 -2.5002
16652TIP3   OH271446   4.245   6.281  16.152  0.1330 -0.1064  0.2680
16652TIP3    H171447   4.308   6.247  16.216 -1.1091 -1.5558  0.7836
16652TIP3    H271448   4.225   6.370  16.183  1.0334 -0.0567  0.7466
16653TIP3   OH271449   6.132   0.606  12.672 -0.1456 -0.1146  0.0866
16653TIP3    H171450   6.169   0.536  12.619  0.2944  0.1201  0.0765
16653TIP3    H271451   6.197   0.676  12.668  0.8954 -0.8257  2.5904
16654TIP3   OH271452   5.975   2.522  15.143  0.2960  0.2682 -0.0037
16654TIP3    H171453   5.981   2.589  15.075  0.4197 -0.8637 -1.1395
16654TIP3    H271454   5.904   2.465  15.113  3.0849 -2.7210 -1.5194
16655TIP3   OH271455   4.041   2.616  14.432 -0.1252 -0.0010  0.5617
16655TIP3    H171456   3.960   2.577  14.400 -0.1602 -0.2917  0.9941
16655TIP3    H271457   4.056   2.574  14.517  0.4960  0.0226  0.4684
16656TIP3   OH271458   0.824   1.181  13.264 -0.0517 -0.1180  0.1273
16656TIP3    H171459   0.866   1.104  13.302 -2.7382 -0.4945  2.6933
16656TIP3    H271460   0.797   1.234  13.339  0.0327  2.4457 -1.5049
16657TIP3   OH271461   0.405   1.360   6.214  0.7190 -0.6434 -0.3030
16657TIP3    H171462   0.349   1.299   6.262  2.4783 -2.1562 -0.0612
16657TIP3    H271463   0.384   1.344   6.122 -0.5889  0.1982 -0.1768
16658TIP3   OH271464   0.242   0.414  13.007  0.5493 -0.0208 -0.1921
16658TIP3    H171465   0.302   0.367  13.065 -2.2006 -0.8977  2.2102
16658TIP3    H271466   0.230   0.499  13.048 -0.1228 -0.0065 -0.4015
16659TIP3   OH271467   3.365   5.682  11.281  0.0421  0.5612 -0.3699
16659TIP3    H171468   3.385   5.775  11.272 -0.9900  0.7379 -1.0277
16659TIP3    H271469   3.360   5.668  11.375 -1.1319  1.5022 -0.2586
16660TIP3   OH271470   5.301   0.338   0.646 -0.2568 -0.2663  0.0984
16660TIP3    H171471   5.295   0.251   0.687  2.1993 -1.6208 -2.0592
16660TIP3    H271472   5.211   0.359   0.621 -0.8726 -2.3938  0.3103
16661TIP3   OH271473   6.173   1.137   0.430 -0.2616 -0.2962 -0.5678
16661TIP3    H171474   6.100   1.152   0.369  0.1276  0.2607 -0.8999
16661TIP3    H271475   6.133   1.089   0.502 -0.3086 -3.0569 -2.2697
16662TIP3   OH271476   3.295   0.642  13.743 -0.5074 -0.4428  0.3449
16662TIP3    H171477   3.205   0.674  13.734 -0.5825 -0.7154  0.0955
16662TIP3    H271478   3.341   0.681  13.669 -0.6464 -1.0672 -0.0740
16663TIP3   OH271479   3.752   6.495  14.730 -0.1653  0.1773 -0.6474
16663TIP3    H171480   3.705   6.556  14.787  0.5244  0.4758 -0.3887
16663TIP3    H271481   3.785   6.549  14.659 -1.3388 -0.2532 -1.5623
16664TIP3   OH271482   5.231   6.541   2.328 -0.8137  0.0907  0.4531
16664TIP3    H171483   5.179   6.468   2.362 -0.3550  0.1895  1.4016
16664TIP3    H271484   5.274   6.506   2.250 -1.0398 -0.4780  0.5802
16665TIP3   OH271485   2.320   4.899   5.084 -0.8333 -0.1918 -1.2606
16665TIP3    H171486   2.279   4.923   5.167  1.3729  0.0267 -0.1841
16665TIP3    H271487   2.367   4.977   5.056  1.4538 -1.2992 -0.7793
16666TIP3   OH271488   3.240   6.297   3.803  0.4987 -0.3556 -0.2879
16666TIP3    H171489   3.170   6.273   3.864 -0.3353  0.9729 -0.7029
16666TIP3    H271490   3.313   6.322   3.859 -0.3700  1.1691  0.1967
16667TIP3   OH271491   3.843   2.668  15.016  0.7108 -0.2702 -0.1205
16667TIP3    H171492   3.832   2.741  15.077  1.5971 -1.2345  1.2555
16667TIP3    H271493   3.868   2.709  14.933  1.4420  0.9767  0.6906
16668TIP3   OH271494   3.841   6.433  15.311 -0.2097  0.0139  0.6810
16668TIP3    H171495   3.935   6.448  15.306 -0.0763 -1.0402 -0.2802
16668TIP3    H271496   3.831   6.339  15.299 -1.4451  0.2420 -0.2982
16669TIP3   OH271497   2.331   0.938   2.814 -0.4478 -0.2374 -0.1709
16669TIP3    H171498   2.247   0.928   2.859  0.1234  0.9049  1.2115
16669TIP3    H271499   2.361   0.848   2.799 -2.4704 -0.7224 -1.8592
16670TIP3   OH271500   3.701   0.693   1.103  0.6334 -0.2658  0.1092
16670TIP3    H171501   3.656   0.610   1.087  0.1013  0.2634 -1.3155
16670TIP3    H271502   3.695   0.706   1.198  1.0611 -2.0231  0.4015
16671TIP3   OH271503   2.536   0.379  16.118 -0.4662 -0.0913 -0.7108
16671TIP3    H171504   2.601   0.403  16.052  2.5216  0.0624  2.0495
16671TIP3    H271505   2.535   0.452  16.179  0.2514 -1.9940  1.7461
16672TIP3   OH271506   3.347   3.812   3.642  0.0182 -0.5019  0.1793
16672TIP3    H171507   3.394   3.743   3.594 -1.2027 -2.6477  1.8447
16672TIP3    H271508   3.281   3.844   3.580  0.8453 -0.5532 -0.7561
16673TIP3   OH271509   4.632   1.078   4.545 -0.2036  0.3023 -1.1436
16673TIP3    H171510   4.550   1.123   4.526 -1.2795 -1.4387 -0.8056
16673TIP3    H271511   4.696   1.120   4.487 -1.3201  1.6550 -1.4455
16674TIP3   OH271512   2.808   3.513  13.719 -0.5431  0.1665 -0.6594
16674TIP3    H171513   2.773   3.426  13.699 -0.7412  0.2805 -0.8087
16674TIP3    H271514   2.759   3.540  13.797 -1.4533  0.7116 -1.3956
16675TIP3   OH271515   2.988   3.889   4.613  0.1395 -0.3927  0.4400
16675TIP3    H171516   3.076   3.918   4.638 -0.1146  2.3369 -1.3565
16675TIP3    H271517   2.978   3.803   4.654  3.6697 -0.8587  0.6226
16676TIP3   OH271518   1.821   0.211   2.072  0.1110 -0.4462 -0.4350
16676TIP3    H171519   1.901   0.158   2.076  1.3796  1.3684 -0.4712
16676TIP3    H271520   1.853   0.301   2.063 -1.9504  0.1153 -3.3569
16677TIP3   OH271521   6.374   0.167   6.885  0.5901 -0.1783 -0.2661
16677TIP3    H171522   6.357   0.084   6.930 -1.2682  0.4426  0.2585
16677TIP3    H271523   6.465   0.187   6.905  0.9328 -1.8542 -0.0245
16678TIP3   OH271524   0.358   6.841  15.042  0.4154  0.5370  0.1933
16678TIP3    H171525   0.423   6.879  15.101  0.6834  2.1367 -1.0452
16678TIP3    H271526   0.406   6.775  14.993  0.7734  0.7614  0.2344
16679TIP3   OH271527   2.873   3.285   3.436 -0.3819  0.8916  0.4321
16679TIP3    H171528   2.823   3.214   3.476 -0.1892  0.7828  0.4797
16679TIP3    H271529   2.894   3.344   3.508  2.3379 -0.6697  1.0474
16680TIP3   OH271530   4.612   2.936   0.995  0.5488  0.6085  0.5555
16680TIP3    H171531   4.668   2.943   0.918  0.8338 -2.4169  0.3397
16680TIP3    H271532   4.524   2.952   0.963  0.6024 -1.1046 -0.5895
16681TIP3   OH271533   5.968   6.017   0.770 -0.3036  0.2346  0.2307
16681TIP3    H171534   5.948   5.929   0.736 -1.6536  0.4642  0.3888
16681TIP3    H271535   5.971   6.072   0.691  1.2278 -0.0460  0.0591
16682TIP3   OH271536   2.517   6.135  11.235  0.2432 -0.0662  0.2356
16682TIP3    H171537   2.591   6.077  11.220 -0.1287 -0.1511 -1.5032
16682TIP3    H271538   2.543   6.218  11.196 -0.2539  0.1611  0.3783
16683TIP3   OH271539   1.644   0.205  15.696 -0.5608  0.3076  0.3182
16683TIP3    H171540   1.595   0.226  15.616 -2.0390 -1.8204  0.5586
16683TIP3    H271541   1.723   0.258  15.691 -1.6654  1.9192 -1.4334
16684TIP3   OH271542   5.487   6.462  16.906  0.1545 -0.0019  0.5389
16684TIP3    H171543   5.560   6.474  16.845 -0.2605  0.3311  0.1084
16684TIP3    H271544   5.449   6.378  16.883  1.5531 -1.0820  1.9830
16685TIP3   OH271545   0.904   2.654  14.642  0.5743 -1.1543 -0.1881
16685TIP3    H171546   0.842   2.691  14.705 -0.4201 -1.5426 -0.9166
16685TIP3    H271547   0.985   2.644  14.691  0.4198  0.4929  0.4582
16686TIP3   OH271548   6.346   2.649   3.271  0.7008  0.0748 -0.1532
16686TIP3    H171549   6.406   2.577   3.289  2.4214  1.4211 -0.2896
16686TIP3    H271550   6.372   2.718   3.332 -0.1770  0.9980 -0.7956
16687TIP3   OH271551   6.350   6.545   0.081 -0.1883  0.3574 -0.5632
16687TIP3    H171552   6.445   6.539   0.074 -0.1114 -0.7725  0.9558
16687TIP3    H271553   6.333   6.559   0.174 -1.5227  0.2706 -0.7696
16688TIP3   OH271554   1.380   3.172   1.703 -0.6170 -0.4833 -0.1886
16688TIP3    H171555   1.382   3.268   1.706  0.0616 -0.2116 -3.8263
16688TIP3    H271556   1.424   3.144   1.783  0.0046  2.2793  0.5436
16689TIP3   OH271557   4.390   2.756  11.887  0.1196 -0.0662 -0.4889
16689TIP3    H171558   4.304   2.770  11.848  0.2855  0.3513 -0.6972
16689TIP3    H271559   4.427   2.843  11.897  1.4523 -0.3432 -2.4700
16690TIP3   OH271560   3.776   5.941  15.505  0.7038  0.1208 -0.1262
16690TIP3    H171561   3.861   5.962  15.542  2.6471 -2.3942 -2.6880
16690TIP3    H271562   3.718   5.932  15.580  3.6980 -2.0761  2.1584
16691TIP3   OH271563   2.018   4.882   2.083 -0.2249 -0.2590  0.1480
16691TIP3    H171564   1.950   4.815   2.073 -0.8219 -0.2635  3.2838
16691TIP3    H271565   1.998   4.947   2.016 -0.6492 -2.3415 -1.8562
16692TIP3   OH271566   4.873   5.685   2.375 -0.4991  0.2405 -0.4695
16692TIP3    H171567   4.784   5.676   2.409 -0.9713  2.0149 -1.0917
16692TIP3    H271568   4.922   5.727   2.446 -0.2982 -0.2593 -0.3145
16693TIP3   OH271569   0.947   0.351   3.233 -0.7640 -0.7193  0.2215
16693TIP3    H171570   0.921   0.264   3.203  1.7186 -2.2058  2.0062
16693TIP3    H271571   1.029   0.369   3.187 -1.0913  0.5659  0.1078
16694TIP3   OH271572   4.950   2.082  16.097 -0.7160 -0.1802 -0.7811
16694TIP3    H171573   5.009   2.006  16.105 -0.3893  0.2426  2.4763
16694TIP3    H271574   4.878   2.062  16.157  0.2890  2.7113  1.6631
16695TIP3   OH271575   1.740   3.694   3.664 -0.2292  0.0411 -0.1348
16695TIP3    H171576   1.696   3.732   3.588 -0.8238  0.9700  0.6537
16695TIP3    H271577   1.677   3.704   3.736  0.3436 -0.7604  0.4997
16696TIP3   OH271578   1.789   6.610  14.835  0.0880 -0.2296 -0.1484
16696TIP3    H171579   1.831   6.655  14.909 -1.0477 -0.2255  0.5165
16696TIP3    H271580   1.699   6.597  14.863 -0.1723 -0.9154 -1.2465
16697TIP3   OH271581   4.024   6.353   3.851  0.1285  0.0193  0.1703
16697TIP3    H171582   3.937   6.394   3.858 -0.7885 -1.9507  1.2055
16697TIP3    H271583   4.079   6.405   3.909 -0.7171  0.4669  0.5996
16698TIP3   OH271584   2.360   2.785  15.406 -0.2681 -0.1598 -0.6230
16698TIP3    H171585   2.419   2.776  15.332  1.1870  0.8321  0.3848
16698TIP3    H271586   2.374   2.706  15.458 -0.0625 -0.0699 -0.5434
16699TIP3   OH271587   0.720   6.072   1.243  0.3883 -0.0665  0.3002
16699TIP3    H171588   0.626   6.085   1.232 -0.4383 -2.6700  2.9323
16699TIP3    H271589   0.743   6.125   1.319  0.2762 -1.8480  1.6335
16700TIP3   OH271590   4.266   6.038   1.679 -0.4329 -0.1168  0.3110
16700TIP3    H171591   4.311   6.019   1.596  0.5321  2.7785  0.0622
16700TIP3    H271592   4.173   6.038   1.656 -0.1805  0.6039 -0.8093
16701TIP3   OH271593   3.168   2.487  15.220 -0.3506  0.0379  0.3440
16701TIP3    H171594   3.264   2.481  15.217 -0.1420  1.9509  1.4541
16701TIP3    H271595   3.138   2.401  15.191  1.6713 -0.2451 -1.1548
16702TIP3   OH271596   5.345   2.427  10.833 -0.4630 -0.2786  0.4997
16702TIP3    H171597   5.321   2.340  10.802  0.1491 -0.5302  0.7319
16702TIP3    H271598   5.440   2.425  10.840 -0.5113  0.1215  1.3607
16703TIP3   OH271599   1.021   3.210  11.652 -0.3695 -0.2324 -0.9051
16703TIP3    H171600   1.054   3.120  11.662 -1.0600 -0.3966  0.1939
16703TIP3    H271601   1.099   3.265  11.656 -0.1561 -0.5742  2.1421
16704TIP3   OH271602   6.759   6.802   1.091 -0.0303  0.1385 -0.6572
16704TIP3    H171603   6.836   6.823   1.039  1.5887  1.3512  2.0283
16704TIP3    H271604   6.788   6.736   1.153 -1.5943 -0.4759 -0.5148
16705TIP3   OH271605   3.848   1.516   2.543 -0.3751 -0.3276 -0.4648
16705TIP3    H171606   3.832   1.589   2.484  0.5201 -1.0706 -1.6946
16705TIP3    H271607   3.917   1.548   2.602 -0.8874  0.2405 -0.1707
16706TIP3   OH271608   1.359   4.075  12.670 -0.1995  0.5535  0.0964
16706TIP3    H171609   1.377   4.003  12.611 -0.0826 -1.2686  2.2329
16706TIP3    H271610   1.375   4.040  12.758 -1.6746  2.6889  1.3308
16707TIP3   OH271611   2.812   2.247   3.285  0.0884 -0.5958 -0.5925
16707TIP3    H171612   2.767   2.175   3.241 -0.1459 -0.5970 -0.3528
16707TIP3    H271613   2.837   2.213   3.371 -1.7182  0.1691  0.2909
16708TIP3   OH271614   5.937   6.566  11.600 -0.0620 -0.1400  0.2337
16708TIP3    H171615   5.968   6.481  11.631 -1.2099 -0.4870  0.4922
16708TIP3    H271616   5.842   6.563  11.614 -0.0954  1.2608  0.4193
16709TIP3   OH271617   2.650   3.936   4.677 -0.1569  0.0972  0.4119
16709TIP3    H171618   2.578   3.993   4.704  0.2944  0.6058  0.5506
16709TIP3    H271619   2.607   3.864   4.630 -0.6305  1.5079 -1.4616
16710TIP3   OH271620   0.631   6.608  13.501  0.7036 -0.0257  0.1654
16710TIP3    H171621   0.567   6.589  13.570  1.0639 -0.0428  0.5039
16710TIP3    H271622   0.705   6.551  13.521  1.9241  1.8442  1.3596
16711TIP3   OH271623   0.008   1.635   1.401 -0.0307 -0.9321  0.4977
16711TIP3    H171624   0.032   1.726   1.383 -2.6381  0.0801  1.5535
16711TIP3    H271625   0.062   1.584   1.342  1.0959  1.3375 -0.5807
16712TIP3   OH271626   0.125   2.438   5.314 -0.2316  0.3457  0.4691
16712TIP3    H171627   0.100   2.346   5.306  3.6068 -0.7660 -0.9239
16712TIP3    H271628   0.071   2.483   5.248 -0.0423 -1.4808 -1.0146
16713TIP3   OH271629   0.568   3.705   3.627 -0.3002 -0.3430  0.4440
16713TIP3    H171630   0.641   3.743   3.675  1.0062  0.1375 -1.8046
16713TIP3    H271631   0.500   3.772   3.630 -0.4746 -0.5474  2.0352
16714TIP3   OH271632   4.486   3.546  15.502 -0.2110  0.3892  0.3013
16714TIP3    H171633   4.555   3.532  15.567 -1.6732  0.8061  2.0126
16714TIP3    H271634   4.425   3.473  15.516 -0.8890  0.8683 -0.1406
16715TIP3   OH271635   6.329   4.527  16.385  0.2563 -0.2844 -0.2802
16715TIP3    H171636   6.343   4.621  16.390 -0.1786 -0.1575 -1.3210
16715TIP3    H271637   6.415   4.489  16.403  0.4053  0.2942  0.2743
16716TIP3   OH271638   2.403   4.999  14.426  0.0759  0.1988 -0.0728
16716TIP3    H171639   2.379   4.991  14.519 -0.2866  2.3391  0.0755
16716TIP3    H271640   2.493   4.965  14.422 -0.4613 -1.4324  0.7138
16717TIP3   OH271641   4.101   0.577   5.465  0.3630 -0.1312  0.4802
16717TIP3    H171642   4.039   0.648   5.450  0.4207 -0.2466 -0.3596
16717TIP3    H271643   4.143   0.598   5.549  0.1363  0.6388  0.4035
16718TIP3   OH271644   3.025   5.847   1.962  0.4260  0.2130  0.1811
16718TIP3    H171645   3.077   5.778   1.921 -2.0596 -1.2228 -0.7437
16718TIP3    H271646   2.986   5.805   2.039  1.6011  1.6580  1.6517
16719TIP3   OH271647   3.073   4.679  14.986  0.4125 -0.1427  0.4469
16719TIP3    H171648   3.153   4.632  15.009  0.6833 -0.0824 -0.3374
16719TIP3    H271649   3.005   4.612  14.985  1.0520 -0.8657 -2.1035
16720TIP3   OH271650   0.176   6.395  13.429 -0.3729  0.3107  0.3094
16720TIP3    H171651   0.119   6.462  13.393  0.5426  1.8299  1.5602
16720TIP3    H271652   0.243   6.381  13.362 -1.6126 -0.8074 -0.7641
16721TIP3   OH271653   4.203   1.251   6.328  0.0846  0.0991  0.2028
16721TIP3    H171654   4.277   1.304   6.355  0.4724 -0.6952  0.7230
16721TIP3    H271655   4.234   1.161   6.335 -1.0194 -0.2570  0.7156
16722TIP3   OH271656   4.667   2.105   4.878 -0.2207 -0.7261  0.0109
16722TIP3    H171657   4.692   2.191   4.911  0.2782 -0.0063 -2.0566
16722TIP3    H271658   4.625   2.061   4.952 -0.4641  1.2784  1.1202
16723TIP3   OH271659   6.094   3.654   3.414  0.6458 -0.4367  0.3351
16723TIP3    H171660   6.077   3.747   3.404 -0.4506 -0.5041  1.3975
16723TIP3    H271661   6.085   3.618   3.326  0.0412  0.2978  0.0947
16724TIP3   OH271662   2.533   3.801   0.254 -0.1056  0.7936  0.4583
16724TIP3    H171663   2.486   3.765   0.179  1.8942 -0.7709 -0.1510
16724TIP3    H271664   2.465   3.819   0.319 -1.5917 -0.7975 -0.5705
16725TIP3   OH271665   1.204   5.095  14.264  0.2324 -0.3967 -0.1517
16725TIP3    H171666   1.218   5.008  14.225  0.9628 -1.1283  1.6089
16725TIP3    H271667   1.259   5.094  14.343 -1.8990  0.6155  1.4285
16726TIP3   OH271668   0.819   5.796  16.524  0.1189 -0.2475 -0.2719
16726TIP3    H171669   0.913   5.812  16.532  0.2871  0.0411 -2.2727
16726TIP3    H271670   0.779   5.881  16.545  0.2765 -0.4429  0.8466
16727TIP3   OH271671   5.661   1.789  17.173 -0.3014 -0.4438 -0.4847
16727TIP3    H171672   5.696   1.825  17.092 -2.0527  0.6609 -0.8149
16727TIP3    H271673   5.702   1.839  17.243 -0.3362  0.0235 -0.7975
16728TIP3   OH271674   1.996   6.361   2.206  0.1686 -0.8297 -0.1317
16728TIP3    H171675   1.911   6.401   2.183  1.1052  0.6200 -1.2645
16728TIP3    H271676   2.000   6.368   2.301 -1.3809 -1.8070  0.0493
16729TIP3   OH271677   5.438   6.688   4.723 -0.3397  0.1171  0.5143
16729TIP3    H171678   5.524   6.665   4.759  1.1654  2.0506 -1.5508
16729TIP3    H271679   5.422   6.621   4.656 -0.0474  0.2230  0.3377
16730TIP3   OH271680   3.167   2.186   1.960 -0.1376 -0.2271  0.2778
16730TIP3    H171681   3.155   2.280   1.950 -0.7040 -0.3120  0.1396
16730TIP3    H271682   3.193   2.155   1.874  0.4172 -0.1422  0.4142
16731TIP3   OH271683   3.370   6.237  17.048  0.6166 -0.0249  0.0254
16731TIP3    H171684   3.390   6.144  17.061 -0.5011 -0.2035  0.5824
16731TIP3    H271685   3.307   6.258  17.117  0.9627  1.1909 -0.0111
16732TIP3   OH271686   4.009   6.331  14.350 -0.1266 -0.0846  0.1936
16732TIP3    H171687   3.955   6.326  14.271 -0.0082  1.0732  0.0207
16732TIP3    H271688   4.099   6.329  14.318  0.1343 -4.1228  0.5800
16733TIP3   OH271689   2.964   1.496  11.072 -0.0282  0.0563  0.0130
16733TIP3    H171690   2.971   1.444  11.153 -3.1149  0.3340  0.5901
16733TIP3    H271691   2.964   1.431  11.002  0.9530 -0.3285  0.3594
16734TIP3   OH271692   5.824   3.223  14.998  0.7229 -0.4701  0.0748
16734TIP3    H171693   5.819   3.176  14.915  1.4995  1.3145 -1.0291
16734TIP3    H271694   5.733   3.226  15.029  0.4963 -1.6021 -0.4175
16735TIP3   OH271695   5.078   3.232   2.447 -0.3905  0.8949  0.2917
16735TIP3    H171696   4.998   3.280   2.468 -2.0362 -1.0363 -1.2466
16735TIP3    H271697   5.054   3.140   2.453  1.3665  0.2469 -1.4230
16736TIP3   OH271698   3.608   1.511   2.744  0.2577 -0.0527  0.4996
16736TIP3    H171699   3.675   1.556   2.796  1.0458  1.7847 -1.9169
16736TIP3    H271700   3.656   1.472   2.671 -1.2327  1.4334 -1.3790
16737TIP3   OH271701   5.470   4.903  14.007  0.1729 -0.0131  0.3699
16737TIP3    H171702   5.495   4.973  14.067 -0.4078 -1.2400  2.1194
16737TIP3    H271703   5.513   4.825  14.042  1.0021 -0.5510 -1.6706
16738TIP3   OH271704   6.632   6.508   3.743 -0.2816  0.3419  0.0384
16738TIP3    H171705   6.622   6.562   3.665  1.3927  1.6513  0.6547
16738TIP3    H271706   6.542   6.482   3.766 -0.8175  0.0833 -2.1562
16739TIP3   OH271707   6.156   6.640  13.844 -0.2165  0.1729  0.0045
16739TIP3    H171708   6.132   6.644  13.751 -0.1050  1.2583  0.0152
16739TIP3    H271709   6.130   6.552  13.871 -1.3212  0.2431 -0.7632
16740TIP3   OH271710   2.078   3.047   0.372 -0.2142 -0.0050 -0.2553
16740TIP3    H171711   1.994   3.001   0.374  0.3949 -1.1559  0.7995
16740TIP3    H271712   2.056   3.135   0.344 -1.9564  0.0294  0.9879
16741TIP3   OH271713   6.463   5.827  16.747  0.1606 -0.1820 -0.4314
16741TIP3    H171714   6.430   5.905  16.702  0.7621  1.1533  1.3201
16741TIP3    H271715   6.523   5.787  16.685 -1.0063  0.0992 -1.7924
16742TIP3   OH271716   4.924   6.577   5.833  0.1999  0.0572  0.1963
16742TIP3    H171717   4.917   6.555   5.740  0.7673 -0.6091  0.3036
16742TIP3    H271718   4.991   6.517   5.867 -0.7826 -0.4562  1.2691
16743TIP3   OH271719   6.172   6.611   7.000  0.2355  0.0188  0.0285
16743TIP3    H171720   6.134   6.675   6.939 -1.7544 -0.4809  0.6680
16743TIP3    H271721   6.198   6.538   6.945 -1.0276 -0.1933 -0.3215
16744TIP3   OH271722   6.454   1.089   4.398  0.0648  0.0773  0.3928
16744TIP3    H171723   6.500   1.113   4.318 -0.4253 -1.6915 -0.4656
16744TIP3    H271724   6.518   1.039   4.448 -0.3251 -0.7808  0.0480
16745TIP3   OH271725   5.810   4.506  11.416  0.3470 -0.0366 -0.2177
16745TIP3    H171726   5.890   4.454  11.409  0.4571 -0.0914  1.2208
16745TIP3    H271727   5.836   4.584  11.465 -0.1544  0.6802 -1.0518
16746TIP3   OH271728   0.325   0.185   1.712 -0.3493 -0.2945  0.6104
16746TIP3    H171729   0.336   0.270   1.755  2.1204 -0.3845  0.2713
16746TIP3    H271730   0.370   0.195   1.628  0.2943 -2.0282  0.7147
16747TIP3   OH271731   1.763   4.032   0.100  0.1404  0.4877 -0.2289
16747TIP3    H171732   1.800   3.962   0.047  0.7431  1.1808 -0.7417
16747TIP3    H271733   1.839   4.078   0.135 -0.2301 -0.1631  1.5453
16748TIP3   OH271734   3.136   5.173  12.518 -0.5563 -0.3187  0.3789
16748TIP3    H171735   3.071   5.188  12.449  1.4849  0.0046 -1.5867
16748TIP3    H271736   3.123   5.246  12.579 -1.0147  0.6412 -0.8166
16749TIP3   OH271737   4.967   2.791   1.530  0.1586  0.2873 -0.3426
16749TIP3    H171738   4.905   2.797   1.603  1.6621 -0.8658  1.1112
16749TIP3    H271739   4.934   2.720   1.475  0.7655 -1.1634  1.0844
16750TIP3   OH271740   5.070   0.962   0.667  0.0587 -0.2216  0.0734
16750TIP3    H171741   4.999   0.905   0.636 -0.8170  1.0122 -0.2294
16750TIP3    H271742   5.128   0.973   0.592  0.1888 -0.6231  0.1098
16751TIP3   OH271743   6.725   5.473   4.184  0.5471 -0.9046  0.3040
16751TIP3    H171744   6.679   5.547   4.223 -1.1333 -1.3182 -0.8223
16751TIP3    H271745   6.798   5.456   4.245  2.5161  3.1432 -0.5657
16752TIP3   OH271746   1.100   0.142  11.544  0.2725 -0.6681 -0.5557
16752TIP3    H171747   1.037   0.091  11.492 -0.3587 -1.9995  1.4375
16752TIP3    H271748   1.131   0.082  11.611  2.9749  0.2635 -0.8499
16753TIP3   OH271749   6.388   0.112  16.855  0.0274 -0.1063 -0.0803
16753TIP3    H171750   6.435   0.181  16.901 -0.9249 -0.6003  1.7190
16753TIP3    H271751   6.308   0.099  16.906 -2.3116  0.9130 -3.1691
16754TIP3   OH271752   2.377   0.199   5.188  0.1239 -0.7208  0.1248
16754TIP3    H171753   2.312   0.187   5.118 -0.1862  1.7240 -0.0786
16754TIP3    H271754   2.462   0.188   5.143 -0.0894 -0.1991 -0.4171
16755TIP3   OH271755   1.209   0.799   4.521  0.7900  0.3101  0.1693
16755TIP3    H171756   1.237   0.760   4.604  0.2691 -0.3032  0.0676
16755TIP3    H271757   1.120   0.831   4.539  0.6149  0.0362 -0.1865
16756TIP3   OH271758   1.477   2.029   4.744 -0.0653 -0.2141 -0.0325
16756TIP3    H171759   1.500   1.987   4.661 -0.2322 -0.8049  0.2122
16756TIP3    H271760   1.415   2.098   4.720  0.5876  0.2241 -0.4969
16757TIP3   OH271761   5.371   5.465   5.469 -0.6304 -0.1468  0.0573
16757TIP3    H171762   5.354   5.530   5.401 -0.4914  0.0676  0.2250
16757TIP3    H271763   5.327   5.386   5.438 -1.1707  0.1442  0.0556
16758TIP3   OH271764   0.235   0.428  13.859 -0.1378  0.0213  0.4942
16758TIP3    H171765   0.250   0.470  13.775  1.0259 -1.0887  0.1201
16758TIP3    H271766   0.153   0.380  13.848 -1.0169  1.4227  0.6507
16759TIP3   OH271767   2.821   2.185  16.596  0.6490  0.2415  0.1655
16759TIP3    H171768   2.896   2.125  16.600 -0.7437 -1.9435 -2.6916
16759TIP3    H271769   2.846   2.250  16.531  0.1413 -0.5198 -0.8301
16760TIP3   OH271770   2.880   4.642   0.661 -0.1271  0.4049 -0.4407
16760TIP3    H171771   2.828   4.659   0.739 -0.9060 -0.8368 -0.6639
16760TIP3    H271772   2.971   4.644   0.691 -0.3611  1.2421  0.2236
16761TIP3   OH271773   1.128   1.578   2.171 -0.4908 -0.1410 -0.2331
16761TIP3    H171774   1.129   1.492   2.128  0.1639 -0.4995  0.4886
16761TIP3    H271775   1.105   1.560   2.262  0.0224  0.3994  0.0154
16762TIP3   OH271776   5.877   2.183  16.610 -0.8053 -0.7367  0.3424
16762TIP3    H171777   5.958   2.209  16.654 -0.5515  0.1330 -0.5961
16762TIP3    H271778   5.810   2.186  16.678 -0.1765 -0.7772  0.9702
16763TIP3   OH271779   2.532   6.073  12.016 -0.1495  0.2739 -0.0101
16763TIP3    H171780   2.475   6.012  12.064 -0.5715  1.4698  1.0615
16763TIP3    H271781   2.620   6.039  12.030 -0.3261  0.2134  1.0798
16764TIP3   OH271782   1.733   3.249  10.886 -0.2728 -0.2716  0.5407
16764TIP3    H171783   1.645   3.264  10.920 -0.8868 -1.7546 -0.2658
16764TIP3    H271784   1.718   3.211  10.799  1.1609  4.3868 -2.1039
16765TIP3   OH271785   4.811   4.183   0.882  0.2320  0.2994  0.2836
16765TIP3    H171786   4.821   4.252   0.949  1.1404 -0.7767  1.3138
16765TIP3    H271787   4.856   4.107   0.920 -1.9845 -1.3265 -0.1623
16766TIP3   OH271788   4.101   6.409   2.739 -0.6936 -0.7619  0.4186
16766TIP3    H171789   4.190   6.387   2.768  0.2081  2.0361  0.0368
16766TIP3    H271790   4.044   6.370   2.805  1.0428  0.6445  2.9102
16767TIP3   OH271791   5.938   1.904  15.838  0.3775  0.0543  0.5356
16767TIP3    H171792   5.898   1.980  15.881 -1.2853 -0.6026  0.2489
16767TIP3    H271793   6.021   1.936  15.805  1.1335  0.9453  3.0479
16768TIP3   OH271794   2.316   6.846  17.113  0.0339 -0.0670  0.0670
16768TIP3    H171795   2.304   6.904  17.038 -1.1334 -0.8706 -0.3969
16768TIP3    H271796   2.253   6.878  17.178  1.9526  1.4652  1.2827
16769TIP3   OH271797   0.566   0.553  13.357 -0.0363 -0.1781  0.1162
16769TIP3    H171798   0.615   0.472  13.342  0.7503 -0.0424  1.7504
16769TIP3    H271799   0.491   0.526  13.411  0.7585  0.2730  1.5194
16770TIP3   OH271800   4.347   1.961  15.029  0.0669 -0.0771 -0.3048
16770TIP3    H171801   4.360   1.932  14.938  0.8814 -0.9841  0.0792
16770TIP3    H271802   4.342   1.879  15.079 -1.1292  0.3959  0.3832
16771TIP3   OH271803   6.516   3.177   4.612 -0.4180  0.2344  0.5047
16771TIP3    H171804   6.438   3.121   4.606 -0.1874 -0.1720  1.2059
16771TIP3    H271805   6.504   3.242   4.542  0.1291 -1.6918 -1.4777
16772TIP3   OH271806   1.213   3.663  13.459  0.0108 -0.6797  0.0908
16772TIP3    H171807   1.210   3.743  13.406  1.3962  0.0767  1.1043
16772TIP3    H271808   1.290   3.616  13.427 -1.0493 -1.8967 -0.8179
16773TIP3   OH271809   3.463   6.704   3.159  0.0103 -0.6718 -0.6087
16773TIP3    H171810   3.445   6.797   3.172 -0.9181 -0.8657 -0.4588
16773TIP3    H271811   3.391   6.672   3.105 -0.4556 -1.5882  0.4971
16774TIP3   OH271812   2.052   5.882   4.596  0.1423  0.6289 -0.5938
16774TIP3    H171813   2.006   5.905   4.677 -0.3523 -1.1430 -0.3359
16774TIP3    H271814   2.129   5.938   4.596  1.0564 -0.4774  1.9783
16775TIP3   OH271815   0.181   1.411  13.099 -0.5029 -0.6209  0.3031
16775TIP3    H171816   0.211   1.383  13.013  1.2762  0.2984  0.5779
16775TIP3    H271817   0.179   1.507  13.094  2.9433 -0.3014  2.2172
16776TIP3   OH271818   0.194   0.190  12.839 -0.0593  0.5714 -0.1639
16776TIP3    H171819   0.209   0.255  12.908  2.8184  0.8502 -0.9131
16776TIP3    H271820   0.159   0.241  12.766  0.4449  0.9756 -0.1320
16777TIP3   OH271821   5.588   1.012  14.988  0.2901  0.7670  0.2966
16777TIP3    H171822   5.600   1.102  14.957 -0.6342  0.5103 -0.8605
16777TIP3    H271823   5.521   0.976  14.931  0.6246 -0.6601  0.7764
16778TIP3   OH271824   6.288   3.116   3.023 -0.3119  0.8639  0.0001
16778TIP3    H171825   6.342   3.088   3.096 -0.1738 -0.7225 -0.6610
16778TIP3    H271826   6.335   3.189   2.984  0.6768  0.3639  0.2339
16779TIP3   OH271827   0.977   6.824  12.333  0.4249  0.4245  0.2013
16779TIP3    H171828   0.919   6.873  12.391 -0.3921  1.5779 -1.4953
16779TIP3    H271829   1.016   6.757  12.389 -2.6068 -0.4912  1.4364
16780TIP3   OH271830   5.473   5.640   3.166  0.2929 -0.1828 -0.1785
16780TIP3    H171831   5.490   5.569   3.104 -1.6080 -0.2449 -0.6764
16780TIP3    H271832   5.380   5.634   3.186  0.4883  0.9888  1.2844
16781TIP3   OH271833   2.680   0.133  15.889 -0.2340  0.8152 -0.1006
16781TIP3    H171834   2.711   0.095  15.807  2.0362  1.5808  0.3121
16781TIP3    H271835   2.601   0.084  15.910  0.9017 -1.6221 -1.0916
16782TIP3   OH271836   6.005   6.469  12.400 -0.2310  0.6644 -0.2708
16782TIP3    H171837   5.972   6.477  12.489  0.4129  1.1745 -0.0748
16782TIP3    H271838   5.932   6.430  12.351 -1.4053  2.4059  0.0052
16783TIP3   OH271839   1.030   2.540  16.748  0.1763 -0.8478 -0.2407
16783TIP3    H171840   0.941   2.561  16.722 -0.0046 -0.9202  0.3047
16783TIP3    H271841   1.081   2.545  16.667  0.3036  2.3706 -0.1235
16784TIP3   OH271842   0.383   6.414  15.178  0.0192  0.2153  0.1340
16784TIP3    H171843   0.451   6.449  15.119  1.5896 -0.4456  1.4641
16784TIP3    H271844   0.433   6.369  15.246 -1.8257 -2.1669  0.0200
16785TIP3   OH271845   0.764   2.026   5.357 -0.7939  0.0432  0.2466
16785TIP3    H171846   0.848   2.031   5.311  0.0141 -2.1295  1.3639
16785TIP3    H271847   0.723   2.112   5.341  1.3512  0.9452 -0.8108
16786TIP3   OH271848   1.613   0.156   3.654 -0.2709 -0.5107  0.3459
16786TIP3    H171849   1.616   0.077   3.600 -0.3562  0.1870 -0.6974
16786TIP3    H271850   1.694   0.203   3.633 -2.2436  1.9592 -2.6652
16787TIP3   OH271851   2.086   4.091  11.891  0.5146 -0.1748  0.2784
16787TIP3    H171852   2.079   4.183  11.917 -1.1992  0.1594 -1.1729
16787TIP3    H271853   2.043   4.043  11.962  0.2319  0.2622  0.4059
16788TIP3   OH271854   4.191   5.796  10.992  0.7298  0.1653 -0.4168
16788TIP3    H171855   4.149   5.844  10.921 -1.7151 -0.9627  0.1457
16788TIP3    H271856   4.218   5.713  10.952  0.2108 -0.0857 -0.2538
16789TIP3   OH271857   2.062   5.816   0.878  0.5105  0.5363  0.7119
16789TIP3    H171858   2.077   5.845   0.968 -2.1291  0.9728  1.0733
16789TIP3    H271859   1.974   5.847   0.856  1.3515  1.1526 -2.3309
16790TIP3   OH271860   0.373   1.322   5.892  0.4151 -0.4826  0.0085
16790TIP3    H171861   0.445   1.259   5.890  0.7246 -0.1234 -0.2881
16790TIP3    H271862   0.294   1.269   5.880  0.6762 -0.8077 -0.2984
16791TIP3   OH271863   3.978   0.085   4.076  0.2534  0.5428  0.0078
16791TIP3    H171864   4.051   0.028   4.100  0.6354  0.9414 -0.1755
16791TIP3    H271865   4.020   0.162   4.038 -0.2427  1.0056  0.3769
16792TIP3   OH271866   2.844   3.261   4.894  0.2092 -0.1135  0.2652
16792TIP3    H171867   2.934   3.254   4.927  0.6159  0.1863 -0.7153
16792TIP3    H271868   2.792   3.288   4.969  0.5308 -2.4863  1.4324
16793TIP3   OH271869   2.050   5.108   0.604 -0.4533 -0.0564  0.7427
16793TIP3    H171870   1.968   5.151   0.626 -0.0201  1.0986  0.1559
16793TIP3    H271871   2.087   5.081   0.688 -1.6184 -0.9741  0.9831
16794TIP3   OH271872   2.769   3.980   3.701  0.3308  0.3167 -0.0035
16794TIP3    H171873   2.827   4.027   3.761 -1.2350  0.2552  1.6461
16794TIP3    H271874   2.782   3.887   3.722 -1.0660  0.3404  1.1386
16795TIP3   OH271875   3.535   3.567  16.068  0.5268 -0.4253 -0.1110
16795TIP3    H171876   3.564   3.485  16.109  3.8285  0.0347 -1.2449
16795TIP3    H271877   3.542   3.552  15.974 -1.1363  0.4367 -0.4096
16796TIP3   OH271878   4.333   5.941  15.796  0.0141  0.4010  0.5050
16796TIP3    H171879   4.391   6.012  15.824  0.8531  0.0069 -0.1892
16796TIP3    H271880   4.315   5.892  15.876  2.1294 -0.5396  0.4677
16797TIP3   OH271881   3.515   6.832   4.919  0.6206  0.0315  0.4033
16797TIP3    H171882   3.492   6.925   4.914 -0.0782 -0.0609  1.6012
16797TIP3    H271883   3.433   6.786   4.900  0.8224 -0.3379  0.4045
16798TIP3   OH271884   6.065   4.086  11.742  0.3714 -0.3270  0.4677
16798TIP3    H171885   6.119   4.017  11.704  2.7111  1.3424  0.5420
16798TIP3    H271886   6.002   4.109  11.674  3.1158  1.1585 -1.7583
16799TIP3   OH271887   4.117   5.659   5.702 -0.6155  0.3881 -0.2052
16799TIP3    H171888   4.094   5.651   5.609 -0.5484  3.1619 -0.5559
16799TIP3    H271889   4.078   5.582   5.744 -2.0363 -0.0949 -2.2721
16800TIP3   OH271890   0.631   0.981  16.667  0.4426 -0.1082 -0.4011
16800TIP3    H171891   0.548   0.963  16.624 -0.7186 -0.0556  1.7034
16800TIP3    H271892   0.680   1.033  16.603 -0.8057 -0.8019 -1.9815
16801TIP3   OH271893   0.268   3.019  15.434 -0.1461  0.4644  0.1438
16801TIP3    H171894   0.348   3.062  15.404  0.1775 -0.3752 -0.2214
16801TIP3    H271895   0.213   3.012  15.355 -0.4006  0.6469  0.3025
16802TIP3   OH271896   5.734   5.381   3.094 -0.1200  0.6226  0.0074
16802TIP3    H171897   5.758   5.338   3.011  0.6732 -0.4742  0.7785
16802TIP3    H271898   5.732   5.474   3.072 -3.2920  0.2207 -2.0751
16803TIP3   OH271899   1.211   1.749  14.175  0.2125  0.1251 -0.2112
16803TIP3    H171900   1.197   1.836  14.211 -2.1609 -0.0627 -0.5433
16803TIP3    H271901   1.262   1.703  14.242 -2.2663  0.4398  2.0309
16804TIP3   OH271902   0.152   3.122   1.645  0.3173 -0.5905  0.0494
16804TIP3    H171903   0.124   3.051   1.586 -2.2799  2.2624 -2.4948
16804TIP3    H271904   0.080   3.129   1.708  0.3624  0.0308  0.0341
16805TIP3   OH271905   4.419   4.472   1.335  0.1951  0.2191  0.1330
16805TIP3    H171906   4.402   4.387   1.293  1.2845 -0.2786  0.6574
16805TIP3    H271907   4.333   4.514   1.339 -0.1283 -0.2050 -1.5123
16806TIP3   OH271908   2.326   1.882  16.058 -0.0113  0.0896  0.1807
16806TIP3    H171909   2.401   1.897  16.115  0.0995  0.6717 -0.1102
16806TIP3    H271910   2.252   1.920  16.106 -0.1106 -0.4197  0.4362
16807TIP3   OH271911   3.633   3.503   2.591 -0.5360  0.4606  0.0256
16807TIP3    H171912   3.718   3.544   2.604 -0.3666 -0.0056  0.4142
16807TIP3    H271913   3.575   3.576   2.568 -0.8061  1.3533  3.1194
16808TIP3   OH271914   0.022   5.702   1.103  0.1850 -0.0335  0.2658
16808TIP3    H171915  -0.028   5.740   1.175 -0.0607  0.9079 -0.3870
16808TIP3    H271916   0.010   5.763   1.031 -1.1858 -1.9467 -1.2166
16809TIP3   OH271917   6.696   3.464  15.364  0.0250 -0.0842  0.0937
16809TIP3    H171918   6.741   3.543  15.332  2.1204  0.5406  3.9292
16809TIP3    H271919   6.670   3.487  15.454 -1.7926 -2.8933  0.3887
16810TIP3   OH271920   2.452   5.116   5.264 -0.3854 -0.0761 -0.0833
16810TIP3    H171921   2.384   5.158   5.317 -0.2612 -0.4657  0.3898
16810TIP3    H271922   2.449   5.163   5.181  0.7799  1.9275  0.9218
16811TIP3   OH271923   4.492   6.690   6.248 -0.6499 -0.2719 -0.7176
16811TIP3    H171924   4.436   6.698   6.326 -0.2439 -0.4350 -0.4038
16811TIP3    H271925   4.449   6.625   6.193  0.6066 -2.4771  0.7574
16812TIP3   OH271926   4.730   2.489  12.503 -0.3461 -0.1528 -0.5841
16812TIP3    H171927   4.675   2.542  12.560  1.2535  0.0619  0.8395
16812TIP3    H271928   4.717   2.526  12.415 -1.0261  1.0683  0.0039
16813TIP3   OH271929   4.544   0.927  13.543 -0.1938  0.1443  0.5131
16813TIP3    H171930   4.487   0.897  13.472 -0.2904  0.1268  0.5983
16813TIP3    H271931   4.572   0.847  13.587  1.9044 -0.0700 -1.0439
16814TIP3   OH271932   2.350   2.378   4.625 -0.4767  0.1625 -0.0799
16814TIP3    H171933   2.308   2.456   4.662  0.8381 -0.1095  2.1257
16814TIP3    H271934   2.385   2.331   4.700  0.1069 -1.7881 -1.4968
16815TIP3   OH271935   6.446   6.843  12.544  0.2759 -0.1918  0.1294
16815TIP3    H171936   6.373   6.786  12.519 -0.0402 -0.1530  0.9369
16815TIP3    H271937   6.515   6.783  12.570  2.0431 -0.4507 -4.2361
16816TIP3   OH271938   1.796   2.220  12.114 -0.2635  0.0793  0.4991
16816TIP3    H171939   1.825   2.236  12.024  0.3191 -0.6667  0.5501
16816TIP3    H271940   1.871   2.245  12.168 -0.7040  0.7707  0.7979
16817TIP3   OH271941   4.409   6.227   2.755  0.2007  0.1127  0.1388
16817TIP3    H171942   4.437   6.315   2.729  0.3727  0.5961  1.8347
16817TIP3    H271943   4.485   6.190   2.800  0.4678 -1.3116 -1.3892
16818TIP3   OH271944   0.904   4.113  11.745 -0.4867  0.4703 -0.1072
16818TIP3    H171945   0.918   4.077  11.833 -1.2790 -0.9743 -0.5432
16818TIP3    H271946   0.981   4.167  11.728  0.5626 -0.7082  0.7461
16819TIP3   OH271947   6.060   4.200   2.921  0.1181  0.4145  0.0769
16819TIP3    H171948   5.972   4.175   2.949 -0.7919  0.1611 -2.7371
16819TIP3    H271949   6.118   4.142   2.970 -1.4318 -1.0441  0.2739
16820TIP3   OH271950   4.820   3.210   5.171  0.5710  0.3525 -0.2480
16820TIP3    H171951   4.740   3.240   5.214 -0.1335 -1.3668 -0.2668
16820TIP3    H271952   4.801   3.217   5.078 -0.3327 -1.7782 -0.2879
16821TIP3   OH271953   6.065   1.196   5.719 -0.4288  0.5443 -0.1411
16821TIP3    H171954   6.041   1.201   5.626 -2.1673  0.7629  0.2871
16821TIP3    H271955   6.120   1.273   5.733  1.2091 -0.3380 -1.3205
16822TIP3   OH271956   6.282   2.170  16.492  0.3384  0.4797 -0.3955
16822TIP3    H171957   6.248   2.255  16.463  0.8187  1.1523  0.9127
16822TIP3    H271958   6.350   2.148  16.428  0.1694  1.0468 -0.7783
16823TIP3   OH271959   2.438   1.519   3.667 -0.3576 -0.0568 -0.0101
16823TIP3    H171960   2.474   1.607   3.667  1.5635 -0.7856  0.2544
16823TIP3    H271961   2.501   1.468   3.615 -1.6125 -1.2005 -0.4624
16824TIP3   OH271962   5.517   3.764  14.009  0.3264 -0.1055  0.2137
16824TIP3    H171963   5.520   3.827  13.938 -0.4387 -0.9434 -0.5938
16824TIP3    H271964   5.431   3.777  14.050  0.7093  0.2843  0.9143
16825TIP3   OH271965   3.703   0.998  12.742  1.0140  0.0276 -0.4580
16825TIP3    H171966   3.630   0.942  12.713  0.7971  0.5965 -1.0369
16825TIP3    H271967   3.778   0.969  12.690  0.2926  2.0406 -2.8056
16826TIP3   OH271968   0.130   2.808  14.959 -0.7408  0.2957 -0.0086
16826TIP3    H171969   0.068   2.766  14.898  2.8977 -0.5469 -3.5634
16826TIP3    H271970   0.195   2.741  14.977  1.1848  2.1884  0.4070
16827TIP3   OH271971   0.402   3.900  12.740 -0.2311  0.3836  0.4555
16827TIP3    H171972   0.336   3.918  12.807  0.7584  0.4029  1.4600
16827TIP3    H271973   0.470   3.966  12.755 -0.3304  0.8602 -1.0642
16828TIP3   OH271974   2.220   1.859   3.767  0.0366  0.5380 -0.1868
16828TIP3    H171975   2.166   1.798   3.716  2.2935 -2.0467  0.2525
16828TIP3    H271976   2.189   1.849   3.857  2.4095 -2.6696  0.4613
16829TIP3   OH271977   5.356   3.312  13.901 -0.0953  0.2927 -0.1307
16829TIP3    H171978   5.423   3.267  13.851 -2.3767 -1.5854 -1.7314
16829TIP3    H271979   5.403   3.378  13.952  3.0220 -1.6555 -0.2785
16830TIP3   OH271980   5.704   3.100   1.702 -0.5326 -0.1977 -0.1668
16830TIP3    H171981   5.725   3.087   1.610  0.1771  0.1927 -0.0641
16830TIP3    H271982   5.611   3.079   1.708 -0.7838  0.5525 -1.1270
16831TIP3   OH271983   4.061   0.217   4.524  0.4536  0.1266 -0.5485
16831TIP3    H171984   4.128   0.149   4.523  1.3405  0.8774  1.5647
16831TIP3    H271985   4.094   0.285   4.464  0.8858 -0.1327 -0.6045
16832TIP3   OH271986   0.052   2.737   4.370  0.1666 -0.5859 -0.4230
16832TIP3    H171987   0.117   2.780   4.315  0.5803  0.6914  0.9822
16832TIP3    H271988  -0.030   2.783   4.352  0.4224  0.2259  0.4181
16833TIP3   OH271989   1.445   3.460  16.809  0.2779  0.2630 -0.1642
16833TIP3    H171990   1.448   3.370  16.779  2.1438  0.2896 -0.1638
16833TIP3    H271991   1.361   3.467  16.855 -0.6243 -0.9939 -1.5147
16834TIP3   OH271992   3.419   5.567   3.226  0.2019  0.1773  0.0431
16834TIP3    H171993   3.343   5.528   3.267  1.8065 -1.8459  1.2656
16834TIP3    H271994   3.428   5.520   3.143  0.4554 -0.0152  0.1783
16835TIP3   OH271995   4.556   0.881   0.025 -0.3017 -0.2941 -0.3751
16835TIP3    H171996   4.650   0.864   0.031 -0.5095 -1.0628  1.3929
16835TIP3    H271997   4.519   0.797  -0.001 -0.5936 -0.2703 -0.0306
16836TIP3   OH271998   1.662   6.785   3.481  0.2360  1.1752  0.0275
16836TIP3    H171999   1.601   6.719   3.448  3.1120 -1.1403 -1.1068
16836TIP3    H272000   1.668   6.848   3.409  0.4998  0.4335 -0.6230
16837TIP3   OH272001   5.300   1.121  13.921  0.0776  0.0026 -0.0112
16837TIP3    H172002   5.267   1.043  13.875  1.4099 -0.2845 -0.5221
16837TIP3    H272003   5.394   1.121  13.903  0.6049  0.0749  2.4842
16838TIP3   OH272004   6.758   4.135  14.138  0.2227 -0.5164  0.0210
16838TIP3    H172005   6.767   4.196  14.065  2.0238  0.8181  1.2652
16838TIP3    H272006   6.783   4.050  14.102  0.4035 -0.0060 -1.0851
16839TIP3   OH272007   0.265   1.603   5.960 -0.8380 -0.0624 -0.1664
16839TIP3    H172008   0.321   1.526   5.952  0.1006  0.7036 -1.2697
16839TIP3    H272009   0.275   1.649   5.877  0.3716  2.4043  1.2320
16840TIP3   OH272010   3.111   0.246   4.626 -0.2088  0.2268  0.0239
16840TIP3    H172011   3.059   0.326   4.624 -1.2341 -0.3757  1.3717
16840TIP3    H272012   3.198   0.274   4.597 -0.9750  1.4714 -1.2155
16841TIP3   OH272013   4.195   4.350  16.209  1.0407  0.3452  0.0848
16841TIP3    H172014   4.126   4.318  16.151  1.4187 -0.9861  0.3344
16841TIP3    H272015   4.263   4.382  16.149  2.2227 -2.6738 -0.3764
16842TIP3   OH272016   3.369   5.363   5.786 -0.0857  0.2108  0.1150
16842TIP3    H172017   3.416   5.366   5.870  0.2675 -0.6875 -0.0356
16842TIP3    H272018   3.329   5.449   5.778 -0.0883  0.3285  1.1940
16843TIP3   OH272019   1.116   0.583  15.400 -0.7923 -0.0874  0.6169
16843TIP3    H172020   1.032   0.566  15.357 -1.3255  0.9653  1.2149
16843TIP3    H272021   1.180   0.578  15.329 -1.5847  0.9326 -0.2085
16844TIP3   OH272022   1.267   1.147   4.467 -0.0461  0.2988  0.0282
16844TIP3    H172023   1.279   1.206   4.541 -1.9750 -1.9805  2.3545
16844TIP3    H272024   1.353   1.107   4.453  1.1941  3.1932 -1.3476
16845TIP3   OH272025   6.036   6.574  10.670  0.5955 -0.2930  0.0389
16845TIP3    H172026   6.007   6.606  10.584 -0.0483  0.0062  0.3595
16845TIP3    H272027   6.099   6.640  10.700  0.2415  0.0031  0.1321
16846TIP3   OH272028   1.203   5.766  11.898  0.7597 -0.2830 -0.0416
16846TIP3    H172029   1.248   5.850  11.898  2.3905 -1.1097 -0.1257
16846TIP3    H272030   1.132   5.777  11.961  0.5984  1.3053 -0.4534
16847TIP3   OH272031   4.588   2.771   1.416  0.5542 -0.1085  0.3891
16847TIP3    H172032   4.510   2.771   1.360  0.8063  0.0969  0.0338
16847TIP3    H272033   4.556   2.744   1.502  0.6200 -3.4087 -0.4907
16848TIP3   OH272034   2.550   1.406  13.561 -0.0753 -0.5331 -0.0786
16848TIP3    H172035   2.537   1.316  13.591  0.0684 -0.1575  1.1604
16848TIP3    H272036   2.464   1.433  13.528 -0.1619 -1.0659 -0.2995
16849TIP3   OH272037   1.251   3.902   4.816  0.0841  0.0774  0.1293
16849TIP3    H172038   1.308   3.847   4.762  0.5777  0.0708  0.6509
16849TIP3    H272039   1.163   3.886   4.781  0.4297  0.3259 -0.8780
16850TIP3   OH272040   5.788   2.552  15.423 -0.3458 -0.8023  0.3215
16850TIP3    H172041   5.758   2.482  15.481  1.4827 -1.5040  0.4978
16850TIP3    H272042   5.853   2.510  15.367 -0.1825  0.4641 -0.4757
16851TIP3   OH272043   0.184   3.410   3.879 -0.1778  0.0075  0.4430
16851TIP3    H172044   0.247   3.339   3.869 -1.2667 -1.1340  1.3308
16851TIP3    H272045   0.138   3.415   3.795  1.6204  1.4379 -0.5238
16852TIP3   OH272046   6.619   2.478   7.145 -0.6255 -0.2606 -0.2285
16852TIP3    H172047   6.711   2.495   7.128 -0.5852 -0.3717 -0.1195
16852TIP3    H272048   6.613   2.383   7.153 -0.6097 -0.1918  0.5957
16853TIP3   OH272049   2.503   4.032  15.839  0.1709  0.5130 -0.0247
16853TIP3    H172050   2.431   4.024  15.776 -1.5403  0.2735  1.8409
16853TIP3    H272051   2.527   4.124  15.837  1.5640  0.1911 -2.4016
16854TIP3   OH272052   5.057   4.738  16.211  0.0021 -0.1017  0.0311
16854TIP3    H172053   5.127   4.801  16.225 -0.5672  0.1938  1.7610
16854TIP3    H272054   4.980   4.778  16.251 -1.0118 -0.7128 -1.2485
16855TIP3   OH272055   0.923   3.808  13.156  1.1055 -0.0775 -0.9246
16855TIP3    H172056   0.907   3.880  13.217  0.1354 -0.5229 -0.6289
16855TIP3    H272057   0.846   3.807  13.099  0.9566 -1.0572 -0.7341
16856TIP3   OH272058   5.323   6.712   5.923 -0.7343  0.0016  0.1277
16856TIP3    H172059   5.280   6.780   5.871  0.1510  0.9340  0.5753
16856TIP3    H272060   5.319   6.633   5.868 -0.3414  0.8114 -1.1139
16857TIP3   OH272061   0.207   3.525   3.109  0.2490  0.2392  0.7550
16857TIP3    H172062   0.269   3.496   3.042  1.1946  0.0197  1.6962
16857TIP3    H272063   0.128   3.474   3.093  1.1175 -1.2276  0.9669
16858TIP3   OH272064   2.649   2.517   4.363  0.7795 -0.4140 -0.3096
16858TIP3    H172065   2.631   2.609   4.383 -0.8743 -1.3570  3.5391
16858TIP3    H272066   2.604   2.501   4.280  0.3504  2.0096 -0.6157
16859TIP3   OH272067   2.140   6.178  16.864 -0.0312 -0.3208 -0.3302
16859TIP3    H172068   2.072   6.115  16.843 -0.1216 -0.0722 -0.7831
16859TIP3    H272069   2.202   6.172  16.792  0.5965 -0.7683  0.2281
16860TIP3   OH272070   3.493   4.806  13.758 -0.2167  0.2918  0.2407
16860TIP3    H172071   3.537   4.835  13.838 -0.5113  0.1904  0.4413
16860TIP3    H272072   3.563   4.798  13.693 -0.0863  1.1675  0.2618
16861TIP3   OH272073   5.803   2.660   3.225  0.3700  0.0774  0.4880
16861TIP3    H172074   5.806   2.564   3.219 -0.2188  0.1483 -2.4006
16861TIP3    H272075   5.895   2.686   3.216  0.3469 -0.1906 -0.6822
16862TIP3   OH272076   6.501   4.528  12.958  0.0927 -0.1440  0.5407
16862TIP3    H172077   6.551   4.500  12.881 -0.4970  1.6812 -0.5645
16862TIP3    H272078   6.418   4.480  12.952 -0.3842  0.7652 -0.6009
16863TIP3   OH272079   2.154   4.320   4.610  0.5316 -0.4735 -0.0616
16863TIP3    H172080   2.177   4.389   4.672 -3.1120  1.2652 -0.4169
16863TIP3    H272081   2.149   4.364   4.525  1.1553 -1.8832 -0.8643
16864TIP3   OH272082   3.242   3.520   1.880 -0.4254  0.4057  0.1415
16864TIP3    H172083   3.275   3.605   1.850 -0.9328  0.1419 -1.2168
16864TIP3    H272084   3.170   3.499   1.820 -0.8988 -0.5744  1.0119
16865TIP3   OH272085   1.544   4.819  17.167  0.1776 -0.2291  0.3666
16865TIP3    H172086   1.497   4.859  17.094  0.1860  0.0696  0.5254
16865TIP3    H272087   1.618   4.877  17.183 -0.0846 -0.0486  0.9177
16866TIP3   OH272088   5.255   6.139   6.141 -0.7828  0.2742  0.6374
16866TIP3    H172089   5.283   6.120   6.230 -0.9391 -0.6184  0.5051
16866TIP3    H272090   5.268   6.233   6.131 -1.7790  0.5845  1.9696
16867TIP3   OH272091   2.571   2.753   1.124 -0.5300  0.2959  0.0721
16867TIP3    H172092   2.599   2.758   1.033  0.5749 -1.0038  0.3040
16867TIP3    H272093   2.480   2.724   1.120  0.3042 -2.6262 -0.6540
16868TIP3   OH272094   2.306   4.134  15.302 -0.2910 -0.2829 -0.2840
16868TIP3    H172095   2.266   4.117  15.217 -0.7822  1.0296 -0.3311
16868TIP3    H272096   2.237   4.173  15.354  0.3666  0.1082  0.3087
16869TIP3   OH272097   4.211   1.510  12.927 -0.1039  0.1331 -0.1455
16869TIP3    H172098   4.278   1.476  12.987  0.3327 -0.6361 -1.0361
16869TIP3    H272099   4.259   1.526  12.845 -0.3559  2.6208  0.1074
16870TIP3   OH272100   2.304   4.444   1.000 -0.0333 -0.0479 -0.3328
16870TIP3    H172101   2.266   4.521   0.958 -1.3714  0.4669  1.6934
16870TIP3    H272102   2.281   4.453   1.092  0.2754 -2.5951  0.0619
16871TIP3   OH272103   2.154   0.350   0.920  0.0076 -0.3663 -0.0335
16871TIP3    H172104   2.078   0.344   0.863 -0.4224  1.1142  0.3379
16871TIP3    H272105   2.177   0.443   0.920  0.2101 -0.3623  1.9039
16872TIP3   OH272106   3.872   5.332  12.425  0.4293  0.3781  0.1041
16872TIP3    H172107   3.848   5.423  12.409  0.3355  0.4705  0.7233
16872TIP3    H272108   3.952   5.318  12.373  0.4062  0.7940 -0.0435
16873TIP3   OH272109   3.168   4.739   5.379 -0.0049  0.1325  0.5340
16873TIP3    H172110   3.112   4.771   5.308  0.4009  0.3038  0.2908
16873TIP3    H272111   3.108   4.725   5.452 -0.7233 -1.6421 -0.3287
16874TIP3   OH272112   3.075   3.747  12.754  0.1696  0.6015  0.1996
16874TIP3    H172113   3.094   3.746  12.848  1.3129  0.8091 -0.0190
16874TIP3    H272114   3.158   3.723  12.713 -0.1796  1.0387 -0.7826
16875TIP3   OH272115   3.367   3.315   0.228  0.2216 -0.4542 -0.3706
16875TIP3    H172116   3.392   3.235   0.182 -0.8187 -1.2767  0.4241
16875TIP3    H272117   3.433   3.380   0.203  0.7273 -1.3843 -1.5257
16876TIP3   OH272118   2.395   5.177  12.478  0.1566 -0.3287 -0.2880
16876TIP3    H172119   2.488   5.194  12.492  0.2243  0.4895 -1.5882
16876TIP3    H272120   2.384   5.182  12.383 -1.2125 -0.4250 -0.1453
16877TIP3   OH272121   1.876   2.690  11.578  0.2723 -0.3936  0.1140
16877TIP3    H172122   1.802   2.682  11.639 -0.9976  1.6286 -1.0461
16877TIP3    H272123   1.836   2.685  11.491  1.2174  2.3181 -0.5674
16878TIP3   OH272124   2.597   4.732   2.933 -0.3853 -0.2471 -0.0776
16878TIP3    H172125   2.572   4.776   3.014 -0.6172  0.0535 -0.3073
16878TIP3    H272126   2.690   4.751   2.922  0.0081 -1.5245  0.8786
16879TIP3   OH272127   0.069   0.140  13.352 -0.5884 -0.0100 -0.3156
16879TIP3    H172128   0.015   0.108  13.424  1.0263 -1.3496  0.3722
16879TIP3    H272129   0.089   0.231  13.375  0.4294 -0.6002  1.3048
16880TIP3   OH272130   5.281   0.952  15.476 -0.6686 -0.0474 -0.3057
16880TIP3    H172131   5.328   0.874  15.445 -1.7054 -0.6412 -0.4060
16880TIP3    H272132   5.329   1.025  15.438  0.7565 -0.5899  0.3524
16881TIP3   OH272133   3.114   2.452   5.182  0.1013  0.0470 -0.4534
16881TIP3    H172134   3.185   2.504   5.145  0.6811  0.0242  0.6032
16881TIP3    H272135   3.046   2.516   5.202 -0.5382 -0.0210 -2.2011
16882TIP3   OH272136   0.757   6.786   4.120  0.2133 -0.4310 -0.6473
16882TIP3    H172137   0.680   6.840   4.099 -0.1137 -0.2758  0.8099
16882TIP3    H272138   0.738   6.701   4.081 -1.1178 -0.6472  0.3953
16883TIP3   OH272139   0.508   5.735   0.814  0.3087  0.0308 -0.1363
16883TIP3    H172140   0.505   5.700   0.903  1.0250 -2.3448 -0.9894
16883TIP3    H272141   0.574   5.683   0.769  2.6477  3.5434 -1.1692
16884TIP3   OH272142   1.929   3.258   0.231 -0.2388  0.3012 -0.2238
16884TIP3    H172143   2.022   3.282   0.227 -0.7174  2.3807  0.1304
16884TIP3    H272144   1.909   3.226   0.143  0.3731  1.7015 -0.9068
16885TIP3   OH272145   1.480   5.197   0.498 -0.0068 -0.8716 -0.0312
16885TIP3    H172146   1.516   5.115   0.531  1.3897  0.5466  2.3034
16885TIP3    H272147   1.554   5.240   0.454 -0.5177 -0.5468 -0.5884
16886TIP3   OH272148   1.687   4.544  14.554 -0.4968  0.1861 -0.1757
16886TIP3    H172149   1.618   4.484  14.525 -0.5463 -0.0202  0.3596
16886TIP3    H272150   1.728   4.574  14.473 -0.4805 -0.5614 -0.4527
16887TIP3   OH272151   5.643   2.964  13.982 -0.6343  0.5904 -0.4540
16887TIP3    H172152   5.608   2.893  14.037  2.7399 -0.6514  0.3592
16887TIP3    H272153   5.646   3.040  14.040  0.2731  0.0402  0.2440
16888TIP3   OH272154   3.838   3.628   4.572  0.6437  0.6970  0.1337
16888TIP3    H172155   3.774   3.602   4.638  2.2641 -2.6055  0.5796
16888TIP3    H272156   3.789   3.629   4.490 -0.5055  0.7945  0.8053
16889TIP3   OH272157   4.581   1.132  13.108  0.0090  0.0088 -0.0923
16889TIP3    H172158   4.673   1.150  13.090  0.8094 -0.9678  2.6195
16889TIP3    H272159   4.578   1.037  13.123 -1.4462  0.0356 -0.0998
16890TIP3   OH272160   3.022   3.306  11.889 -0.0083  0.1548 -0.0536
16890TIP3    H172161   2.964   3.264  11.952  0.9805 -0.6550  0.3437
16890TIP3    H272162   2.991   3.396  11.884 -1.2962 -0.2649  0.1351
16891TIP3   OH272163   5.111   2.442   4.919 -0.0067 -0.0847  0.3033
16891TIP3    H172164   5.097   2.452   5.014  1.7828  0.5125  0.5459
16891TIP3    H272165   5.207   2.445   4.909 -0.1489 -0.6245 -1.4812
16892TIP3   OH272166   2.579   6.654   4.778 -0.0399 -0.5945 -0.3883
16892TIP3    H172167   2.524   6.649   4.855 -0.4829  1.0892 -0.5519
16892TIP3    H272168   2.597   6.748   4.767  2.4814 -1.0173 -0.6003
16893TIP3   OH272169   4.195   0.359  13.811  0.0423  0.0337  0.0877
16893TIP3    H172170   4.221   0.283  13.863 -1.2068 -0.6581 -0.2615
16893TIP3    H272171   4.149   0.323  13.736 -0.3941  1.1307 -0.1968
16894TIP3   OH272172   2.292   4.144   1.028 -0.0139  0.1299  0.4926
16894TIP3    H172173   2.315   4.222   0.977  1.5629 -1.2324 -1.0440
16894TIP3    H272174   2.347   4.148   1.106  0.1796  0.4952  0.3383
16895TIP3   OH272175   6.186   5.139  16.954 -0.0173 -0.2685 -0.1819
16895TIP3    H172176   6.281   5.142  16.941 -0.0263 -1.9707 -0.9188
16895TIP3    H272177   6.171   5.060  17.006 -0.9302  0.8292  1.2905
16896TIP3   OH272178   3.921   4.214   3.224 -0.5340  0.9647 -0.3701
16896TIP3    H172179   3.916   4.201   3.319 -0.7871 -1.3318 -0.6500
16896TIP3    H272180   4.015   4.226   3.206 -0.4627  1.1768  0.1318
16897TIP3   OH272181   1.622   0.158  11.573 -0.2845  0.0013 -0.1814
16897TIP3    H172182   1.575   0.117  11.502 -0.5525 -0.9155  0.5129
16897TIP3    H272183   1.714   0.136  11.557 -0.3245 -0.0485 -0.3402
16898TIP3   OH272184   4.204   6.545  16.016  0.1072  0.1527  0.5391
16898TIP3    H172185   4.136   6.484  15.987  0.8220 -1.3641  1.8437
16898TIP3    H272186   4.177   6.571  16.104  1.6485 -1.2514  1.4775
16899TIP3   OH272187   0.416   6.600   1.183  0.2739  0.2770  0.6988
16899TIP3    H172188   0.429   6.527   1.244  1.5402  1.6106  2.1104
16899TIP3    H272189   0.502   6.642   1.176 -0.4627  1.7751  0.1194
16900TIP3   OH272190   4.328   1.762   1.824  0.2329  0.6341 -0.3243
16900TIP3    H172191   4.359   1.751   1.914 -0.9220 -0.2634 -0.0178
16900TIP3    H272192   4.319   1.673   1.790 -2.6043  0.7836 -0.1493
16901TIP3   OH272193   4.334   5.786   1.927  0.1895  0.3132 -0.2051
16901TIP3    H172194   4.363   5.807   1.838 -0.1396 -0.2702 -0.4540
16901TIP3    H272195   4.410   5.807   1.981  1.2605 -1.4917 -0.8827
16902TIP3   OH272196   0.164   1.397  16.358 -0.5598  0.1818  0.1503
16902TIP3    H172197   0.172   1.401  16.453 -0.2565 -0.7052  0.1784
16902TIP3    H272198   0.072   1.376  16.342 -0.6623  0.5643  0.2394
16903TIP3   OH272199   3.802   6.760  17.033  0.1939  0.2056 -0.4903
16903TIP3    H172200   3.722   6.762  16.981 -0.2443  0.1367  0.1704
16903TIP3    H272201   3.827   6.667  17.033 -2.0139 -0.5400  2.6867
16904TIP3   OH272202   4.520   5.839  12.854 -0.1402 -0.7239 -0.0184
16904TIP3    H172203   4.425   5.837  12.871 -0.3941  1.8314 -0.7435
16904TIP3    H272204   4.555   5.897  12.921  1.6291 -4.4457  2.6292
16905TIP3   OH272205   4.675   5.347   1.817  0.1317 -1.0284  0.1244
16905TIP3    H172206   4.590   5.357   1.860  0.0718 -0.7219 -0.0688
16905TIP3    H272207   4.721   5.284   1.872 -0.0207 -0.7951  0.5263
16906TIP3   OH272208   2.557   6.291   3.814 -0.3250  0.0705  0.5836
16906TIP3    H172209   2.523   6.340   3.738  2.2497 -0.1985 -0.8381
16906TIP3    H272210   2.491   6.223   3.829 -0.2622 -0.8298 -2.4395
16907TIP3   OH272211   0.885   1.074  16.442 -0.3254 -0.1094  0.5476
16907TIP3    H172212   0.927   1.109  16.521  0.2136 -1.6957  1.0180
16907TIP3    H272213   0.877   0.980  16.460 -0.1774 -0.5047 -1.2981
16908TIP3   OH272214   0.780   3.226  13.929 -0.0285 -0.0380 -0.1517
16908TIP3    H172215   0.869   3.253  13.910  0.6483 -1.1618  1.2223
16908TIP3    H272216   0.745   3.199  13.844  1.0406  0.1144 -0.6601
16909TIP3   OH272217   3.461   4.031  16.401  0.0903 -0.4328 -0.0894
16909TIP3    H172218   3.491   3.954  16.353  1.2926  1.1811 -2.1241
16909TIP3    H272219   3.375   4.007  16.435  0.5167 -2.7083 -0.4861
16910TIP3   OH272220   4.494   0.307   3.060 -0.5041 -0.2963  0.1868
16910TIP3    H172221   4.512   0.247   2.987  0.8266 -0.2741  0.4688
16910TIP3    H272222   4.475   0.391   3.018  0.9133 -0.1202 -0.1359
16911TIP3   OH272223   5.474   5.014  13.422 -0.4021 -0.2697 -0.0314
16911TIP3    H172224   5.391   5.058  13.438  0.2128  0.6368  0.8534
16911TIP3    H272225   5.483   4.951  13.493 -1.7134 -2.6137 -1.8000
16912TIP3   OH272226   5.854   3.741   4.649  0.3240  0.2573 -0.1978
16912TIP3    H172227   5.858   3.747   4.744 -0.1962  0.5792 -0.1899
16912TIP3    H272228   5.792   3.809   4.623  1.5480  1.1436 -0.8864
16913TIP3   OH272229   6.636   4.274  12.502  0.4692 -0.2300 -0.0179
16913TIP3    H172230   6.728   4.260  12.524  0.3089  0.3763  1.0902
16913TIP3    H272231   6.592   4.192  12.528  0.4965 -0.0313  0.6651
16914TIP3   OH272232   1.705   0.851  14.922  0.0081  0.3209 -0.2070
16914TIP3    H172233   1.610   0.849  14.910  0.1777 -0.6833 -1.5776
16914TIP3    H272234   1.716   0.872  15.015 -1.5106  2.1537 -0.3805
16915TIP3   OH272235   0.494   6.623  12.205 -0.0604  0.2380  0.3794
16915TIP3    H172236   0.422   6.686  12.203 -0.2220  0.0828  0.9991
16915TIP3    H272237   0.498   6.594  12.297  1.3962  0.9617  0.5837
16916TIP3   OH272238   4.972   3.983   1.022 -0.0315 -0.2881 -0.7356
16916TIP3    H172239   4.993   3.962   1.112 -1.4365  1.0200 -0.0558
16916TIP3    H272240   5.054   4.019   0.986 -0.3778  2.7412  1.1941
16917TIP3   OH272241   4.765   2.775   1.733  0.3498 -0.3434 -0.8369
16917TIP3    H172242   4.814   2.775   1.815 -0.5361  2.0187 -0.2375
16917TIP3    H272243   4.681   2.816   1.754  0.5722  1.5416 -3.1288
16918TIP3   OH272244   3.131   5.207   0.875  0.0371  0.0868 -0.4292
16918TIP3    H172245   3.204   5.263   0.901  0.7896 -0.6971 -0.7994
16918TIP3    H272246   3.120   5.145   0.947 -0.0219 -0.0309 -0.5381
16919TIP3   OH272247   4.127   2.952   2.637  0.0874 -0.2931  0.8387
16919TIP3    H172248   4.056   2.890   2.651  0.6002 -1.3133 -0.8113
16919TIP3    H272249   4.107   2.994   2.553  0.5279  0.7072  1.2115
16920TIP3   OH272250   4.845   3.415  16.021 -0.0044  0.1688 -0.2145
16920TIP3    H172251   4.791   3.492  16.038  0.7540  0.1681  2.5969
16920TIP3    H272252   4.933   3.450  16.007  1.0393 -0.1304  4.2068
16921TIP3   OH272253   4.861   0.650   6.727 -0.3647 -0.3579  0.3108
16921TIP3    H172254   4.779   0.700   6.730 -0.0829  0.1724 -0.3915
16921TIP3    H272255   4.836   0.567   6.684 -0.0441  0.9284 -2.6399
16922TIP3   OH272256   2.743   5.903  11.847  0.3497 -0.5515  0.7120
16922TIP3    H172257   2.791   5.901  11.763 -0.4978  1.3348  0.1373
16922TIP3    H272258   2.809   5.880  11.912  1.2521 -1.1567 -0.3713
16923TIP3   OH272259   6.471   4.623   0.720 -0.6245 -0.3136  0.4897
16923TIP3    H172260   6.426   4.579   0.648  1.5286  0.7562 -1.6633
16923TIP3    H272261   6.465   4.716   0.699 -1.5774  0.2332  2.7950
16924TIP3   OH272262   3.771   1.358  12.235  0.3696  0.4898 -0.2115
16924TIP3    H172263   3.801   1.267  12.230  0.7454  0.5786  0.4032
16924TIP3    H272264   3.708   1.366  12.163  0.1709 -0.3184 -0.1354
16925TIP3   OH272265   3.852   5.103   2.922 -0.0504 -0.2145  0.1394
16925TIP3    H172266   3.900   5.109   3.004  0.0705  0.2680  0.0378
16925TIP3    H272267   3.906   5.045   2.867 -1.1337 -2.1887  1.0754
16926TIP3   OH272268   3.522   4.716  15.075  0.0883 -0.0099 -0.1274
16926TIP3    H172269   3.465   4.647  15.110 -0.4251  0.6372  0.3543
16926TIP3    H272270   3.539   4.690  14.985  0.9201 -1.4039  0.4011
16927TIP3   OH272271   3.539   3.277  10.857 -0.0699 -0.1669  0.2964
16927TIP3    H172272   3.487   3.308  10.932 -0.3641 -2.0299  0.9181
16927TIP3    H272273   3.618   3.242  10.897 -0.2990 -1.3220 -0.2374
16928TIP3   OH272274   6.046   1.433  13.963 -0.8096  0.0852 -0.8962
16928TIP3    H172275   6.073   1.524  13.974 -0.6620  0.1280 -1.6021
16928TIP3    H272276   5.956   1.431  13.994 -0.1070 -0.0215  1.3161
16929TIP3   OH272277   3.512   6.803  13.573 -0.0596  0.5709 -0.1894
16929TIP3    H172278   3.514   6.806  13.669  1.9082  0.8352 -0.2017
16929TIP3    H272279   3.420   6.786  13.552 -0.7519  1.6000  1.6991
16930TIP3   OH272280   0.769   4.981  10.681 -0.4190 -0.1389 -0.5700
16930TIP3    H172281   0.756   4.987  10.776  0.0207  0.0307 -0.5177
16930TIP3    H272282   0.817   5.060  10.659  0.8961 -0.9485 -0.6789
16931TIP3   OH272283   0.965   5.223   1.441 -0.0700 -0.2518 -0.0458
16931TIP3    H172284   0.941   5.315   1.433 -0.4576 -0.3345  0.1486
16931TIP3    H272285   1.028   5.220   1.514  0.5036 -0.0428 -0.5224
16932TIP3   OH272286   4.600   5.464  13.473  0.1360 -0.1997 -0.3385
16932TIP3    H172287   4.581   5.433  13.561 -0.9782  1.3753  0.0141
16932TIP3    H272288   4.695   5.476  13.472  0.0401  1.0086  1.1115
16933TIP3   OH272289   0.561   5.037  12.131 -0.0967  0.6856 -0.0927
16933TIP3    H172290   0.654   5.015  12.123 -0.3685 -0.7135  0.3410
16933TIP3    H272291   0.536   5.067  12.043  0.0773 -1.8323 -1.0898
16934TIP3   OH272292   2.784   3.061  15.278  0.0521 -0.3742 -0.0530
16934TIP3    H172293   2.821   3.148  15.294  0.4471 -0.3301 -1.1123
16934TIP3    H272294   2.707   3.057  15.335 -1.9641  1.9995 -2.3054
16935TIP3   OH272295   0.101   6.461  14.987  0.0972  0.3878 -0.7095
16935TIP3    H172296   0.138   6.397  15.048  0.9469  0.2216 -1.3799
16935TIP3    H272297   0.033   6.413  14.941 -1.0456  0.7074  0.5621
16936TIP3   OH272298   1.107   4.863  16.723 -0.0597 -0.3552  0.3451
16936TIP3    H172299   1.082   4.954  16.702 -1.2657 -1.3192 -3.1935
16936TIP3    H272300   1.038   4.832  16.781 -0.9294  0.3459 -0.2788
16937TIP3   OH272301   4.989   2.218  12.827 -0.2503 -0.1616  0.2515
16937TIP3    H172302   5.071   2.230  12.875 -0.1763  1.0995 -0.1319
16937TIP3    H272303   4.993   2.285  12.758 -1.6742  0.0379  0.3404
16938TIP3   OH272304   5.979   4.030   2.453 -0.0220 -0.2829  0.0407
16938TIP3    H172305   6.045   4.047   2.521  0.9031  0.7999 -1.0539
16938TIP3    H272306   5.906   3.990   2.499  0.8406 -0.1999  1.5533
16939TIP3   OH272307   5.967   2.780   4.866 -0.5586  0.1785  0.4550
16939TIP3    H172308   6.031   2.738   4.809 -1.5190 -1.0868  0.2529
16939TIP3    H272309   6.013   2.855   4.904  0.5233  0.2399 -0.9083
16940TIP3   OH272310   5.353   1.098   5.579 -0.0211  0.7241 -0.0617
16940TIP3    H172311   5.380   1.012   5.611  0.0858  0.5127 -0.7007
16940TIP3    H272312   5.298   1.134   5.649  0.8776  0.6282  0.7096
16941TIP3   OH272313   6.590   0.359   0.159 -0.1039 -0.1382 -0.3463
16941TIP3    H172314   6.572   0.268   0.137 -2.0207  0.5532 -2.0195
16941TIP3    H272315   6.530   0.378   0.232  0.4269 -0.2539  0.1247
16942TIP3   OH272316   2.432   2.479  11.764  0.2530  0.6649 -0.2699
16942TIP3    H172317   2.359   2.460  11.824  1.1533 -1.3661  0.2757
16942TIP3    H272318   2.510   2.472  11.819  1.1675 -1.9955 -1.7530
16943TIP3   OH272319   2.287   2.940   0.097 -0.0459 -0.5630  0.3408
16943TIP3    H172320   2.231   2.887   0.154  0.2349 -0.9806  0.2351
16943TIP3    H272321   2.375   2.908   0.114 -0.1368 -2.3226 -1.9707
16944TIP3   OH272322   4.853   1.835  13.576  0.3661 -0.0517 -0.3722
16944TIP3    H172323   4.826   1.833  13.484  1.0253  1.7212 -0.6301
16944TIP3    H272324   4.847   1.743  13.604  2.3459 -1.0414 -2.7998
16945TIP3   OH272325   6.330   0.623   6.333 -0.3691  0.2379 -0.0059
16945TIP3    H172326   6.419   0.604   6.364 -0.3445  0.0280 -0.2052
16945TIP3    H272327   6.279   0.547   6.362 -0.3647  0.0845 -0.4026
16946TIP3   OH272328   6.522   5.510   0.298 -0.5287 -0.2275 -0.1335
16946TIP3    H172329   6.608   5.473   0.317 -0.1159  0.4764 -0.5839
16946TIP3    H272330   6.507   5.491   0.206  0.0515  1.4003 -0.5914
16947TIP3   OH272331   5.156   6.038   2.159 -0.5846 -0.3547  0.1545
16947TIP3    H172332   5.111   6.055   2.076  0.3227  1.2676 -0.0512
16947TIP3    H272333   5.238   5.995   2.134  1.5771  3.5407 -0.3214
16948TIP3   OH272334   5.862   6.354  15.688 -0.5505  0.2118 -0.6199
16948TIP3    H172335   5.796   6.323  15.750  0.5409 -1.5199 -0.2468
16948TIP3    H272336   5.898   6.432  15.729  0.9551 -1.5148  1.6046
16949TIP3   OH272337   0.509   6.369   5.405 -0.3639  0.4442  0.8694
16949TIP3    H172338   0.584   6.404   5.357 -0.4224  0.2671  0.6478
16949TIP3    H272339   0.435   6.421   5.376 -0.8524 -1.2347 -1.1101
16950TIP3   OH272340   0.425   0.860  17.162 -0.1389 -0.3219  0.3821
16950TIP3    H172341   0.409   0.859  17.067 -0.8242 -0.6313  0.4931
16950TIP3    H272342   0.420   0.768  17.188  2.0108 -0.4720  0.4204
16951TIP3   OH272343   2.884   4.298   5.103 -0.1265  0.1385 -0.1555
16951TIP3    H172344   2.958   4.359   5.106  0.1859 -0.0997 -1.7910
16951TIP3    H272345   2.808   4.352   5.122  0.1776  1.0237 -1.2716
16952TIP3   OH272346   5.203   2.168   3.970  0.4203 -0.6874 -0.3453
16952TIP3    H172347   5.296   2.147   3.978  0.1996 -2.5664 -1.7391
16952TIP3    H272348   5.184   2.223   4.045  2.6181 -0.3557  0.0525
16953TIP3   OH272349   0.512   4.994   0.941 -0.8886 -0.5696  0.0436
16953TIP3    H172350   0.418   4.989   0.962 -0.8726  0.6104  0.5206
16953TIP3    H272351   0.515   5.040   0.857 -0.7076  0.8063  0.7667
16954TIP3   OH272352   4.256   3.586   4.914  0.3027  0.0188  0.3365
16954TIP3    H172353   4.222   3.582   4.825  0.4656 -0.0615  0.2777
16954TIP3    H272354   4.232   3.501   4.952 -1.2826  0.6842  0.9261
16955TIP3   OH272355   6.798   6.696  10.682 -0.4386  0.0348 -0.4562
16955TIP3    H172356   6.719   6.646  10.703  0.2456 -0.7247  0.4058
16955TIP3    H272357   6.800   6.767  10.746 -0.8115  0.4983 -0.9541
16956TIP3   OH272358   1.481   4.359  14.859  0.1666  0.0357 -0.2582
16956TIP3    H172359   1.536   4.293  14.818  0.4866  1.1168 -1.6414
16956TIP3    H272360   1.531   4.387  14.936  0.8000 -0.1747 -0.5831
16957TIP3   OH272361   3.242   0.892   4.586  0.1739 -0.1225 -0.0021
16957TIP3    H172362   3.239   0.921   4.677  0.8409 -0.0536  0.0072
16957TIP3    H272363   3.297   0.958   4.542 -1.9215  1.1047 -0.9334
16958TIP3   OH272364   0.411   3.247  16.374 -0.4039 -0.0999 -0.3362
16958TIP3    H172365   0.507   3.245  16.374 -0.4186 -0.7628 -0.4209
16958TIP3    H272366   0.388   3.268  16.465 -0.1788  0.4416 -0.3963
16959TIP3   OH272367   5.784   0.611   1.071  0.9449 -0.2714 -0.1412
16959TIP3    H172368   5.690   0.602   1.084  0.9691 -0.3640 -0.0347
16959TIP3    H272369   5.824   0.566   1.146  1.0950 -1.8062 -1.0926
16960TIP3   OH272370   1.742   4.817   4.641 -0.4249  0.1549  0.4325
16960TIP3    H172371   1.766   4.729   4.613 -0.6570  0.5488 -1.0728
16960TIP3    H272372   1.707   4.858   4.563 -1.4045  1.2129  1.3997
16961TIP3   OH272373   5.517   1.060   5.891 -0.6563  0.0498  0.5639
16961TIP3    H172374   5.500   1.154   5.900  0.1384  0.3680 -0.9639
16961TIP3    H272375   5.437   1.025   5.852  0.5392  0.9072 -3.0452
16962TIP3   OH272376   3.052   5.668   0.447 -0.0039  0.1250  0.1962
16962TIP3    H172377   3.136   5.642   0.486 -0.6651 -1.1355  0.8332
16962TIP3    H272378   3.052   5.625   0.361 -0.8787 -1.6884  1.0479
16963TIP3   OH272379   4.096   0.720  17.094 -0.1384  0.1611  0.1961
16963TIP3    H172380   4.062   0.676  17.016  0.7798 -0.5723  0.1865
16963TIP3    H272381   4.135   0.650  17.146  0.0537  0.7665  0.8869
16964TIP3   OH272382   0.750   6.161   0.491 -0.2213  0.1617  0.0610
16964TIP3    H172383   0.793   6.246   0.498 -1.9508  1.2527 -1.5722
16964TIP3    H272384   0.800   6.114   0.424  0.6700 -0.1079  0.8869
16965TIP3   OH272385   5.195   0.619  14.914  0.7984  0.2352 -0.5305
16965TIP3    H172386   5.101   0.629  14.903  0.7413 -0.9990 -1.2801
16965TIP3    H272387   5.205   0.539  14.965  1.4238  0.9215  0.4693
16966TIP3   OH272388   5.713   5.986   3.235  0.3286  0.0157 -1.1608
16966TIP3    H172389   5.709   5.922   3.164 -2.1025  0.7020 -1.7526
16966TIP3    H272390   5.683   5.939   3.312 -1.9978  0.4810 -1.7071
16967TIP3   OH272391   4.809   6.512  12.217 -0.6370 -0.1202  0.0835
16967TIP3    H172392   4.837   6.519  12.308 -1.2614  0.6956  0.2269
16967TIP3    H272393   4.888   6.486  12.169 -0.5986 -1.8250  1.0178
16968TIP3   OH272394   0.424   1.468  14.662  0.3471  0.3378 -0.3578
16968TIP3    H172395   0.480   1.436  14.733  0.1504 -2.0833 -1.1772
16968TIP3    H272396   0.350   1.509  14.706  0.2586 -1.0522  0.8736
16969TIP3   OH272397   0.499   6.080  17.134 -0.5426 -0.1364  0.1115
16969TIP3    H172398   0.447   6.074  17.214  0.4282  3.1607  1.1451
16969TIP3    H272399   0.585   6.046  17.159  0.0955  1.9365  0.8936
16970TIP3   OH272400   1.815   4.486  13.867 -0.5375  0.0037 -0.0005
16970TIP3    H172401   1.837   4.521  13.781  1.5553  2.5039  1.4243
16970TIP3    H272402   1.877   4.414  13.880  0.0058  0.4526 -0.0818
16971TIP3   OH272403   4.234   0.957   3.815 -0.0423  0.3406  0.5024
16971TIP3    H172404   4.186   0.875   3.815  1.9693 -0.9400  2.2869
16971TIP3    H272405   4.226   0.990   3.726 -1.3294 -1.5262 -0.1171
16972TIP3   OH272406   3.190   1.046  10.923 -0.7253 -0.1516  0.1089
16972TIP3    H172407   3.116   0.985  10.920 -0.4706 -0.4358 -2.2613
16972TIP3    H272408   3.202   1.074  10.832  0.9432  1.2831  0.7159
16973TIP3   OH272409   2.391   3.641   4.135  0.1666  0.3300 -0.3517
16973TIP3    H172410   2.306   3.624   4.096  0.6584 -0.0545 -1.2949
16973TIP3    H272411   2.425   3.554   4.158  0.9998  0.3021 -1.5435
16974TIP3   OH272412   5.243   4.695  16.436 -0.0924 -0.2841  0.0491
16974TIP3    H172413   5.262   4.644  16.357 -1.8186  0.1496 -0.6800
16974TIP3    H272414   5.172   4.647  16.478 -0.8049  0.7596  0.0686
16975TIP3   OH272415   2.412   1.043  12.235 -0.7038 -0.3302  0.0711
16975TIP3    H172416   2.475   0.994  12.181  2.1045  3.0439 -0.0473
16975TIP3    H272417   2.440   1.027  12.325 -0.5897  0.0339  0.1009
16976TIP3   OH272418   6.679   6.003  11.984  0.0303 -0.4201 -0.4292
16976TIP3    H172419   6.673   6.057  12.063 -0.3200  0.7256 -1.2216
16976TIP3    H272420   6.620   6.044  11.921  0.0055 -1.5418 -1.1712
16977TIP3   OH272421   5.355   5.884   5.397  0.3295  0.2447  0.1159
16977TIP3    H172422   5.271   5.924   5.376  0.6546  1.0295  0.2580
16977TIP3    H272423   5.373   5.910   5.487 -0.2714 -1.7272  0.8503
16978TIP3   OH272424   0.628   5.765  15.266  0.6984  0.3870  0.4298
16978TIP3    H172425   0.687   5.822  15.217 -0.7930  0.3942 -1.5125
16978TIP3    H272426   0.572   5.825  15.315  1.6833  0.4040  1.5897
16979TIP3   OH272427   5.482   0.153  15.550 -0.0480 -0.0564  0.4175
16979TIP3    H172428   5.447   0.240  15.531 -1.7949 -0.6879  0.4820
16979TIP3    H272429   5.468   0.104  15.469  0.3238 -0.4505  0.5885
16980TIP3   OH272430   4.525   4.493  13.325 -0.5666 -0.3206 -0.0884
16980TIP3    H172431   4.571   4.562  13.278  0.4571  0.3575  1.8234
16980TIP3    H272432   4.504   4.428  13.258 -0.2669  1.1543 -1.6731
16981TIP3   OH272433   1.354   2.160   2.439  0.2328 -0.1152  0.5132
16981TIP3    H172434   1.445   2.175   2.465 -0.2362  0.5283  1.8430
16981TIP3    H272435   1.352   2.067   2.413  1.2356 -0.1666  0.5810
16982TIP3   OH272436   1.303   2.953  14.335 -0.2502 -0.7108 -0.4389
16982TIP3    H172437   1.230   2.990  14.386 -0.1281 -1.1277  0.0473
16982TIP3    H272438   1.282   2.860  14.327  0.5539 -0.9677  0.2786
16983TIP3   OH272439   5.884   5.351   2.616  0.1696 -0.0372 -0.1007
16983TIP3    H172440   5.878   5.446   2.629 -0.7765 -0.0209 -0.6076
16983TIP3    H272441   5.968   5.339   2.571 -0.7805  0.8525 -2.2973
16984TIP3   OH272442   0.702   2.030   4.017 -0.2651 -0.3515  0.7989
16984TIP3    H172443   0.716   2.092   4.089  0.3067  2.9017 -1.8965
16984TIP3    H272444   0.610   2.006   4.023 -0.1559 -0.4589  2.7558
16985TIP3   OH272445   3.325   2.301  14.630  0.4089 -1.3078  0.4355
16985TIP3    H172446   3.247   2.275  14.678 -0.1667 -1.2783 -0.4512
16985TIP3    H272447   3.368   2.366  14.685  0.4499 -2.1992  1.4742
16986TIP3   OH272448   6.279   1.466  12.794 -0.0548  0.5686 -0.0122
16986TIP3    H172449   6.355   1.514  12.827  2.1510 -2.6490  0.0504
16986TIP3    H272450   6.250   1.412  12.868 -1.5400  0.7124 -0.4592
16987TIP3   OH272451   5.009   3.692  15.683  0.0954 -0.1574 -0.0732
16987TIP3    H172452   5.017   3.605  15.645  0.8151 -1.3385  2.5304
16987TIP3    H272453   5.098   3.715  15.710  0.5559  2.8530 -3.3907
16988TIP3   OH272454   3.926   3.317  15.363  0.2653 -0.0027 -0.3360
16988TIP3    H172455   3.862   3.347  15.299  1.6922  0.5890 -1.5327
16988TIP3    H272456   3.997   3.381  15.359 -0.2780  1.0341  3.0531
16989TIP3   OH272457   0.684   3.501   4.467  0.2809  0.2733  0.3716
16989TIP3    H172458   0.678   3.511   4.372 -0.5790 -1.9032  0.1221
16989TIP3    H272459   0.635   3.575   4.502 -0.2796  0.5389 -0.9104
16990TIP3   OH272460   1.563   3.977  11.043  0.0667  0.4504 -0.0294
16990TIP3    H172461   1.523   3.933  10.968  1.3804  1.6995 -1.5416
16990TIP3    H272462   1.550   4.070  11.026  0.2486  0.7629  1.4047
16991TIP3   OH272463   5.366   6.497   4.519 -0.5810 -0.1006  0.0483
16991TIP3    H172464   5.291   6.439   4.510 -0.6569  0.2693 -2.0303
16991TIP3    H272465   5.429   6.446   4.571 -2.1142 -0.4997  1.6156
16992TIP3   OH272466   4.472   1.619  14.869 -0.4277 -0.2415  0.5167
16992TIP3    H172467   4.442   1.597  14.958 -0.1072  0.0958  0.7101
16992TIP3    H272468   4.528   1.545  14.844  0.8427  0.4348  1.2633
16993TIP3   OH272469   0.512   3.727  12.551 -0.2827  0.0425  0.0179
16993TIP3    H172470   0.539   3.763  12.466 -1.4258  0.3777 -0.2326
16993TIP3    H272471   0.481   3.803  12.600  0.0561 -0.1987  0.6159
16994TIP3   OH272472   6.074   2.613  12.280  0.5471 -0.0434 -0.1125
16994TIP3    H172473   6.131   2.661  12.340  1.6324 -1.3645 -0.0244
16994TIP3    H272474   6.104   2.522  12.288 -1.9111 -0.8848  0.3100
16995TIP3   OH272475   6.531   3.415   2.607  0.3386  0.0679  0.2010
16995TIP3    H172476   6.608   3.359   2.614  2.1574  2.3719 -0.0336
16995TIP3    H272477   6.526   3.436   2.514  1.3135  2.2791  0.5782
16996TIP3   OH272478   5.945   6.668  14.745  0.1451 -0.6660 -0.1519
16996TIP3    H172479   5.872   6.710  14.699 -0.2804 -2.2710 -1.0192
16996TIP3    H272480   5.998   6.741  14.777 -0.3613  0.5456 -1.9016
16997TIP3   OH272481   2.321   6.784  13.259  0.0560  0.1258 -0.2264
16997TIP3    H172482   2.362   6.702  13.285  1.1713  0.4570 -0.8492
16997TIP3    H272483   2.364   6.851  13.313  0.7828  0.5424 -1.2758
16998TIP3   OH272484   0.513   2.362   3.958 -0.0267  0.5568 -0.0286
16998TIP3    H172485   0.544   2.381   4.046  1.6246  1.5062 -0.7419
16998TIP3    H272486   0.593   2.366   3.904 -0.9331 -0.3362 -1.5081
16999TIP3   OH272487   0.484   4.254  15.511 -0.0585  0.3031 -0.0288
16999TIP3    H172488   0.415   4.254  15.444 -1.5419 -0.9487  1.4044
16999TIP3    H272489   0.535   4.333  15.493 -0.8207  0.3614 -2.1886
17000TIP3   OH272490   5.391   4.538  12.111  0.1567 -0.2795 -0.6459
17000TIP3    H172491   5.329   4.607  12.089 -1.8100 -1.3180  1.3061
17000TIP3    H272492   5.426   4.563  12.196 -0.0240 -1.3135 -0.2580
17001TIP3   OH272493   0.330   2.390   4.835  0.0053  0.7478 -0.2234
17001TIP3    H172494   0.378   2.359   4.758  1.2452  1.1730  0.3567
17001TIP3    H272495   0.240   2.358   4.822  0.8137 -1.5479 -0.5163
17002TIP3   OH272496   5.880   2.087   2.704 -0.5192 -1.0163  0.0232
17002TIP3    H172497   5.965   2.094   2.746 -0.8474  1.0537  0.4623
17002TIP3    H272498   5.898   2.105   2.611 -0.7212  2.1079  0.4762
17003TIP3   OH272499   6.126   4.979  13.526  0.3492  0.3649  0.0898
17003TIP3    H172500   6.126   4.944  13.437  2.7576  0.9732 -0.2147
17003TIP3    H272501   6.159   5.068  13.517  1.0066  0.3127  1.6220
17004TIP3   OH272502   3.362   2.510  12.774  0.1752  0.0147  0.6305
17004TIP3    H172503   3.342   2.560  12.853  2.0260  0.0198  1.1611
17004TIP3    H272504   3.392   2.574  12.711 -1.5548  0.0406 -0.2147
17005TIP3   OH272505   5.666   6.110  12.822  0.0952 -0.1267 -0.2898
17005TIP3    H172506   5.577   6.144  12.824  0.4039  0.8199 -1.4460
17005TIP3    H272507   5.677   6.078  12.733  1.4041  1.2325 -0.6625
17006TIP3   OH272508   3.135   0.572  15.689 -0.4622 -0.2768 -0.0692
17006TIP3    H172509   3.044   0.545  15.678 -0.4961 -0.3684  0.4160
17006TIP3    H272510   3.142   0.655  15.642 -0.9128 -0.0406  0.2810
17007TIP3   OH272511   0.355   4.688  13.022 -0.5189  0.8583 -0.0322
17007TIP3    H172512   0.348   4.611  13.077  0.5139 -0.6067 -1.8261
17007TIP3    H272513   0.360   4.654  12.933 -0.2459  3.0076 -0.9107
17008TIP3   OH272514   2.280   1.406   4.788  0.2792 -0.1697 -0.2066
17008TIP3    H172515   2.258   1.415   4.695  0.7752  0.7638 -0.2401
17008TIP3    H272516   2.371   1.435   4.795 -0.0940  0.8576  0.7434
17009TIP3   OH272517   0.022   2.791  12.908  0.1768  0.1018 -0.3730
17009TIP3    H172518   0.072   2.871  12.892  1.0874 -0.1420  1.1247
17009TIP3    H272519  -0.013   2.768  12.821 -0.0546  2.0454 -0.8657
17010TIP3   OH272520   4.921   0.614  12.042 -0.2032  0.1352 -0.2247
17010TIP3    H172521   4.944   0.677  11.974  0.9842 -0.8392 -0.7902
17010TIP3    H272522   4.991   0.623  12.108 -1.9736  1.9141  1.5428
17011TIP3   OH272523   3.315   3.314   2.746  0.0046  0.5685  0.4464
17011TIP3    H172524   3.250   3.245   2.759 -0.9807  1.1927 -1.0220
17011TIP3    H272525   3.399   3.268   2.753 -0.5448 -0.2639  2.2183
17012TIP3   OH272526   1.297   2.616   3.933 -0.3356 -0.1136  0.5150
17012TIP3    H172527   1.297   2.522   3.951  0.9327 -0.1379  0.4858
17012TIP3    H272528   1.211   2.633   3.894 -0.9066 -1.0960  1.3081
17013TIP3   OH272529   5.097   3.460   2.151  0.5739  0.0888  0.0599
17013TIP3    H172530   5.142   3.389   2.198  0.8177 -1.0641 -1.8116
17013TIP3    H272531   5.086   3.426   2.062 -0.5524  1.8872 -0.5307
17014TIP3   OH272532   5.699   4.830   5.390  0.2281 -0.2840  0.5358
17014TIP3    H172533   5.768   4.784   5.343 -0.5448 -1.3554  0.4118
17014TIP3    H272534   5.633   4.763   5.408 -0.4413  0.5528  1.3087
17015TIP3   OH272535   1.387   5.351  15.022  0.3230 -0.2301  0.6080
17015TIP3    H172536   1.368   5.445  15.020  0.4462 -0.1761  1.4932
17015TIP3    H272537   1.311   5.310  14.981 -0.8260  0.1109  2.3041
17016TIP3   OH272538   0.541   4.806  10.940 -0.0479 -0.3857  0.6727
17016TIP3    H172539   0.479   4.774  10.874 -0.4530 -0.6314  1.1698
17016TIP3    H272540   0.487   4.826  11.016  0.1708  1.6478  0.3428
17017TIP3   OH272541   2.568   6.622  12.545 -0.6871  0.3283  0.0627
17017TIP3    H172542   2.510   6.645  12.617 -0.9269 -2.3066  0.8194
17017TIP3    H272543   2.537   6.674  12.471 -3.6433 -0.4742  0.5938
17018TIP3   OH272544   4.334   5.377   0.256 -0.1735  0.1752  0.1523
17018TIP3    H172545   4.287   5.332   0.186  0.7073 -1.8532  0.7856
17018TIP3    H272546   4.284   5.457   0.271 -1.2409 -0.0786 -1.7328
17019TIP3   OH272547   4.354   3.199  17.079  0.0529 -0.1360  0.0173
17019TIP3    H172548   4.287   3.232  17.138 -0.0449 -1.1625  0.4909
17019TIP3    H272549   4.319   3.117  17.045  0.1021  0.4220 -1.4883
17020TIP3   OH272550   4.773   2.914  14.643  0.3081  0.7560  0.5400
17020TIP3    H172551   4.839   2.884  14.705  0.1966  1.5501  1.0624
17020TIP3    H272552   4.807   2.999  14.613 -0.4806  1.1814  0.8339
17021TIP3   OH272553   3.920   2.732  16.902 -0.2717  0.1587  0.1815
17021TIP3    H172554   4.003   2.769  16.875 -0.5484 -0.4773 -1.6776
17021TIP3    H272555   3.937   2.638  16.911 -0.5120  0.1847  0.9352
17022TIP3   OH272556   2.061   1.671   3.923 -0.6797 -0.8221 -0.2063
17022TIP3    H172557   1.983   1.640   3.968  0.4330 -1.5610  1.2998
17022TIP3    H272558   2.124   1.600   3.933  0.4989  0.1523 -0.5341
17023TIP3   OH272559   4.101   3.124   2.424 -0.2251 -0.2610 -0.2528
17023TIP3    H172560   4.079   3.088   2.338  0.3808 -1.3258  0.0145
17023TIP3    H272561   4.193   3.150   2.416 -0.4740  0.6459 -0.2427
17024TIP3   OH272562   3.387   4.696  14.285 -0.2254 -0.5581 -0.1576
17024TIP3    H172563   3.321   4.756  14.321  0.5946  0.1532  0.1965
17024TIP3    H272564   3.336   4.627  14.244 -1.2302  0.9494 -1.5856
17025TIP3   OH272565   1.671   4.903  11.950  0.2607 -0.5889  0.0080
17025TIP3    H172566   1.672   4.993  11.918  2.2859 -0.3130  0.6755
17025TIP3    H272567   1.677   4.911  12.045 -1.0078 -1.4369  0.1783
17026TIP3   OH272568   3.327   6.233   1.503 -0.6263  0.1747  0.2823
17026TIP3    H172569   3.309   6.256   1.411 -0.3922 -0.7682 -0.0098
17026TIP3    H272570   3.409   6.184   1.500 -1.1400 -0.7495  0.8609
17027TIP3   OH272571   4.996   3.275  11.004  0.1182 -0.0891  0.2440
17027TIP3    H172572   5.062   3.205  11.001  0.4694  0.2038  0.9527
17027TIP3    H272573   4.975   3.292  10.912  3.0737  1.7350 -0.2315
17028TIP3   OH272574   6.601   5.051  14.240 -0.2066 -0.6245  0.4050
17028TIP3    H172575   6.579   5.011  14.156 -0.0844 -1.6061  0.8179
17028TIP3    H272576   6.693   5.077  14.231 -0.7434  1.1274 -0.4348
17029TIP3   OH272577   2.713   5.676  14.227 -0.4662  0.5022 -0.1455
17029TIP3    H172578   2.721   5.751  14.167 -0.9118 -0.4389 -1.4145
17029TIP3    H272579   2.715   5.599  14.170  0.2294 -0.4780  1.1595
17030TIP3   OH272580   4.616   1.059  16.229 -0.6226 -0.1385  0.6690
17030TIP3    H172581   4.605   0.979  16.281 -1.3724 -0.4238  0.0736
17030TIP3    H272582   4.692   1.102  16.269 -0.5703 -0.8496  1.3689
17031TIP3   OH272583   3.862   3.426  15.978  0.0845 -0.0718  0.1632
17031TIP3    H172584   3.828   3.407  15.891 -0.5907  1.5227  0.0405
17031TIP3    H272585   3.809   3.500  16.009 -0.1611 -1.0231  2.2146
17032TIP3   OH272586   5.716   4.769  11.838  0.2404  0.3895 -0.1737
17032TIP3    H172587   5.806   4.801  11.839  0.1543  0.7542 -1.8836
17032TIP3    H272588   5.709   4.716  11.918  1.9348  0.4234  0.0346
17033TIP3   OH272589   3.680   1.031   2.494 -0.2218  0.8662  0.3014
17033TIP3    H172590   3.614   1.031   2.563 -1.0572  3.5754 -0.3819
17033TIP3    H272591   3.727   1.113   2.506  0.9533  0.4402 -1.1312
17034TIP3   OH272592   1.441   5.963  14.694  0.4843 -0.1762 -0.1618
17034TIP3    H172593   1.531   5.931  14.696  1.5422  2.4864 -1.2801
17034TIP3    H272594   1.426   5.998  14.782  1.3727  1.3495 -0.5845
17035TIP3   OH272595   6.193   4.389   1.620  0.0453 -0.4688  0.6434
17035TIP3    H172596   6.133   4.443   1.672 -0.1930  0.9521 -1.0364
17035TIP3    H272597   6.155   4.301   1.626 -2.4850  0.4164 -0.6106
17036TIP3   OH272598   1.796   2.335  16.806  0.0090  0.5262  0.0975
17036TIP3    H172599   1.853   2.393  16.856 -1.6809  1.4801  1.0016
17036TIP3    H272600   1.856   2.279  16.757  1.7329  0.8178  1.7447
17037TIP3   OH272601   1.020   3.332  14.345 -0.4811 -0.1228 -0.6247
17037TIP3    H172602   0.957   3.295  14.283  0.4606  1.0906 -2.3921
17037TIP3    H272603   1.012   3.427  14.333  1.2561  0.0784 -0.5007
17038TIP3   OH272604   3.994   3.782  16.527  0.3005  0.0123 -0.0799
17038TIP3    H172605   4.032   3.737  16.603 -1.7388 -0.9770  0.4314
17038TIP3    H272606   3.904   3.799  16.552 -0.6837 -1.0525 -2.5358
17039TIP3   OH272607   1.691   4.652   2.787 -0.3791 -0.2495  0.5089
17039TIP3    H172608   1.602   4.676   2.815 -0.8204 -0.2143 -0.8202
17039TIP3    H272609   1.677   4.601   2.707  0.8666  1.8694 -1.1639
17040TIP3   OH272610   5.555   3.361   4.608  0.1939  0.0480 -0.1197
17040TIP3    H172611   5.462   3.338   4.613  0.5156 -1.1806  0.5872
17040TIP3    H272612   5.581   3.377   4.699  0.6205  0.6105 -0.3373
17041TIP3   OH272613   1.833   1.149   0.889 -0.0001 -0.3591  0.5010
17041TIP3    H172614   1.738   1.134   0.892  0.2196 -1.8149  1.2743
17041TIP3    H272615   1.871   1.061   0.890  1.3489  0.1581 -1.2915
17042TIP3   OH272616   0.138   5.359  12.061 -1.2205 -0.6099  0.0767
17042TIP3    H172617   0.136   5.452  12.041 -0.8165 -0.8426 -1.1360
17042TIP3    H272618   0.067   5.321  12.010 -0.7141 -1.1104 -0.2766
17043TIP3   OH272619   4.395   3.129   2.443  0.0709 -0.5128  0.5359
17043TIP3    H172620   4.450   3.196   2.402 -0.0066 -0.3537  0.6898
17043TIP3    H272621   4.414   3.136   2.536 -0.7560  0.0476  0.6708
17044TIP3   OH272622   3.949   3.474  14.169 -0.0592 -0.2517 -0.6146
17044TIP3    H172623   3.871   3.520  14.139 -0.0826 -0.0198 -0.2003
17044TIP3    H272624   4.023   3.529  14.142 -0.1043  0.2282  0.2206
17045TIP3   OH272625   1.696   2.547  12.047  0.6299  0.1719  0.1424
17045TIP3    H172626   1.790   2.551  12.027  0.7292  0.8805  0.7075
17045TIP3    H272627   1.664   2.635  12.029  0.4597  0.4764  1.7338
17046TIP3   OH272628   4.541   2.245  14.615  0.4076 -0.2146  0.0333
17046TIP3    H172629   4.513   2.317  14.672  1.2432 -0.1135  0.3208
17046TIP3    H272630   4.549   2.170  14.674  2.5193  0.1876  0.3189
17047TIP3   OH272631   5.670   3.391   1.715  0.3065 -0.3422  0.2209
17047TIP3    H172632   5.655   3.356   1.627 -1.7157  0.6242  0.1377
17047TIP3    H272633   5.672   3.314   1.772 -0.2743 -0.8400 -0.4281
17048TIP3   OH272634   3.803   1.989  10.916  0.5665  0.6355  0.5704
17048TIP3    H172635   3.773   2.059  10.858  2.2319 -0.3653 -1.6741
17048TIP3    H272636   3.889   1.964  10.880 -1.1168 -4.5367 -0.7622
17049TIP3   OH272637   4.468   5.181   5.618  0.0606  0.2131  0.3274
17049TIP3    H172638   4.403   5.111   5.613 -0.1393  0.2016  2.2060
17049TIP3    H272639   4.449   5.236   5.543  0.8676 -2.2384 -1.8195
17050TIP3   OH272640   5.937   5.315  11.305  0.0146  0.0382 -0.0782
17050TIP3    H172641   5.847   5.284  11.295  0.2281 -0.8002  0.4818
17050TIP3    H272642   5.989   5.260  11.246  0.0555  1.1254 -1.0924
17051TIP3   OH272643   0.446   4.750   1.707  0.9225  0.1354  0.1179
17051TIP3    H172644   0.489   4.689   1.766 -1.0768 -0.0634  1.4892
17051TIP3    H272645   0.490   4.738   1.623  0.5103 -3.4087  0.2426
17052TIP3   OH272646   0.954   5.152  10.422 -0.5639 -0.1900  0.1889
17052TIP3    H172647   0.878   5.146  10.363 -0.2717  0.1559 -0.2265
17052TIP3    H272648   0.921   5.198  10.499 -1.1029 -1.1606  0.5586
17053TIP3   OH272649   4.684   4.555   1.739 -0.2329 -0.0653  0.0463
17053TIP3    H172650   4.702   4.461   1.732 -1.4690 -0.5678  2.5484
17053TIP3    H272651   4.770   4.596   1.726  0.9522 -1.7550  1.8943
17054TIP3   OH272652   0.687   0.349  13.112  0.3368  0.5081 -0.2097
17054TIP3    H172653   0.735   0.269  13.133  0.8928  1.0118  0.4429
17054TIP3    H272654   0.625   0.321  13.044  0.2627 -0.5576  0.2714
17055TIP3   OH272655   3.141   1.536   5.254 -0.3590  0.0520  0.1250
17055TIP3    H172656   3.177   1.623   5.234 -2.4696  1.2270  1.1470
17055TIP3    H272657   3.170   1.518   5.343 -0.7295  0.1518  0.2664
17056TIP3   OH272658   2.159   5.288  13.346  0.5446  0.3560  0.3111
17056TIP3    H172659   2.179   5.295  13.253 -0.0616 -0.3581  0.1229
17056TIP3    H272660   2.066   5.264  13.349  0.6584 -0.0124  1.0887
17057TIP3   OH272661   4.201   3.637  14.115 -0.3699 -0.0329 -0.2625
17057TIP3    H172662   4.286   3.664  14.081 -0.9353  0.6404 -1.2243
17057TIP3    H272663   4.145   3.715  14.104 -1.9695 -1.3696 -2.8183
17058TIP3   OH272664   0.833   6.314   4.369  0.7586 -0.1452 -0.3014
17058TIP3    H172665   0.847   6.405   4.343 -1.1792  0.1391 -0.5366
17058TIP3    H272666   0.750   6.290   4.328  0.9006 -1.8174  0.3002
17059TIP3   OH272667   0.420   4.939  15.470  0.0329  0.3310  0.2512
17059TIP3    H172668   0.423   4.932  15.565  0.0957 -0.6572  0.1861
17059TIP3    H272669   0.430   5.032  15.452  1.2826  0.4060  1.1708
17060TIP3   OH272670   1.286   3.320  16.517 -0.0620  0.4772 -0.0559
17060TIP3    H172671   1.264   3.413  16.520 -0.1463  0.4695 -0.4508
17060TIP3    H272672   1.377   3.318  16.489 -0.0659  0.4383 -0.0662
17061TIP3   OH272673   2.209   5.084   0.863 -0.0296 -0.2262 -0.1598
17061TIP3    H172674   2.305   5.076   0.866 -0.0731 -0.5919  2.2869
17061TIP3    H272675   2.192   5.177   0.880 -0.1194 -0.3801  0.6183
17062TIP3   OH272676   1.662   6.567   0.522  0.4987 -0.1586  0.1087
17062TIP3    H172677   1.708   6.639   0.478 -2.3293  0.6641 -1.7509
17062TIP3    H272678   1.681   6.581   0.615  2.2474  1.3282 -0.3972
17063TIP3   OH272679   3.271   5.883   3.508  0.1811 -0.0366 -0.0379
17063TIP3    H172680   3.206   5.868   3.577 -2.1401  0.5070 -2.0044
17063TIP3    H272681   3.327   5.805   3.511 -1.4948 -1.2694  0.7095
17064TIP3   OH272682   1.496   2.563  12.299 -0.4592 -0.4872  0.5447
17064TIP3    H172683   1.571   2.504  12.303  0.0319  0.0999  0.0899
17064TIP3    H272684   1.453   2.543  12.216  1.0145  1.3291 -0.7271
17065TIP3   OH272685   3.862   3.564   3.748 -0.4888  0.4018  0.2375
17065TIP3    H172686   3.806   3.638   3.727 -1.8582 -0.1618  1.6770
17065TIP3    H272687   3.927   3.562   3.678 -0.0843  3.2384  0.4266
17066TIP3   OH272688   5.329   2.756   0.662  0.4140 -0.6085 -0.5281
17066TIP3    H172689   5.311   2.663   0.673  0.7134 -0.3612  3.3469
17066TIP3    H272690   5.286   2.798   0.736  1.0976  2.2470 -1.6141
17067TIP3   OH272691   0.423   2.789  13.577 -0.1633  0.1083 -0.0298
17067TIP3    H172692   0.497   2.755  13.627 -0.0298  0.1047 -0.2277
17067TIP3    H272693   0.418   2.733  13.500 -0.4362  0.0459  0.0326
17068TIP3   OH272694   3.489   3.020  16.222  1.1938  0.1672 -0.4067
17068TIP3    H172695   3.462   2.973  16.144 -0.1588 -0.2783  0.2999
17068TIP3    H272696   3.454   2.969  16.295  0.6201  1.6664  0.4221
17069TIP3   OH272697   0.202   0.097   5.593  0.1864  0.4832  0.7777
17069TIP3    H172698   0.108   0.107   5.600  0.1578 -0.0011  1.1365
17069TIP3    H272699   0.219   0.096   5.498 -0.3441 -0.9237  0.6761
17070TIP3   OH272700   4.648   5.812   0.355  0.0059  0.7176  0.0647
17070TIP3    H172701   4.619   5.721   0.360  0.0525  0.6944 -0.0891
17070TIP3    H272702   4.735   5.808   0.316  0.9494  0.6419  2.0596
17071TIP3   OH272703   4.284   5.365   0.911 -0.1490 -0.0228 -0.0853
17071TIP3    H172704   4.371   5.379   0.874 -0.3639  0.8019 -0.3118
17071TIP3    H272705   4.276   5.270   0.919 -0.1200 -0.2588 -2.2292
17072TIP3   OH272706   4.067   2.672   4.865 -0.7691  0.0983 -0.7035
17072TIP3    H172707   4.019   2.613   4.923 -0.5090 -1.0979 -1.6718
17072TIP3    H272708   4.146   2.623   4.841 -1.1848  0.2785 -2.5775
17073TIP3   OH272709   2.680   4.481   5.142 -0.5240  0.3603  0.5977
17073TIP3    H172710   2.595   4.467   5.100 -0.0972 -2.1073  0.4148
17073TIP3    H272711   2.667   4.450   5.232  0.7656 -2.6155 -0.1090
17074TIP3   OH272712   5.293   1.766   5.138  0.4338  0.7349 -0.3978
17074TIP3    H172713   5.227   1.797   5.076  0.8932  3.1515  0.2351
17074TIP3    H272714   5.265   1.801   5.222  1.5932  0.2735  0.1968
17075TIP3   OH272715   5.992   0.317  13.130 -0.4950 -0.3232 -0.6061
17075TIP3    H172716   6.000   0.267  13.212  3.2040 -0.9768 -1.1771
17075TIP3    H272717   6.007   0.252  13.062  0.8881  0.9169 -1.5403
17076TIP3   OH272718   3.936   3.447   0.308  0.1591 -0.1274  0.3539
17076TIP3    H172719   4.022   3.480   0.333  0.7567  0.1338 -1.8535
17076TIP3    H272720   3.879   3.523   0.311  0.4556  0.1160 -0.0169
17077TIP3   OH272721   4.243   1.873   3.399  0.2204  0.1202 -0.1975
17077TIP3    H172722   4.249   1.781   3.371  0.7319  0.2126 -0.4103
17077TIP3    H272723   4.327   1.890   3.442 -0.4374  0.0679  1.1499
17078TIP3   OH272724   0.766   0.086   5.382 -0.9360  0.0158  0.2359
17078TIP3    H172725   0.838   0.038   5.421 -1.2738  0.4888  1.4827
17078TIP3    H272726   0.719   0.020   5.330 -0.7121 -0.7384  0.9597
17079TIP3   OH272727   0.633   6.001  14.375 -0.4433  0.3421 -0.7896
17079TIP3    H172728   0.721   6.038  14.373 -0.7880  1.2973 -3.5278
17079TIP3    H272729   0.575   6.076  14.388 -0.9534  0.1671 -1.9138
17080TIP3   OH272730   3.751   5.464   2.255  0.0665 -0.3927 -0.4225
17080TIP3    H172731   3.660   5.457   2.227  0.6617 -0.2991 -2.5248
17080TIP3    H272732   3.797   5.498   2.178  1.7585  0.3075  0.8437
17081TIP3   OH272733   1.323   6.452  13.642  0.2080  0.1747 -0.0920
17081TIP3    H172734   1.249   6.513  13.640 -0.4261 -0.5554  0.6011
17081TIP3    H272735   1.322   6.410  13.557  0.8062  1.2911 -0.6792
17082TIP3   OH272736   5.629   0.660   1.278 -0.1782  0.1283 -0.1713
17082TIP3    H172737   5.604   0.598   1.346  0.9079  1.0342  1.1083
17082TIP3    H272738   5.717   0.689   1.303 -0.5671  2.0137 -0.8207
17083TIP3   OH272739   3.680   5.546  14.580 -0.3822 -0.4990  0.4736
17083TIP3    H172740   3.702   5.456  14.603  0.3408 -0.5438 -0.3511
17083TIP3    H272741   3.716   5.559  14.492 -1.7086  0.1589 -0.0072
17084TIP3   OH272742   2.019   5.328  14.376 -0.3563  0.3041 -0.0876
17084TIP3    H172743   1.928   5.357  14.377 -0.0855  1.4098 -1.9626
17084TIP3    H272744   2.033   5.298  14.286  0.9122 -0.6498  0.3967
17085TIP3   OH272745   2.102   2.335   2.031 -0.3682 -0.1242 -0.4703
17085TIP3    H172746   2.101   2.253   2.080 -1.4787 -0.5534 -1.1622
17085TIP3    H272747   2.047   2.318   1.955  0.5057  0.8398 -1.3492
17086TIP3   OH272748   6.086   6.762  16.822  0.6380 -0.1869  0.0161
17086TIP3    H172749   6.050   6.844  16.790  0.4134  0.3191  1.4904
17086TIP3    H272750   6.131   6.786  16.903  3.7863 -0.8739 -1.3773
17087TIP3   OH272751   1.077   6.760  13.171  0.0677  0.3033 -0.4584
17087TIP3    H172752   1.019   6.788  13.100  1.9254 -0.8070 -2.5299
17087TIP3    H272753   1.143   6.828  13.176 -0.8464  1.1165  1.2846
17088TIP3   OH272754   6.046   6.041   2.581  0.1238  0.3762  0.0680
17088TIP3    H172755   6.052   6.101   2.507  1.6139  1.4622  1.0199
17088TIP3    H272756   6.022   6.096   2.655 -0.2421 -0.5080  0.6267
17089TIP3   OH272757   5.926   3.413  14.579 -0.1954  0.2409 -0.2668
17089TIP3    H172758   5.859   3.356  14.617 -0.3433 -0.0910 -1.0246
17089TIP3    H272759   5.960   3.463  14.654 -0.3916 -0.5000  0.3226
17090TIP3   OH272760   1.668   6.133   5.754  0.0760  0.0769 -0.5084
17090TIP3    H172761   1.672   6.042   5.728  1.1465 -0.5307  1.5213
17090TIP3    H272762   1.575   6.156   5.748 -0.2085 -1.1366 -1.0553
17091TIP3   OH272763   2.876   2.421  13.784 -0.0038  0.7887  0.1737
17091TIP3    H172764   2.862   2.465  13.868 -0.4961  2.0461 -0.5376
17091TIP3    H272765   2.823   2.341  13.790  0.8602  0.2838  1.4675
17092TIP3   OH272766   4.565   4.813   0.691 -1.1270  1.1283 -0.0515
17092TIP3    H172767   4.589   4.903   0.713 -1.3141  0.6628  2.3984
17092TIP3    H272768   4.476   4.803   0.726 -2.5770  0.9635 -3.4272
17093TIP3   OH272769   4.581   1.026  13.798  0.4928  0.0339 -0.3012
17093TIP3    H172770   4.604   1.117  13.814  0.6011 -0.1059  0.3584
17093TIP3    H272771   4.588   1.016  13.703  1.2799  0.4936 -0.2990
17094TIP3   OH272772   4.167   4.855  11.877 -0.4326 -0.4047  0.0794
17094TIP3    H172773   4.079   4.889  11.892 -0.2369 -0.1148  0.5821
17094TIP3    H272774   4.195   4.897  11.795  0.1326  1.3581  1.1171
17095TIP3   OH272775   0.707   3.950   2.297 -0.3194 -0.1121 -0.0326
17095TIP3    H172776   0.656   3.880   2.338 -1.6494  0.3693 -0.8081
17095TIP3    H272777   0.787   3.907   2.266 -0.8799 -1.1803 -0.0255
17096TIP3   OH272778   1.919   5.369  11.451  0.0265 -0.2805  0.1031
17096TIP3    H172779   1.897   5.440  11.512 -3.0531 -1.4221  0.5086
17096TIP3    H272780   1.926   5.412  11.366 -1.1573  0.6509  0.4474
17097TIP3   OH272781   5.022   6.134  12.667  0.2468  0.1931 -0.5381
17097TIP3    H172782   5.090   6.088  12.716 -0.0816 -0.4808 -0.7054
17097TIP3    H272783   5.049   6.128  12.576 -1.5323 -2.8302 -1.0152
17098TIP3   OH272784   5.260   3.117   5.702  0.2605  0.0272  0.0958
17098TIP3    H172785   5.294   3.028   5.710  1.8956  0.6363  0.0940
17098TIP3    H272786   5.335   3.170   5.679 -0.5221  1.5727  0.9489
17099TIP3   OH272787   5.102   6.344  13.172  0.0661  0.3670  0.2894
17099TIP3    H172788   5.154   6.348  13.252  1.4386  1.0510 -0.5916
17099TIP3    H272789   5.167   6.330  13.102 -1.0330  0.3289 -0.7560
17100TIP3   OH272790   0.202   3.575  15.085  0.2462  0.4540  0.7999
17100TIP3    H172791   0.251   3.599  15.164  1.5912  0.4085 -0.0046
17100TIP3    H272792   0.155   3.655  15.061 -0.2970  0.4264  1.7169
17101TIP3   OH272793   3.366   3.287  14.849  0.3189  0.0862  0.1165
17101TIP3    H172794   3.350   3.222  14.781 -2.7001  1.2403 -0.4372
17101TIP3    H272795   3.314   3.257  14.924  1.2321  0.3773  0.8919
17102TIP3   OH272796   4.370   1.050  16.486 -0.5385 -0.4601  0.3006
17102TIP3    H172797   4.367   0.987  16.559 -1.0510 -0.2779  0.4344
17102TIP3    H272798   4.285   1.093  16.488 -0.0445  0.5242  0.4567
17103TIP3   OH272799   0.120   3.436  15.917  0.3510 -0.0837 -0.0035
17103TIP3    H172800   0.057   3.386  15.969 -0.6238  1.2306  0.1199
17103TIP3    H272801   0.205   3.411  15.953 -0.1816 -0.8746  0.7379
17104TIP3   OH272802   5.677   2.693  13.254 -0.2161  0.2854  0.4185
17104TIP3    H172803   5.631   2.656  13.329  0.9536  0.5433  1.2866
17104TIP3    H272804   5.663   2.628  13.184 -2.2227  0.5667  0.4957
17105TIP3   OH272805   4.747   6.131   4.764  0.4798  0.1486  0.0751
17105TIP3    H172806   4.732   6.076   4.841  2.1325 -1.1842 -0.5021
17105TIP3    H272807   4.701   6.088   4.693  2.4594 -1.0495 -0.5613
17106TIP3   OH272808   1.565   3.344   0.022 -0.0833  0.0485  0.3398
17106TIP3    H172809   1.586   3.321  -0.068 -1.9400 -1.0369  0.1238
17106TIP3    H272810   1.566   3.261   0.069  0.5088  0.5552  1.2433
17107TIP3   OH272811   2.726   3.199   5.481  0.1147 -0.1387 -0.0624
17107TIP3    H172812   2.639   3.209   5.519  0.0456 -2.6027  0.5737
17107TIP3    H272813   2.783   3.179   5.555  1.0894  0.5895 -0.5847
17108TIP3   OH272814   6.292   2.608  12.508  0.2291 -0.1918  0.2603
17108TIP3    H172815   6.368   2.639  12.556 -1.2158  0.3983  2.2706
17108TIP3    H272816   6.300   2.512  12.510  0.6137 -0.1506  0.9835
17109TIP3   OH272817   3.419   5.305  12.309 -0.2134 -0.0001  0.6917
17109TIP3    H172818   3.448   5.374  12.369  0.5805  0.7178 -0.4584
17109TIP3    H272819   3.494   5.246  12.302  0.0413  0.4096 -0.2529
17110TIP3   OH272820   5.826   0.846   0.529  0.1910 -0.3343 -0.4427
17110TIP3    H172821   5.794   0.883   0.447  0.8092  1.0419 -0.0842
17110TIP3    H272822   5.753   0.794   0.562 -1.5987  2.3696  0.1433
17111TIP3   OH272823   1.685   3.263  11.541  0.1799 -0.1174 -0.3056
17111TIP3    H172824   1.590   3.272  11.548  0.1524 -0.7765  0.1944
17111TIP3    H272825   1.704   3.174  11.569  1.2672  0.9204  2.7091
17112TIP3   OH272826   3.520   4.645  10.954 -0.4323  0.0921 -0.0945
17112TIP3    H172827   3.514   4.692  11.037  0.5493 -0.0070  0.0416
17112TIP3    H272828   3.598   4.590  10.962 -1.1072 -0.9728 -0.5566
17113TIP3   OH272829   2.824   5.334  13.728  0.2390 -0.4967 -0.0308
17113TIP3    H172830   2.884   5.401  13.762  1.2106 -2.0919  1.6042
17113TIP3    H272831   2.868   5.301  13.649  0.2275  0.1376 -0.3034
17114TIP3   OH272832   4.931   5.268  16.019 -0.3434 -0.5044  0.3346
17114TIP3    H172833   4.977   5.186  16.001 -1.7663 -1.4409  0.7946
17114TIP3    H272834   4.989   5.316  16.078  1.3240 -0.3466 -1.3655
17115TIP3   OH272835   5.206   2.268  14.119  0.0849 -0.4790  0.0136
17115TIP3    H172836   5.272   2.299  14.057  0.2440 -1.3306 -0.2549
17115TIP3    H272837   5.130   2.249  14.064 -0.6079  1.0567  0.3895
17116TIP3   OH272838   6.758   5.833  14.155 -0.1237 -0.7883 -0.1844
17116TIP3    H172839   6.723   5.773  14.089  1.5605 -1.3588 -0.6007
17116TIP3    H272840   6.852   5.816  14.155  0.2234  0.9728  0.5942
17117TIP3   OH272841   3.468   1.286   0.634 -0.2032 -0.1413 -0.3386
17117TIP3    H172842   3.446   1.193   0.628  0.1820 -0.3511  1.1591
17117TIP3    H272843   3.558   1.288   0.666 -0.1500  0.7486 -0.5012
17118TIP3   OH272844   1.812   0.086   4.932 -0.3648 -0.0008 -0.5244
17118TIP3    H172845   1.780   0.137   4.859 -1.0663  0.0753 -0.1698
17118TIP3    H272846   1.766   0.121   5.008 -0.0228 -0.4161 -0.1189
17119TIP3   OH272847   5.594   3.902  10.767  0.2731 -0.3650 -0.1004
17119TIP3    H172848   5.634   3.817  10.788  1.5563  0.4664  0.9278
17119TIP3    H272849   5.666   3.954  10.732 -1.0889 -0.5939 -3.6506
17120TIP3   OH272850   3.685   2.129  14.824 -0.4127  0.1314 -0.5816
17120TIP3    H172851   3.754   2.081  14.778 -0.1953  0.1793 -0.3070
17120TIP3    H272852   3.672   2.079  14.905 -1.4357 -0.4806 -1.1026
17121TIP3   OH272853   2.915   2.672   5.740  0.0811 -0.0234  0.5421
17121TIP3    H172854   2.882   2.588   5.773  0.7855 -0.8503 -0.7951
17121TIP3    H272855   2.851   2.699   5.675  0.4605 -0.1040  0.1367
17122TIP3   OH272856   0.564   2.160   4.410 -0.0288  0.4248 -0.2030
17122TIP3    H172857   0.656   2.186   4.402 -0.1128  0.6125 -0.6199
17122TIP3    H272858   0.558   2.077   4.363 -0.1948  0.7208 -0.7145
17123TIP3   OH272859   1.568   2.507   3.140 -0.0707 -0.6429  0.3872
17123TIP3    H172860   1.531   2.534   3.056 -0.5146 -0.9816  0.4659
17123TIP3    H272861   1.661   2.528   3.134 -0.4462  1.3442  0.6234
17124TIP3   OH272862   3.891   1.838  13.429  0.5463  0.3715  0.4064
17124TIP3    H172863   3.809   1.850  13.381 -0.9302 -1.9313  2.1488
17124TIP3    H272864   3.957   1.821  13.361 -1.0299 -0.7739 -0.8919
17125TIP3   OH272865   6.658   3.690  12.424  0.1112 -0.3095  0.3758
17125TIP3    H172866   6.599   3.753  12.465 -0.7516 -0.8102 -0.0773
17125TIP3    H272867   6.746   3.724  12.442 -0.3022  0.2828  1.3169
17126TIP3   OH272868   3.487   6.226  15.304  0.7024 -0.4481  0.1282
17126TIP3    H172869   3.554   6.263  15.246  0.5914  1.5063  1.1333
17126TIP3    H272870   3.536   6.197  15.381  0.5958 -0.7995  0.0633
17127TIP3   OH272871   1.866   4.238   6.474  0.3847 -0.0640  0.7260
17127TIP3    H172872   1.778   4.247   6.438  0.4270 -0.5263  0.5065
17127TIP3    H272873   1.861   4.163   6.532  0.2670  0.7902  1.8592
17128TIP3   OH272874   1.267   1.709  10.461 -0.4561  0.2499 -0.7301
17128TIP3    H172875   1.312   1.767  10.399  0.5429 -0.6452 -0.8700
17128TIP3    H272876   1.324   1.632  10.467  0.0115  0.7209  2.0508
17129TIP3   OH272877   1.860   5.001   3.146  0.1928  0.0225 -0.1806
17129TIP3    H172878   1.774   5.042   3.155 -0.0614 -0.3956 -0.6991
17129TIP3    H272879   1.867   4.979   3.054  0.6255 -0.4589 -0.0372
17130TIP3   OH272880   3.043   2.057  16.673  0.1842 -0.8195 -0.5989
17130TIP3    H172881   3.069   2.114  16.600  0.1456  0.7138  0.5478
17130TIP3    H272882   3.123   2.010  16.697  0.6831  0.1124 -0.3874
17131TIP3   OH272883   6.595   1.192  17.163  0.0395 -0.0828 -0.0086
17131TIP3    H172884   6.627   1.109  17.200  2.6580  1.0366  0.5137
17131TIP3    H272885   6.500   1.187  17.170  0.2114 -1.2207  4.2874
17132TIP3   OH272886   1.736   0.388   5.975 -0.1619 -0.1996 -0.1494
17132TIP3    H172887   1.725   0.331   6.051  1.7632 -1.3997 -0.6952
17132TIP3    H272888   1.647   0.407   5.945 -0.9681  0.2695  2.3393
17133TIP3   OH272889   1.879   3.820   3.185  0.2022 -0.0711  0.4564
17133TIP3    H172890   1.817   3.783   3.248  0.3433 -1.5202 -0.2256
17133TIP3    H272891   1.837   3.808   3.100  0.2956  1.2896  0.1906
17134TIP3   OH272892   0.738   2.445  16.790  0.5234 -0.5775 -0.1744
17134TIP3    H172893   0.697   2.530  16.810  0.1297 -0.8010 -0.0231
17134TIP3    H272894   0.684   2.409  16.719  1.0011 -0.4697 -0.5953
17135TIP3   OH272895   4.545   6.501  11.755 -0.2037 -0.3846  0.4753
17135TIP3    H172896   4.504   6.416  11.772 -1.4340  0.1649  0.4065
17135TIP3    H272897   4.636   6.491  11.782 -0.4976 -1.5239  1.0725
17136TIP3   OH272898   5.839   0.429  15.187 -0.1759 -0.5614  0.5682
17136TIP3    H172899   5.855   0.519  15.215  2.4512 -0.8618  0.2899
17136TIP3    H272900   5.816   0.436  15.094  1.5056 -0.2489  0.1579
17137TIP3   OH272901   4.141   1.549   0.038 -0.0442 -0.3530 -0.3544
17137TIP3    H172902   4.236   1.536   0.046  0.0896  0.7093 -0.0291
17137TIP3    H272903   4.107   1.522   0.124 -0.0661 -0.9312 -0.5411
17138TIP3   OH272904   4.793   5.154   5.536  0.0019  0.1347 -0.1740
17138TIP3    H172905   4.701   5.174   5.519 -0.1486 -0.7709 -0.4743
17138TIP3    H272906   4.792   5.076   5.591  0.5837  0.5937  0.5134
17139TIP3   OH272907   5.382   3.240  12.091  0.6645  0.7817  0.3773
17139TIP3    H172908   5.402   3.205  12.005  2.0056  0.0671  0.9439
17139TIP3    H272909   5.386   3.335  12.081  1.4596  0.6923 -0.2107
17140TIP3   OH272910   0.849   3.480   6.007  0.2760 -0.8305  0.2214
17140TIP3    H172911   0.817   3.441   6.088 -2.0036 -1.2339 -0.7944
17140TIP3    H272912   0.780   3.541   5.981  0.4704 -1.4301 -1.9035
17141TIP3   OH272913   2.213   6.337   1.227  1.0777 -0.8175  0.4798
17141TIP3    H172914   2.249   6.412   1.182 -1.1454 -0.0348 -0.1302
17141TIP3    H272915   2.180   6.280   1.158 -0.4025 -0.6402  0.9932
17142TIP3   OH272916   5.889   2.867   1.781  0.1895  0.2430 -0.0987
17142TIP3    H172917   5.895   2.842   1.689  1.4183 -1.5843  0.4339
17142TIP3    H272918   5.801   2.902   1.790 -1.4233 -3.1492 -1.1617
17143TIP3   OH272919   0.793   4.127   1.512 -0.1961  0.2135  0.3010
17143TIP3    H172920   0.863   4.062   1.519  1.1543  1.5965 -0.0081
17143TIP3    H272921   0.715   4.081   1.544  0.8661 -1.3031  0.8261
17144TIP3   OH272922   6.651   2.829  16.522 -0.7629  0.0305 -0.2012
17144TIP3    H172923   6.708   2.753  16.519 -1.4923 -0.5438  0.1865
17144TIP3    H272924   6.702   2.896  16.568 -1.1144 -1.1244  2.0004
17145TIP3   OH272925   4.455   5.068   1.277  0.1865  0.2433  0.1913
17145TIP3    H172926   4.515   5.037   1.345  0.4789  1.7802  0.6617
17145TIP3    H272927   4.371   5.078   1.322  0.5653  2.0285  0.5601
17146TIP3   OH272928   6.450   0.557   3.733  0.0704 -0.2170 -0.3045
17146TIP3    H172929   6.361   0.548   3.768  0.4928  0.9902  1.1467
17146TIP3    H272930   6.437   0.593   3.645 -0.8909 -0.4718 -0.2849
17147TIP3   OH272931   2.841   0.401   0.411 -0.5330 -0.3182  0.2867
17147TIP3    H172932   2.898   0.351   0.352 -1.0501 -0.5717 -0.0051
17147TIP3    H272933   2.886   0.400   0.495  1.0310  1.4030 -0.4397
17148TIP3   OH272934   3.100   3.543   3.386 -0.7371  0.6071 -0.1738
17148TIP3    H172935   3.149   3.467   3.418 -1.7309 -0.1327 -0.3829
17148TIP3    H272936   3.042   3.566   3.458 -0.0339  1.5590  0.1152
17149TIP3   OH272937   4.091   2.297  13.569  0.3850  0.0333 -0.1912
17149TIP3    H172938   4.104   2.284  13.475 -1.4484  0.5838 -0.5704
17149TIP3    H272939   4.013   2.245  13.590  0.9860 -0.3846  1.1251
17150TIP3   OH272940   4.670   0.068   0.540  0.5494  0.1188  0.1308
17150TIP3    H172941   4.661  -0.026   0.527  1.1281 -0.1578  1.5298
17150TIP3    H272942   4.711   0.077   0.627 -0.3909  1.6836  0.4627
17151TIP3   OH272943   0.886   2.122   0.273  0.0709 -0.3682  0.0566
17151TIP3    H172944   0.848   2.204   0.306  0.0405 -1.3373  2.6260
17151TIP3    H272945   0.891   2.135   0.178  0.3544  2.7213  0.3847
17152TIP3   OH272946   0.195   5.964   1.041 -0.0634 -0.0805 -0.5292
17152TIP3    H172947   0.263   5.945   0.977  0.4330  2.3912 -0.8564
17152TIP3    H272948   0.221   6.048   1.080 -2.7522  0.8480 -0.4701
17153TIP3   OH272949   4.742   3.591  15.644 -0.4132  0.5506 -0.1838
17153TIP3    H172950   4.817   3.602  15.585 -0.0198  2.1177  0.5474
17153TIP3    H272951   4.758   3.654  15.714 -1.9944  0.3023  0.4277
17154TIP3   OH272952   3.528   0.766  15.556  0.2240  0.0804  0.0539
17154TIP3    H172953   3.543   0.704  15.628 -1.8124 -2.7558 -1.7538
17154TIP3    H272954   3.597   0.748  15.493  1.5152  1.9881  0.8313
17155TIP3   OH272955   6.263   0.337  11.145 -0.1161  0.0808  0.2176
17155TIP3    H172956   6.232   0.249  11.124  1.2611 -0.9269  2.0883
17155TIP3    H272957   6.328   0.356  11.078 -1.2042  0.1827 -0.8513
17156TIP3   OH272958   2.418   0.410  13.041 -0.4020 -0.1960  0.0364
17156TIP3    H172959   2.329   0.388  13.014 -1.0871  1.2703  0.9267
17156TIP3    H272960   2.443   0.483  12.985 -0.0965 -0.0648  0.3359
17157TIP3   OH272961   3.140   2.844   2.087  0.1370 -0.6158  0.1318
17157TIP3    H172962   3.191   2.788   2.030 -1.5770 -0.6805 -1.4410
17157TIP3    H272963   3.158   2.933   2.056  0.0701 -0.5678  0.2305
17158TIP3   OH272964   2.583   2.889   6.679 -0.2200  0.0756 -0.5004
17158TIP3    H172965   2.611   2.978   6.698 -0.6970  0.2497 -0.5914
17158TIP3    H272966   2.658   2.849   6.634  0.6215 -0.0938  0.9745
17159TIP3   OH272967   1.948   5.325  12.901 -0.1455  0.3222 -0.1007
17159TIP3    H172968   1.911   5.353  12.817  2.5340 -0.0372 -1.5101
17159TIP3    H272969   1.992   5.403  12.935 -1.6971  0.6283  1.3212
17160TIP3   OH272970   2.517   5.037  15.868  1.0388 -0.2076  0.2958
17160TIP3    H172971   2.439   5.090  15.880  1.9024  1.1584  0.1239
17160TIP3    H272972   2.525   5.027  15.773  0.3144 -1.5472  0.3605
17161TIP3   OH272973   1.499   6.152  15.909  0.0547 -0.4662 -0.1691
17161TIP3    H172974   1.590   6.152  15.880 -0.2491 -0.7181 -1.1607
17161TIP3    H272975   1.449   6.124  15.832 -0.9226  0.2889  0.1713
17162TIP3   OH272976   5.630   2.273   5.192 -0.2654 -0.1068 -0.1925
17162TIP3    H172977   5.634   2.220   5.272  0.7467 -1.8636 -1.3359
17162TIP3    H272978   5.696   2.341   5.205  0.3749 -0.7903  0.2061
17163TIP3   OH272979   0.212   1.746   0.047 -0.1184 -0.1300 -0.1396
17163TIP3    H172980   0.224   1.658   0.082  1.4206  0.2035  0.2306
17163TIP3    H272981   0.138   1.738  -0.014 -0.6905 -1.4301  0.6894
17164TIP3   OH272982   4.491   3.127   5.397 -0.1365  0.3970  0.0126
17164TIP3    H172983   4.528   3.207   5.434  0.2296  0.9098 -1.4196
17164TIP3    H272984   4.405   3.119   5.438  1.0085 -0.1822  2.5142
17165TIP3   OH272985   1.378   3.725  14.287 -0.3645 -0.5529 -0.4762
17165TIP3    H172986   1.330   3.661  14.340 -0.7856 -0.8560 -1.2154
17165TIP3    H272987   1.461   3.681  14.266 -0.9177 -1.1360 -1.5321
17166TIP3   OH272988   5.008   1.887   5.218 -0.4076 -0.2649 -0.4049
17166TIP3    H172989   4.966   1.968   5.247 -1.0547 -1.1342  1.2669
17166TIP3    H272990   4.935   1.827   5.200  0.0019 -1.6388  2.0525
17167TIP3   OH272991   5.270   2.306   5.690 -0.4501 -0.2805  0.2079
17167TIP3    H172992   5.322   2.237   5.730 -0.3425  0.5048  1.4844
17167TIP3    H272993   5.219   2.343   5.762 -1.8365 -0.1866 -0.7740
17168TIP3   OH272994   2.658   4.213  12.596 -0.4803 -0.0863  0.1039
17168TIP3    H172995   2.698   4.236  12.680 -1.0496 -1.1713  0.6845
17168TIP3    H272996   2.698   4.129  12.573 -2.9514 -1.6270  1.0940
17169TIP3   OH272997   2.347   0.859  13.721  0.2865 -0.3911 -0.3816
17169TIP3    H172998   2.405   0.886  13.651 -0.5569  0.8649 -0.6330
17169TIP3    H272999   2.332   0.766  13.706  1.8633 -0.6429 -0.5544
17170TIP3   OH273000   1.191   2.691  12.603  0.3641  0.1540  0.0934
17170TIP3    H173001   1.129   2.751  12.644 -0.6360  0.1549 -1.3177
17170TIP3    H273002   1.137   2.636  12.546  1.7464  1.0435 -2.2510
17171TIP3   OH273003   4.860   1.093   0.177  0.2208 -0.1351 -0.1123
17171TIP3    H173004   4.895   1.012   0.141 -0.2119  0.0239 -0.9273
17171TIP3    H273005   4.924   1.160   0.151  1.2746 -0.3769  1.6995
17172TIP3   OH273006   0.638   5.394  11.217 -0.7487  0.4732 -0.0766
17172TIP3    H173007   0.723   5.421  11.251  0.5752 -0.7028 -2.2341
17172TIP3    H273008   0.589   5.476  11.209  0.2634  1.2076  0.9711
17173TIP3   OH273009   4.280   0.744   4.831 -0.4029  0.3338 -0.0345
17173TIP3    H173010   4.318   0.692   4.761  0.2494 -0.4287  0.8636
17173TIP3    H273011   4.351   0.756   4.894 -0.1093  3.4611 -0.7913
17174TIP3   OH273012   0.615   2.655  12.417  0.0847  0.1433 -0.0373
17174TIP3    H173013   0.524   2.637  12.394 -0.2722  0.8197  0.7711
17174TIP3    H273014   0.651   2.698  12.340 -0.4344  0.3340 -0.1782
17175TIP3   OH273015   3.884   3.002   4.964  0.1129  0.1552 -0.1279
17175TIP3    H173016   3.851   3.070   5.023  0.0218 -0.1731  0.2075
17175TIP3    H273017   3.979   3.004   4.975  0.2047  1.0172 -0.9984
17176TIP3   OH273018   5.905   2.348  15.574 -0.6312 -0.7675  0.3820
17176TIP3    H173019   5.966   2.275  15.583 -0.3352 -0.4067  1.5255
17176TIP3    H273020   5.960   2.424  15.558 -0.7692 -0.4520  1.3465
17177TIP3   OH273021   4.626   6.194   5.474  0.0388 -0.8822  0.0718
17177TIP3    H173022   4.611   6.182   5.568  1.3417  2.0349  0.7666
17177TIP3    H273023   4.575   6.272   5.452  0.6970 -0.8393 -1.3647
17178TIP3   OH273024   2.450   3.387   6.338 -0.1172 -0.1784 -0.3930
17178TIP3    H173025   2.374   3.407   6.392  1.7328 -0.8438  2.6696
17178TIP3    H273026   2.478   3.300   6.366 -0.1154 -1.4919 -3.8847
17179TIP3   OH273027   1.085   1.523  12.346 -0.4434  0.4976  0.0107
17179TIP3    H173028   1.181   1.521  12.349 -0.3827 -3.0637  1.9208
17179TIP3    H273029   1.062   1.455  12.282 -1.6911  1.0715 -0.1771
17180TIP3   OH273030   4.605   5.243  11.433  0.2745 -0.8815  0.6836
17180TIP3    H173031   4.668   5.177  11.404  0.3748 -0.6693  0.4114
17180TIP3    H273032   4.521   5.197  11.438  0.1670 -0.8237 -0.3751
17181TIP3   OH273033   2.175   6.467  16.944  0.1801  0.1168 -0.2221
17181TIP3    H173034   2.133   6.384  16.919  0.3277  0.0153 -0.1357
17181TIP3    H273035   2.173   6.520  16.864  0.6868 -0.2239 -0.4703
17182TIP3   OH273036   5.170   5.676  12.994  0.0441 -0.5087 -0.2493
17182TIP3    H173037   5.089   5.726  12.983 -0.0193 -0.1709  1.4556
17182TIP3    H273038   5.208   5.672  12.907  0.3769  3.0903 -0.4182
17183TIP3   OH273039   6.158   2.311   1.567  0.3453 -0.3755  0.0947
17183TIP3    H173040   6.079   2.303   1.515 -0.1804  1.7907  0.4362
17183TIP3    H273041   6.214   2.239   1.538 -1.0972 -0.9976 -1.2939
17184TIP3   OH273042   2.195   4.638  10.966 -0.2916  0.1933 -0.0612
17184TIP3    H173043   2.223   4.657  10.877 -0.4088 -0.9006 -0.3492
17184TIP3    H273044   2.190   4.723  11.009 -2.3461  0.9614 -1.6979
17185TIP3   OH273045   5.648   6.239   5.330 -0.0840  0.3161 -0.1896
17185TIP3    H173046   5.713   6.241   5.400 -0.7882 -1.5941  0.5952
17185TIP3    H273047   5.668   6.159   5.281 -2.1693 -0.6910  0.4613
17186TIP3   OH273048   4.840   0.083   0.782  0.0723 -0.4893 -0.2890
17186TIP3    H173049   4.935   0.091   0.776  0.1413  0.9520  1.8947
17186TIP3    H273050   4.824   0.035   0.863 -1.0722  0.9759  0.4106
17187TIP3   OH273051   2.333   1.467  14.699  0.2259 -0.2148  0.0397
17187TIP3    H173052   2.369   1.553  14.722  0.8132 -0.6279  0.7349
17187TIP3    H273053   2.239   1.482  14.690  0.3898  0.6033 -0.3745
17188TIP3   OH273054   1.964   3.295  12.088 -0.2059 -0.1318  0.0994
17188TIP3    H173055   1.994   3.212  12.053 -1.1683 -1.0921  1.4575
17188TIP3    H273056   1.880   3.311  12.045  0.9363  1.2605 -1.7627
17189TIP3   OH273057   2.859   6.682   2.992 -0.3351 -1.0580  0.3022
17189TIP3    H173058   2.915   6.756   2.972  1.3166 -2.3159  0.0749
17189TIP3    H273059   2.807   6.710   3.067  0.1962  0.3407  0.1646
17190TIP3   OH273060   4.433   1.197   4.363  0.4257  0.5255  0.5446
17190TIP3    H173061   4.515   1.199   4.314  0.3802 -1.6748  0.2654
17190TIP3    H273062   4.367   1.170   4.299  0.0030 -0.3703  1.3252
17191TIP3   OH273063   2.935   4.496   3.326 -0.4065 -0.0571 -0.5227
17191TIP3    H173064   2.984   4.451   3.395 -0.0925  0.3079 -0.5035
17191TIP3    H273065   2.861   4.536   3.372 -0.1650  0.2349 -0.3808
17192TIP3   OH273066   3.514   2.055   1.071 -0.3402  0.2993 -0.3341
17192TIP3    H173067   3.542   1.983   1.128 -1.0904  1.0751  1.0676
17192TIP3    H273068   3.473   2.012   0.996 -0.2078 -0.7426  0.1723
17193TIP3   OH273069   2.951   4.380  11.863 -0.4884 -0.4268 -0.0948
17193TIP3    H173070   3.000   4.315  11.811 -0.0554 -1.2307  1.2541
17193TIP3    H273071   3.019   4.426  11.913 -0.9122  0.1145 -0.0164
17194TIP3   OH273072   3.447   4.020   3.763 -0.0610  0.1038 -0.0900
17194TIP3    H173073   3.424   3.952   3.700  0.5497 -0.6954  0.5273
17194TIP3    H273074   3.502   4.081   3.714  0.7957 -0.7570 -0.2061
17195TIP3   OH273075   0.405   0.763  13.236  0.0372 -0.0227  0.6975
17195TIP3    H173076   0.475   0.713  13.277 -0.8822 -1.0751  1.0348
17195TIP3    H273077   0.404   0.846  13.283  1.2160  0.1120  0.5100
17196TIP3   OH273078   1.744   1.888  15.907  0.0952  0.1580 -0.4250
17196TIP3    H173079   1.829   1.884  15.865 -0.4148 -1.0642 -1.4150
17196TIP3    H273080   1.692   1.820  15.863  0.3283 -3.3031  3.9719
17197TIP3   OH273081   4.099   4.639  17.067  0.0677 -0.1232 -0.6432
17197TIP3    H173082   4.150   4.720  17.073  1.4274 -1.0283  1.0891
17197TIP3    H273083   4.159   4.577  17.026 -0.8678 -0.3575 -1.6956
17198TIP3   OH273084   2.463   2.151  15.532  0.2734 -0.0080 -0.0452
17198TIP3    H173085   2.407   2.164  15.455 -1.2960 -0.3325  0.9964
17198TIP3    H273086   2.424   2.207  15.599  1.3453 -0.0821  0.6533
17199TIP3   OH273087   1.602   1.073   5.747 -0.0223  0.0984 -0.2648
17199TIP3    H173088   1.564   1.114   5.825  1.4221 -0.9375  1.0409
17199TIP3    H273089   1.545   0.999   5.728 -0.1405  0.1030  0.0715
17200TIP3   OH273090   0.341   5.367   1.114 -0.7511  0.5983 -0.6265
17200TIP3    H173091   0.419   5.331   1.071  0.5789  2.8126 -0.1752
17200TIP3    H273092   0.301   5.424   1.047 -1.9362 -0.3786 -0.7954
17201TIP3   OH273093   1.027   2.925  12.628 -0.1314 -0.1305 -0.4647
17201TIP3    H173094   0.937   2.906  12.601  0.5944 -0.8942 -2.6210
17201TIP3    H273095   1.026   2.920  12.723 -2.0227 -1.8652 -0.5095
17202TIP3   OH273096   2.034   1.262   3.795 -0.4575 -0.3924 -0.1528
17202TIP3    H173097   2.023   1.333   3.858  2.3999  0.4406 -0.4441
17202TIP3    H273098   2.063   1.187   3.848  0.2861 -0.1973 -0.2840
17203TIP3   OH273099   6.351   2.403   3.625 -0.4604 -0.0086  0.1559
17203TIP3    H173100   6.389   2.437   3.707 -0.8663  0.3335  0.2088
17203TIP3    H273101   6.270   2.361   3.653 -1.2229  1.1721 -0.2006
17204TIP3   OH273102   1.799   1.829   1.055 -0.2693 -0.0986  0.1994
17204TIP3    H173103   1.732   1.891   1.082 -2.7626 -1.9427 -1.2852
17204TIP3    H273104   1.780   1.749   1.106  0.0939 -1.0071 -1.0443
17205TIP3   OH273105   3.733   5.237   3.928 -0.4384 -0.7170 -0.4276
17205TIP3    H173106   3.722   5.284   4.010 -0.6218  2.1055 -1.9148
17205TIP3    H273107   3.646   5.204   3.906 -0.1384 -2.6117  1.0681
17206TIP3   OH273108   5.528   2.114   0.246  0.4124 -0.7073 -0.2392
17206TIP3    H173109   5.446   2.113   0.198  0.1160  0.5537  0.2101
17206TIP3    H273110   5.595   2.093   0.180 -0.1080 -0.1579 -0.9520
17207TIP3   OH273111   5.442   0.098   5.181 -0.3443  0.4418 -0.3103
17207TIP3    H173112   5.386   0.045   5.125 -1.4467  0.9980  0.2200
17207TIP3    H273113   5.424   0.188   5.154  0.6148  0.6188 -0.4000
17208TIP3   OH273114   4.257   5.105  12.102 -0.3327 -0.0626  0.0674
17208TIP3    H173115   4.245   5.018  12.140  2.4134 -0.5704 -0.0268
17208TIP3    H273116   4.351   5.111  12.084 -0.4926  2.7614 -0.3517
17209TIP3   OH273117   0.641   4.550   4.311  0.4311  0.8340  0.5311
17209TIP3    H173118   0.644   4.596   4.227 -1.4146 -1.5489 -0.9614
17209TIP3    H273119   0.713   4.487   4.307 -0.9387 -0.7443 -0.2563
17210TIP3   OH273120   4.651   5.381  14.641  0.0428 -0.5744 -0.1327
17210TIP3    H173121   4.625   5.435  14.566  1.5553 -0.9824 -1.0110
17210TIP3    H273122   4.576   5.383  14.700 -1.7172 -1.2345 -2.2052
17211TIP3   OH273123   2.422   2.416   5.327  0.5038 -0.0861 -0.0845
17211TIP3    H173124   2.476   2.492   5.349 -0.8993  1.0431 -0.4488
17211TIP3    H273125   2.482   2.359   5.278  1.3338  1.2090 -0.6434
17212TIP3   OH273126   1.203   5.621   0.330 -0.1088 -0.6996  0.3512
17212TIP3    H173127   1.244   5.573   0.402  0.7779  0.2813  0.5339
17212TIP3    H273128   1.209   5.713   0.357  1.9087 -0.1265 -1.7628
17213TIP3   OH273129   1.239   1.299  12.682 -0.0342 -0.4406 -0.2958
17213TIP3    H173130   1.148   1.273  12.670  0.4575 -1.7665 -1.4594
17213TIP3    H273131   1.254   1.294  12.776 -2.0701  3.1965  0.4045
17214TIP3   OH273132   4.690   3.562  10.355  0.2731  0.0717 -0.2231
17214TIP3    H173133   4.668   3.638  10.300  2.2012  1.1123  0.3730
17214TIP3    H273134   4.693   3.596  10.444 -0.1893 -1.0372  0.2447
17215TIP3   OH273135   0.108   0.885  17.198 -0.1996  0.1280 -0.4722
17215TIP3    H173136   0.143   0.822  17.260  3.3445  1.6921 -0.6627
17215TIP3    H273137   0.078   0.832  17.124  2.3677 -1.4631 -0.5053
17216TIP3   OH273138   1.125   4.955   1.556  0.3534  0.1512  0.1493
17216TIP3    H173139   1.084   4.921   1.635 -0.7254  1.1125  0.0297
17216TIP3    H273140   1.142   5.048   1.576 -0.6186  0.5974 -0.9796
17217TIP3   OH273141   1.254   6.644   2.315  0.0068  0.0749 -0.4670
17217TIP3    H173142   1.309   6.634   2.393 -2.4378 -1.7080  1.1872
17217TIP3    H273143   1.279   6.570   2.259  1.2446  0.9309 -1.0841
17218TIP3   OH273144   3.992   2.826   2.421  0.0629 -0.1243 -0.0942
17218TIP3    H173145   3.909   2.875   2.419  0.4488  0.5228 -0.9001
17218TIP3    H273146   3.990   2.772   2.342  0.1411 -0.5743  0.2094
17219TIP3   OH273147   6.804   0.065   1.922 -0.0503 -0.0476  0.1125
17219TIP3    H173148   6.710   0.047   1.928 -0.4614  1.4982 -1.2695
17219TIP3    H273149   6.810   0.157   1.897  1.8534 -0.1207  0.1528
17220TIP3   OH273150   6.776   5.659  12.939  0.0232  0.4950 -0.5211
17220TIP3    H173151   6.778   5.726  12.871 -0.9941  0.5539 -0.5102
17220TIP3    H273152   6.756   5.707  13.020  0.7598  0.3649 -0.2550
17221TIP3   OH273153   4.436   6.042   0.392 -0.0242 -0.2772  0.4599
17221TIP3    H173154   4.531   6.031   0.390  0.0489  0.4123 -0.9078
17221TIP3    H273155   4.401   5.958   0.365  0.1755 -0.6423  1.3125
17222TIP3   OH273156   2.370   1.387  12.910  0.1761 -0.2432 -0.0710
17222TIP3    H173157   2.440   1.368  12.972 -0.9492 -1.8646  0.8180
17222TIP3    H273158   2.378   1.319  12.844  0.1498  0.2618 -0.5937
17223TIP3   OH273159   0.896   0.788  16.518  0.1226  0.0148 -0.6090
17223TIP3    H173160   0.971   0.827  16.562 -0.4785 -0.5303  0.9756
17223TIP3    H273161   0.896   0.697  16.548 -1.9868  0.3512  0.6203
17224TIP3   OH273162   4.770   5.258  12.590 -0.5809  0.0613  0.1979
17224TIP3    H173163   4.839   5.193  12.603 -1.1703 -0.8539 -0.9652
17224TIP3    H273164   4.770   5.273  12.495 -1.6807  0.3591  0.2322
17225TIP3   OH273165   5.127   5.986   5.323 -0.0953 -0.0382  0.3772
17225TIP3    H173166   5.061   6.045   5.359 -1.2913 -0.9716 -0.2312
17225TIP3    H273167   5.102   5.974   5.232  0.4508 -1.0462  0.3495
17226TIP3   OH273168   5.122   2.421   5.171 -0.0095  0.1126 -0.7197
17226TIP3    H173169   5.106   2.397   5.263  0.3781 -0.0628 -0.7001
17226TIP3    H273170   5.215   2.406   5.158 -0.0696  0.1197 -1.1528
17227TIP3   OH273171   2.557   2.080   1.980  0.0231  0.2032  0.1870
17227TIP3    H173172   2.579   2.172   1.964 -2.0673  0.8499  0.6377
17227TIP3    H273173   2.588   2.034   1.902  1.2576  1.2534  0.0283
17228TIP3   OH273174   0.277   1.437  15.907  0.3764  0.4898 -0.0169
17228TIP3    H173175   0.354   1.427  15.964 -0.9068  0.3929  1.7779
17228TIP3    H273176   0.209   1.384  15.949 -0.8377  1.0037 -1.2611
17229TIP3   OH273177   1.515   3.906   6.524  0.2031  0.5705  0.3482
17229TIP3    H173178   1.532   3.820   6.563  2.3156  0.1144 -1.4326
17229TIP3    H273179   1.460   3.887   6.448  1.8223  0.5505 -0.8693
17230TIP3   OH273180   3.600   5.846   2.303 -0.5552 -1.0236  0.3038
17230TIP3    H173181   3.669   5.823   2.365 -0.9178 -0.5946  0.8777
17230TIP3    H273182   3.565   5.929   2.335 -0.1401 -0.3193 -0.9970
17231TIP3   OH273183   4.009   5.320  14.323  0.9519  0.0659 -0.0209
17231TIP3    H173184   4.046   5.240  14.362  1.3675  0.8967  1.3489
17231TIP3    H273185   3.932   5.289  14.276 -0.0057 -0.9409  2.0485
17232TIP3   OH273186   4.137   2.477   3.509 -0.3861 -0.0247  0.1212
17232TIP3    H173187   4.100   2.564   3.492 -0.7359 -0.0902  0.5106
17232TIP3    H273188   4.180   2.486   3.594  0.5115  0.0504 -0.3344
17233TIP3   OH273189   4.959   2.449  12.667  0.3572  0.0089 -0.0866
17233TIP3    H173190   4.965   2.532  12.715  2.5167  1.0630 -1.9756
17233TIP3    H273191   4.888   2.462  12.604 -0.9715 -0.5543  1.2383
17234TIP3   OH273192   0.902   6.403  11.736  0.4624 -0.8536  0.2407
17234TIP3    H173193   0.859   6.449  11.664  4.1234  0.4174 -1.3354
17234TIP3    H273194   0.850   6.427  11.813 -1.3587  0.8796 -1.3962
17235TIP3   OH273195   0.098   2.927   1.906  0.1210 -0.3116 -0.5667
17235TIP3    H173196   0.191   2.949   1.900 -0.1588  1.2725  0.3696
17235TIP3    H273197   0.066   2.977   1.981 -1.2766 -1.6516 -0.2027
17236TIP3   OH273198   1.240   3.781  16.840  0.4906 -0.0362  0.2753
17236TIP3    H173199   1.267   3.717  16.906  0.7599  1.2421  1.4581
17236TIP3    H273200   1.149   3.800  16.861  0.4729  0.1122  0.0679
17237TIP3   OH273201   4.916   4.427  16.324  0.0495  0.3183 -0.2814
17237TIP3    H173202   4.995   4.417  16.271  0.4669 -0.7857  0.5079
17237TIP3    H273203   4.944   4.407  16.413 -0.8468  1.1907  0.2142
17238TIP3   OH273204   6.297   5.886   5.030  1.3848 -0.1830  0.2473
17238TIP3    H173205   6.245   5.942   5.087  3.1645  2.0151 -0.1628
17238TIP3    H273206   6.240   5.866   4.956  0.9137  1.6644  0.0869
17239TIP3   OH273207   0.619   3.812   1.225 -0.3154 -0.2105 -0.6857
17239TIP3    H173208   0.649   3.848   1.142 -0.3262 -3.1247 -2.1031
17239TIP3    H273209   0.524   3.802   1.214 -0.5310  0.6294  0.2456
17240TIP3   OH273210   4.197   3.564  14.399 -0.0444  0.1882 -0.9033
17240TIP3    H173211   4.116   3.519  14.376 -0.8803  1.1597  0.0827
17240TIP3    H273212   4.237   3.585  14.314 -1.6930  1.2581 -1.4495
17241TIP3   OH273213   0.208   0.628   0.079 -0.0903  0.4344 -0.0062
17241TIP3    H173214   0.275   0.575   0.036  0.8851  1.5978  0.0180
17241TIP3    H273215   0.137   0.567   0.097 -0.1347 -0.3120 -2.3867
17242TIP3   OH273216   5.678   1.310  16.991 -0.4338  0.4697 -0.4269
17242TIP3    H173217   5.598   1.297  17.041  0.0854 -1.7614 -0.0530
17242TIP3    H273218   5.747   1.272  17.045  1.1188  3.2248 -0.2749
17243TIP3   OH273219   0.653   0.110   5.938 -0.0953 -0.4081  0.2973
17243TIP3    H173220   0.742   0.090   5.908 -0.2320 -0.0511 -0.3652
17243TIP3    H273221   0.644   0.063   6.021  0.6895 -0.4933  0.3378
17244TIP3   OH273222   0.927   6.574  15.033  0.3315 -0.2975 -0.1939
17244TIP3    H173223   0.971   6.658  15.047  2.3424 -0.9099 -2.3020
17244TIP3    H273224   0.884   6.582  14.948 -0.0720 -1.1724 -0.0923
17245TIP3   OH273225   5.885   6.653  10.930 -0.0052 -0.3026  0.0881
17245TIP3    H173226   5.877   6.633  10.837  0.0649  0.9290 -0.2065
17245TIP3    H273227   5.795   6.670  10.958 -0.0891 -1.1840  0.3829
17246TIP3   OH273228   4.010   0.132  14.857  0.0268 -0.0865  0.8679
17246TIP3    H173229   4.085   0.089  14.899  0.4678  0.4540  0.6511
17246TIP3    H273230   4.037   0.144  14.766 -0.2468  0.2778  0.8315
17247TIP3   OH273231   5.813   2.873   2.207  0.2862 -0.3103  0.1591
17247TIP3    H173232   5.825   2.840   2.297  0.8496  0.6248  0.4404
17247TIP3    H273233   5.812   2.795   2.153  1.0155 -0.8267  0.8731
17248TIP3   OH273234   3.220   4.651   4.083  0.2143  0.4700  0.1826
17248TIP3    H173235   3.158   4.677   4.015  0.4937 -0.5884 -0.4972
17248TIP3    H273236   3.306   4.668   4.045  0.3707 -0.0447  0.2972
17249TIP3   OH273237   6.730   4.266   4.483  0.1036  0.1483  0.0063
17249TIP3    H173238   6.663   4.221   4.535  0.5522 -0.6962 -0.1323
17249TIP3    H273239   6.810   4.257   4.534  0.6436 -1.0648 -1.0008
17250TIP3   OH273240   4.418   6.496  16.506 -0.0083 -0.4671  0.8952
17250TIP3    H173241   4.475   6.527  16.436 -0.1713 -1.8453  0.1251
17250TIP3    H273242   4.475   6.444  16.562  0.0771  0.4612  1.7164
17251TIP3   OH273243   0.085   5.638  12.339  0.0185  0.1512 -0.1032
17251TIP3    H173244   0.015   5.587  12.298  1.1963 -2.7638  1.2556
17251TIP3    H273245   0.134   5.575  12.391  2.8321  2.3303  0.1606
17252TIP3   OH273246   4.902   5.708   4.574  0.0280 -0.0180 -0.4155
17252TIP3    H173247   4.863   5.646   4.635  1.1642 -0.2959  0.0455
17252TIP3    H273248   4.902   5.663   4.490 -1.9773  0.5409 -0.7565
17253TIP3   OH273249   2.180   0.426   1.174  0.0570 -0.6211 -0.5574
17253TIP3    H173250   2.091   0.437   1.206 -0.5960 -1.2014 -2.0910
17253TIP3    H273251   2.171   0.377   1.092  1.8391 -1.3411 -0.3769
17254TIP3   OH273252   2.886   1.872  10.456 -0.1916 -0.6867  0.5437
17254TIP3    H173253   2.819   1.847  10.393 -0.9865 -0.8423  1.4386
17254TIP3    H273254   2.839   1.914  10.528  0.8546  0.9066  0.3476
17255TIP3   OH273255   0.944   4.576  10.333 -0.4349 -0.2044  0.2150
17255TIP3    H173256   0.861   4.585  10.285 -0.8664  0.2787  1.0387
17255TIP3    H273257   0.997   4.650  10.303 -0.5460 -0.1389  0.1797
17256TIP3   OH273258   4.115   1.948   5.909  0.0306  0.5680  0.2037
17256TIP3    H173259   4.033   1.974   5.951  0.5112  0.9109  0.9630
17256TIP3    H273260   4.183   1.986   5.965  0.7255 -0.5741  0.1587
17257TIP3   OH273261   2.269   2.873   5.734  0.2851  0.2616 -0.0882
17257TIP3    H173262   2.186   2.907   5.767 -1.0124 -2.0249 -0.7538
17257TIP3    H273263   2.262   2.778   5.744  1.9954 -0.1386 -1.9660
17258TIP3   OH273264   1.166   1.767  15.141 -0.5244  0.1633  0.0705
17258TIP3    H173265   1.198   1.785  15.053  0.1776  1.6141  0.5918
17258TIP3    H273266   1.238   1.721  15.184 -0.9464 -0.7354 -0.1495
17259TIP3   OH273267   2.749   4.264  15.366  0.4608 -0.4248  0.1401
17259TIP3    H173268   2.722   4.272  15.275 -0.5102 -0.9974  0.3588
17259TIP3    H273269   2.811   4.191  15.367 -0.7232 -1.4480  0.1664
17260TIP3   OH273270   4.183   0.257  12.250  0.1790 -0.1235  0.3415
17260TIP3    H173271   4.221   0.169  12.249  1.2144  0.3115 -0.3360
17260TIP3    H273272   4.252   0.313  12.215 -1.1451  0.6826 -1.1280
17261TIP3   OH273273   0.300   5.919   0.786 -0.1441 -0.6836  0.5972
17261TIP3    H173274   0.366   5.852   0.767 -0.8373 -1.0406 -0.6625
17261TIP3    H273275   0.217   5.879   0.759 -0.4620  1.0115 -1.1002
17262TIP3   OH273276   1.766   5.797   2.073 -0.5715 -0.5361  0.3118
17262TIP3    H173277   1.702   5.813   2.142  0.5747 -1.3525  1.6245
17262TIP3    H273278   1.763   5.702   2.058  1.0209 -0.7399  1.1300
17263TIP3   OH273279   3.640   5.606   2.481 -0.0282  0.2125  0.2989
17263TIP3    H173280   3.566   5.585   2.425  0.7515  0.9265 -1.0632
17263TIP3    H273281   3.716   5.569   2.435  0.3563 -1.7761  2.3765
17264TIP3   OH273282   6.252   3.621  12.563 -0.1021 -0.4727 -0.1679
17264TIP3    H173283   6.321   3.674  12.603  1.5766 -1.9991 -0.9582
17264TIP3    H273284   6.291   3.536  12.548 -2.1529 -1.3917 -0.7197
17265TIP3   OH273285   4.284   0.422  15.314  0.7129  0.1742  0.3593
17265TIP3    H173286   4.257   0.346  15.365  1.0497 -0.0129  0.2615
17265TIP3    H273287   4.209   0.441  15.257  0.7115 -0.2192  0.2307
17266TIP3   OH273288   2.069   0.870   1.689 -0.6719  0.1861 -0.0095
17266TIP3    H173289   2.002   0.857   1.622 -1.4986 -0.7737  0.9643
17266TIP3    H273290   2.132   0.931   1.649 -1.7983  0.6280 -1.1621
17267TIP3   OH273291   3.346   2.330  15.730  0.0532 -0.1575 -0.4969
17267TIP3    H173292   3.403   2.257  15.703  1.3576  0.3966  0.6157
17267TIP3    H273293   3.345   2.388  15.654  0.8339 -0.2894 -0.6246
17268TIP3   OH273294   0.766   4.472   1.211 -0.6106 -0.1387 -0.4761
17268TIP3    H173295   0.824   4.453   1.138 -2.5168  0.2936 -2.1992
17268TIP3    H273296   0.680   4.441   1.182 -1.9939  2.5928  0.3763
17269TIP3   OH273297   0.045   6.516  15.516 -0.2330  0.4576 -0.1617
17269TIP3    H173298   0.100   6.577  15.467  0.6679 -1.1295 -1.2253
17269TIP3    H273299   0.026   6.561  15.598  0.4913  2.0957 -0.8498
17270TIP3   OH273300   1.905   4.303   0.690 -0.1455 -0.0312 -0.1254
17270TIP3    H173301   1.952   4.386   0.694  0.2963 -0.2762 -0.2239
17270TIP3    H273302   1.918   4.272   0.600 -0.5482 -0.0693 -0.1729
17271TIP3   OH273303   5.339   4.655   0.479  0.7464  0.5960  0.3712
17271TIP3    H173304   5.408   4.721   0.472 -1.3122  3.1538  2.1512
17271TIP3    H273305   5.259   4.702   0.455 -0.5514 -2.0062 -0.7541
17272TIP3   OH273306   2.734   0.881   3.245 -0.2007  0.4682 -0.0934
17272TIP3    H173307   2.786   0.814   3.290 -1.1305 -1.2580 -1.4267
17272TIP3    H273308   2.780   0.895   3.162 -0.7065  0.4802 -0.3787
17273TIP3   OH273309   0.124   4.298  14.310 -0.1524  0.5524 -0.4687
17273TIP3    H173310   0.150   4.388  14.292  1.2632  0.2302 -0.1899
17273TIP3    H273311   0.171   4.246  14.244 -0.9219  0.0099 -0.6022
17274TIP3   OH273312   6.653   6.752   2.343 -0.0943  0.0490 -0.2076
17274TIP3    H173313   6.561   6.756   2.316  0.2776 -1.9722 -2.0597
17274TIP3    H273314   6.684   6.667   2.310  2.4170  0.6087  0.4848
17275TIP3   OH273315   2.632   2.791   4.395  0.0922  0.3441  0.0369
17275TIP3    H173316   2.605   2.859   4.457  2.5079  1.1229  0.3634
17275TIP3    H273317   2.653   2.838   4.315 -0.9931 -0.4104 -0.7123
17276TIP3   OH273318   5.018   3.475   0.922  0.0903 -0.4991 -0.3802
17276TIP3    H173319   4.944   3.531   0.947  0.9408  1.1075 -1.2440
17276TIP3    H273320   5.007   3.460   0.829  1.0283  0.1135 -0.6146
17277TIP3   OH273321   3.341   0.436  12.525 -0.0081 -0.3293  0.7278
17277TIP3    H173322   3.433   0.461  12.531  0.1785 -0.8260 -0.0141
17277TIP3    H273323   3.294   0.512  12.559  0.5746  0.9222 -1.1156
17278TIP3   OH273324   6.038   0.425  15.702 -0.2171  0.7736  0.0426
17278TIP3    H173325   5.987   0.346  15.687 -1.3320  1.7479 -1.6769
17278TIP3    H273326   6.070   0.417  15.792  0.1486 -1.8430 -0.2492
17279TIP3   OH273327   3.294   2.817   2.729 -0.0210 -0.1168 -0.0573
17279TIP3    H173328   3.276   2.817   2.823 -0.8570  0.3866 -0.2006
17279TIP3    H273329   3.370   2.761   2.719 -0.6594 -1.1735  0.7806
17280TIP3   OH273330   3.174   1.032   6.085  0.6719 -0.0311  0.1769
17280TIP3    H173331   3.082   1.049   6.102  0.3204 -2.6206  1.3531
17280TIP3    H273332   3.211   1.011   6.171  1.7931 -1.3732 -0.5910
17281TIP3   OH273333   4.203   6.702   2.390  0.0904  0.5082  0.6291
17281TIP3    H173334   4.117   6.670   2.416  0.7896 -1.2759  0.8213
17281TIP3    H273335   4.242   6.630   2.342  1.5837  1.1945  0.7700
17282TIP3   OH273336   1.689   5.673   5.505  0.8654 -0.1558 -0.7111
17282TIP3    H173337   1.655   5.612   5.571 -3.7149  1.5253 -1.0986
17282TIP3    H273338   1.685   5.625   5.423 -0.0725 -0.2199 -0.6416
17283TIP3   OH273339   4.374   6.170   5.101  0.5000  0.0191  0.1751
17283TIP3    H173340   4.295   6.183   5.153 -0.9669  0.8722 -2.0751
17283TIP3    H273341   4.373   6.078   5.077 -1.6086  0.5803 -2.3370
17284TIP3   OH273342   2.807   6.077  15.698 -0.1396 -0.2899 -0.5029
17284TIP3    H173343   2.731   6.048  15.750 -0.4704 -0.6793 -1.1792
17284TIP3    H273344   2.769   6.129  15.627  0.3593  0.7859 -0.0026
17285TIP3   OH273345   6.179   1.901   5.652  0.0204 -0.2276 -0.1093
17285TIP3    H173346   6.217   1.920   5.566  2.0021 -0.6328  0.6352
17285TIP3    H273347   6.195   1.980   5.703 -3.1266  0.9275 -0.6423
17286TIP3   OH273348   3.704   6.602   5.366 -0.7315  0.0339 -0.3753
17286TIP3    H173349   3.795   6.631   5.363 -0.0174 -2.0100 -0.0840
17286TIP3    H273350   3.657   6.663   5.310  0.8585  0.9775 -0.7320
17287TIP3   OH273351   5.488   0.841   2.247  0.1414 -0.3311  0.1973
17287TIP3    H173352   5.552   0.805   2.185 -0.0540 -0.2094 -0.0781
17287TIP3    H273353   5.516   0.807   2.332  0.8079  0.0549  0.1381
17288TIP3   OH273354   4.210   6.327   6.417  0.1325 -0.6432  0.3973
17288TIP3    H173355   4.173   6.346   6.331 -0.4085 -1.0269  0.5381
17288TIP3    H273356   4.216   6.411   6.461  2.2435 -0.1446 -0.7120
17289TIP3   OH273357   6.667   1.927  17.030 -0.1442  0.4990  0.2701
17289TIP3    H173358   6.709   2.011  17.014 -1.2392  0.9347 -0.4134
17289TIP3    H273359   6.605   1.944  17.100 -0.9123  0.4577 -0.3844
17290TIP3   OH273360   2.389   2.703   0.346 -0.0322 -0.0805  0.0558
17290TIP3    H173361   2.309   2.681   0.394 -0.7706  0.0938 -1.0559
17290TIP3    H273362   2.383   2.650   0.266 -0.6960  2.3373 -1.5970
17291TIP3   OH273363   2.123   1.707  13.334 -0.3804 -0.4439  0.0949
17291TIP3    H173364   2.213   1.718  13.304 -0.0390 -0.0606  1.2279
17291TIP3    H273365   2.107   1.782  13.391 -0.3245 -2.1084  2.4376
17292TIP3   OH273366   4.175   5.228   2.002  0.3880 -0.3775 -0.0469
17292TIP3    H173367   4.210   5.232   1.913 -0.3602 -0.7989 -0.3669
17292TIP3    H273368   4.087   5.191   1.992 -0.4281  1.2899  0.6641
17293TIP3   OH273369   2.831   5.069   2.507 -0.4593 -0.3582  0.3567
17293TIP3    H173370   2.743   5.035   2.494 -1.2420  0.8065  2.2469
17293TIP3    H273371   2.845   5.065   2.602  1.5861 -0.6190  0.1047
17294TIP3   OH273372   1.391   5.266  16.102  1.2635  0.0205  0.0491
17294TIP3    H173373   1.328   5.319  16.152 -0.9036 -1.0136 -1.4008
17294TIP3    H273374   1.424   5.326  16.035  0.8123  0.2561  0.0281
17295TIP3   OH273375   2.910   1.205   0.360 -0.4145 -0.0312  0.0347
17295TIP3    H173376   2.841   1.140   0.343 -1.6988  1.4113 -0.4593
17295TIP3    H273377   2.907   1.263   0.285  1.1450  0.2755  0.1777
17296TIP3   OH273378   3.942   5.037  11.695 -0.0387 -0.0773 -1.0175
17296TIP3    H173379   3.870   4.979  11.718 -1.3529  1.2137 -1.7008
17296TIP3    H273380   4.000   4.984  11.640 -1.3696 -0.6515 -1.8924
17297TIP3   OH273381   2.062   2.341  14.476  0.5015  0.7102 -0.4813
17297TIP3    H173382   2.013   2.412  14.433  0.4084  2.0949  1.7790
17297TIP3    H273383   2.143   2.335  14.426  0.0540  1.6917 -1.3719
17298TIP3   OH273384   0.474   2.088  15.541  0.3823 -0.8745 -0.9789
17298TIP3    H173385   0.510   2.157  15.486  1.3152  0.1832  0.8362
17298TIP3    H273386   0.541   2.074  15.609 -1.1380 -1.2918  0.5159
17299TIP3   OH273387   2.773   6.290   4.145 -0.5398 -0.2407  0.0919
17299TIP3    H173388   2.784   6.246   4.230 -2.1661  0.6522  0.8037
17299TIP3    H273389   2.688   6.261   4.113 -0.2446 -0.0257 -0.9285
17300TIP3   OH273390   0.885   6.007  14.487 -0.1149  0.1600  0.1636
17300TIP3    H173391   0.901   5.998  14.393 -2.3712 -0.2852 -0.2256
17300TIP3    H273392   0.892   6.101  14.504 -0.2711  0.3078 -0.5586
17301TIP3   OH273393   2.221   3.814  11.423  0.2091 -0.5234 -0.2504
17301TIP3    H173394   2.152   3.873  11.393 -0.2599 -1.1660 -0.4792
17301TIP3    H273395   2.303   3.861  11.406  0.0524 -1.1645 -3.4508
17302TIP3   OH273396   0.199   1.467   0.028  0.2326 -0.0232 -0.0289
17302TIP3    H173397   0.157   1.391   0.068 -3.0749  1.5267 -0.1953
17302TIP3    H273398   0.173   1.463  -0.064 -0.5737  1.6277  0.1031
17303TIP3   OH273399   2.811   4.093  15.844 -0.4090  0.1770 -0.8399
17303TIP3    H173400   2.730   4.126  15.881 -0.3976 -0.1838 -0.4857
17303TIP3    H273401   2.876   4.160  15.864 -0.2025 -0.4189  0.6209
17304TIP3   OH273402   2.492   4.914   3.135 -0.2895 -0.1367 -0.2271
17304TIP3    H173403   2.528   5.000   3.157 -3.2803  1.1126  0.2422
17304TIP3    H273404   2.488   4.868   3.219  2.2877 -1.2857 -0.6113
17305TIP3   OH273405   3.604   3.624   4.042  0.1362 -0.2444  0.3100
17305TIP3    H173406   3.577   3.689   3.978  2.2337  1.3507  0.9268
17305TIP3    H273407   3.532   3.561   4.044 -1.5171  1.4704 -1.0834
17306TIP3   OH273408   1.119   6.437  12.057  0.1496 -0.4070 -0.6247
17306TIP3    H173409   1.159   6.405  11.976  2.4780  0.2864  0.1758
17306TIP3    H273410   1.128   6.364  12.118 -2.0115 -1.0986 -1.0329
17307TIP3   OH273411   5.900   6.270   5.461  0.1683  0.4916 -0.0998
17307TIP3    H173412   5.920   6.222   5.541 -2.7641 -0.6959  0.0495
17307TIP3    H273413   5.920   6.208   5.390  0.3597  0.6081 -0.1482
17308TIP3   OH273414   5.675   0.420  14.419 -0.1980 -0.3545  0.3724
17308TIP3    H173415   5.656   0.352  14.354 -0.2446 -1.1232  1.1790
17308TIP3    H273416   5.706   0.373  14.496  0.2771  0.5764  0.7741
17309TIP3   OH273417   4.264   5.144  13.849 -0.1284 -0.8060 -0.1259
17309TIP3    H173418   4.309   5.142  13.764  0.9698 -0.4527  0.4327
17309TIP3    H273419   4.190   5.085  13.838  0.9587 -2.0854 -0.8103
17310TIP3   OH273420   0.542   4.921   0.091  0.5786 -0.2306 -0.2703
17310TIP3    H173421   0.452   4.928   0.060  0.8165  0.3090 -0.8637
17310TIP3    H273422   0.542   4.843   0.147  0.2328 -1.5666 -2.0326
17311TIP3   OH273423   5.298   4.704   6.288 -0.5873 -0.0672 -0.1209
17311TIP3    H173424   5.309   4.796   6.312 -1.2035 -0.2323  0.8296
17311TIP3    H273425   5.385   4.676   6.259 -0.1435  0.5194  0.6101
17312TIP3   OH273426   1.331   3.112  15.722 -0.0028  0.5210  0.6639
17312TIP3    H173427   1.374   3.198  15.725 -0.1123  0.6004  0.1288
17312TIP3    H273428   1.260   3.119  15.786  0.0593  0.7899  0.7068
17313TIP3   OH273429   0.385   3.359  15.996  0.7659 -0.2484  0.0065
17313TIP3    H173430   0.447   3.362  15.923  2.0836  0.9930  1.1260
17313TIP3    H273431   0.423   3.416  16.063 -1.4180  0.2684  0.8960
17314TIP3   OH273432   5.905   0.248   2.834 -0.4515 -0.5095 -0.0590
17314TIP3    H173433   5.930   0.213   2.919  0.6195  2.1244  0.8024
17314TIP3    H273434   5.931   0.180   2.772  1.1046 -1.4215  1.5026
17315TIP3   OH273435   4.595   4.813   1.739  0.2202  0.8098 -0.0887
17315TIP3    H173436   4.603   4.849   1.828  0.7113  1.0935 -0.2465
17315TIP3    H273437   4.634   4.726   1.745  2.1383  1.5903 -0.4869
17316TIP3   OH273438   1.863   1.672  14.583 -0.5508 -0.2186  0.2885
17316TIP3    H173439   1.876   1.752  14.532  0.8791 -0.3895  0.3658
17316TIP3    H273440   1.803   1.619  14.530 -0.8495  0.5463 -0.1526
17317TIP3   OH273441   4.120   5.336  14.763 -0.1055 -0.0791 -0.2920
17317TIP3    H173442   4.119   5.431  14.751 -0.8607 -0.2829 -2.0929
17317TIP3    H273443   4.037   5.317  14.807  0.4539  0.1620  0.9111
17318TIP3   OH273444   0.368   2.164   0.980 -0.1506  0.2512 -0.2100
17318TIP3    H173445   0.328   2.080   1.001  0.7120  0.0258  0.5576
17318TIP3    H273446   0.316   2.228   1.029 -1.4396  0.2969 -1.5811
17319TIP3   OH273447   1.239   4.208   3.848 -0.0169 -0.4732  0.1925
17319TIP3    H173448   1.304   4.199   3.918  0.7484 -3.9945 -0.7704
17319TIP3    H273449   1.247   4.299   3.819  0.9380  0.5824  3.3691
17320TIP3   OH273450   1.384   1.807  15.888  0.3754 -0.1221 -0.4960
17320TIP3    H173451   1.382   1.763  15.973  0.1300 -0.5813 -0.7307
17320TIP3    H273452   1.363   1.898  15.907  1.9007  0.1169  0.1285
17321TIP3   OH273453   4.121   6.829  12.531  0.0998  0.1612 -0.4873
17321TIP3    H173454   4.212   6.855  12.516  0.5308  0.3825  2.0663
17321TIP3    H273455   4.127   6.737  12.558 -0.3094  0.4503  0.6280
17322TIP3   OH273456   5.872   3.374   0.988 -1.1858 -0.4531 -0.3784
17322TIP3    H173457   5.959   3.336   0.978  0.0747  1.0153  3.4429
17322TIP3    H273458   5.872   3.450   0.930 -0.0149 -0.5964 -0.5930
17323TIP3   OH273459   0.270   6.708   2.628  0.2016 -0.2844 -0.4904
17323TIP3    H173460   0.279   6.750   2.714 -1.1073 -0.5749 -0.1962
17323TIP3    H273461   0.183   6.734   2.597  0.8594  0.2940 -2.0111
17324TIP3   OH273462   3.742   6.842  16.739 -0.5797  0.2779  0.5670
17324TIP3    H173463   3.741   6.821  16.645  0.1928  1.3430  0.3123
17324TIP3    H273464   3.689   6.772  16.778 -0.5866 -0.4156 -0.6046
17325TIP3   OH273465   3.897   6.731  11.934  0.4108  0.1134  0.0197
17325TIP3    H173466   3.928   6.690  11.854  1.1740  0.5953  0.0577
17325TIP3    H273467   3.971   6.783  11.965 -0.9907  2.8924 -0.9335
17326TIP3   OH273468   4.429   3.501  14.812 -0.5820 -0.4666 -0.8717
17326TIP3    H173469   4.340   3.495  14.778 -0.1781 -1.4166 -1.8140
17326TIP3    H273470   4.482   3.449  14.751  0.2092 -2.1556  1.1173
17327TIP3   OH273471   6.476   0.861  11.284  0.2702 -0.3318 -0.0802
17327TIP3    H173472   6.567   0.885  11.300 -0.0847  1.6974 -0.9151
17327TIP3    H273473   6.470   0.850  11.189 -0.3341 -0.6225 -0.0161
17328TIP3   OH273474   2.006   6.598   3.801 -0.0534  0.5442 -0.0750
17328TIP3    H173475   1.957   6.521   3.772  2.8601 -1.3887 -0.2866
17328TIP3    H273476   1.998   6.660   3.729 -1.8662  0.1976 -0.2181
17329TIP3   OH273477   0.319   0.709  15.822  0.8456 -0.3712  0.2096
17329TIP3    H173478   0.353   0.739  15.906  1.5323 -1.3389  0.3060
17329TIP3    H273479   0.231   0.678  15.841  0.7676 -0.0097  0.4418
17330TIP3   OH273480   0.986   2.105   4.622  0.5407 -0.0539  0.3281
17330TIP3    H173481   0.893   2.124   4.637  0.0164 -1.7049 -0.5815
17330TIP3    H273482   1.022   2.092   4.710  0.0341  1.0577  0.7126
17331TIP3   OH273483   6.149   3.219   0.484 -0.1469 -0.5261  0.3085
17331TIP3    H173484   6.180   3.163   0.412 -1.6226 -0.0977 -0.6967
17331TIP3    H273485   6.063   3.248   0.456 -0.1284  0.8703  1.6106
17332TIP3   OH273486   4.697   5.139  15.028  0.1551 -0.3388 -0.1826
17332TIP3    H173487   4.716   5.057  15.073 -0.8334  0.4679  1.8440
17332TIP3    H273488   4.722   5.207  15.091 -0.3717  0.8835 -1.2536
17333TIP3   OH273489   5.815   1.910   2.926  0.0956  0.6311  0.0568
17333TIP3    H173490   5.851   1.939   2.842 -0.6415 -0.7156 -0.7618
17333TIP3    H273491   5.854   1.968   2.991 -1.1623  3.3382 -1.4405
17334TIP3   OH273492   4.018   6.627   4.649 -0.6049  0.2372  0.4053
17334TIP3    H173493   3.943   6.570   4.666 -0.5579 -0.3918 -1.2340
17334TIP3    H273494   3.993   6.675   4.569  0.1656  1.0730  0.6519
17335TIP3   OH273495   2.683   0.486  11.873  0.3346 -0.4735 -0.0843
17335TIP3    H173496   2.779   0.493  11.877  0.2057  2.9896  0.0895
17335TIP3    H273497   2.663   0.479  11.780  0.7394  2.2197 -0.4505
17336TIP3   OH273498   1.119   0.926   2.320  0.4461 -0.3861  0.0503
17336TIP3    H173499   1.059   0.882   2.381  0.7296  2.8809  3.0359
17336TIP3    H273500   1.063   0.987   2.272  0.7882 -0.3877 -0.3548
17337TIP3   OH273501   1.475   3.657  15.112  0.3233 -0.3805 -0.4019
17337TIP3    H173502   1.528   3.736  15.102 -1.3064  0.7827 -0.2891
17337TIP3    H273503   1.449   3.633  15.023 -0.8119  0.4096 -0.3036
17338TIP3   OH273504   0.587   1.989  14.974  0.0931 -0.1038  0.5450
17338TIP3    H173505   0.595   1.923  15.044  1.9964 -1.5565 -0.9218
17338TIP3    H273506   0.665   1.975  14.920 -0.9731  1.4154 -1.5065
17339TIP3   OH273507   0.758   1.681  13.541 -0.1869 -0.6128  0.0355
17339TIP3    H173508   0.817   1.746  13.578 -1.1826  0.6320 -0.5112
17339TIP3    H273509   0.700   1.657  13.613  0.9921 -1.8954  0.5940
17340TIP3   OH273510   1.429   2.448   1.936  0.3689 -0.5905 -0.1479
17340TIP3    H173511   1.455   2.417   2.023 -0.7763  0.2039  0.5076
17340TIP3    H273512   1.503   2.426   1.880  2.0089  0.5903  1.4008
17341TIP3   OH273513   2.638   1.171  13.358  0.1736 -0.0680  0.3515
17341TIP3    H173514   2.650   1.161  13.264 -0.2082 -2.0363  0.4829
17341TIP3    H273515   2.725   1.193  13.392  0.0439  2.1284 -0.5838
17342TIP3   OH273516   2.707   0.481  15.925 -0.3065  0.0177  0.0911
17342TIP3    H173517   2.750   0.539  15.863 -0.1320 -0.1027  0.0988
17342TIP3    H273518   2.654   0.422  15.871 -1.8256  1.2479  0.1631
17343TIP3   OH273519   3.205   0.521   5.025  0.0898 -0.4045 -0.2448
17343TIP3    H173520   3.127   0.471   5.003 -0.1515  0.6060 -1.8005
17343TIP3    H273521   3.241   0.549   4.941  0.1967  2.0232  0.5113
17344TIP3   OH273522   2.923   2.264  14.318  0.0660  0.2107 -0.4056
17344TIP3    H173523   2.997   2.316  14.350  0.4178 -0.2062 -0.5226
17344TIP3    H273524   2.943   2.174  14.346 -1.3607  0.3714  1.2804
17345TIP3   OH273525   2.720   2.748  15.235  0.3095 -0.0410  0.1477
17345TIP3    H173526   2.643   2.785  15.192  0.0588 -0.7297 -0.0226
17345TIP3    H273527   2.757   2.820  15.285  1.2947  1.1415 -2.1297
17346TIP3   OH273528   4.082   2.092  10.950 -0.1280  0.2308 -0.4141
17346TIP3    H173529   4.072   2.171  10.897  1.8171 -0.3094 -1.6991
17346TIP3    H273530   4.177   2.078  10.954 -0.3359 -0.9899  1.4075
17347TIP3   OH273531   1.116   3.130  15.078  0.3293  0.0209 -0.1939
17347TIP3    H173532   1.164   3.209  15.101  1.8160 -0.8009 -0.3492
17347TIP3    H273533   1.025   3.150  15.099  0.2623  2.6119 -2.3502
17348TIP3   OH273534   0.880   5.077  11.355 -0.2105 -0.7334 -0.2449
17348TIP3    H173535   0.829   5.000  11.331 -0.6256 -0.5437 -0.0030
17348TIP3    H273536   0.932   5.098  11.277 -1.3641 -0.2600 -0.9135
17349TIP3   OH273537   6.189   0.908  16.527  0.5718 -0.1234  0.1677
17349TIP3    H173538   6.184   0.915  16.432  0.4092 -0.2698  0.1653
17349TIP3    H273539   6.146   0.987  16.560  0.1726 -0.3198  0.1244
17350TIP3   OH273540   1.011   0.379  11.923 -0.2768 -0.3304  0.2267
17350TIP3    H173541   0.998   0.373  11.828  2.9820  1.7458 -0.4871
17350TIP3    H273542   1.093   0.333  11.939  1.8956  3.4408  1.1259
17351TIP3   OH273543   4.114   5.616  14.790  0.4566 -0.0184 -0.1339
17351TIP3    H173544   4.149   5.652  14.709  0.3646  1.1876  0.3348
17351TIP3    H273545   4.022   5.641  14.789  0.5214  0.2530  0.4691
17352TIP3   OH273546   2.952   3.100   0.682 -0.3043 -0.2855  0.0578
17352TIP3    H173547   3.047   3.086   0.676 -0.1291  0.8239  0.0243
17352TIP3    H273548   2.940   3.153   0.760 -0.6854  1.1687 -0.9417
17353TIP3   OH273549   5.633   0.315   1.087 -0.4253 -0.3774 -0.0133
17353TIP3    H173550   5.581   0.372   1.030  0.1781 -0.5041 -0.6969
17353TIP3    H273551   5.707   0.288   1.033  0.4449 -0.0686  1.0014
17354TIP3   OH273552   2.170   6.287  15.383 -0.1761  0.1048 -0.9701
17354TIP3    H173553   2.213   6.341  15.317  1.5757 -2.1806 -1.8080
17354TIP3    H273554   2.223   6.299  15.462 -0.7856  0.8564 -0.6552
17355TIP3   OH273555   3.996   4.699  16.802  0.1221 -0.3515 -0.4681
17355TIP3    H173556   3.907   4.669  16.815  0.4355 -1.3581 -0.5572
17355TIP3    H273557   4.041   4.679  16.884  0.4587 -0.5776 -0.7064
17356TIP3   OH273558   2.734   1.224  10.533 -0.2261 -0.0956  0.3479
17356TIP3    H173559   2.759   1.132  10.520 -0.0779 -0.4913  2.9939
17356TIP3    H273560   2.666   1.221  10.600 -0.6113  1.7112  0.0769
17357TIP3   OH273561   1.791   5.313  17.046 -0.3124 -0.1030 -0.0495
17357TIP3    H173562   1.742   5.373  16.989  1.0081  1.1596  0.0879
17357TIP3    H273563   1.792   5.230  16.998 -1.5376  0.1700 -0.5982
17358TIP3   OH273564   3.042   3.965   2.497 -0.0463 -0.2997  0.5190
17358TIP3    H173565   3.134   3.969   2.523 -0.0378 -0.1689  0.4696
17358TIP3    H273566   3.028   3.873   2.473 -0.0416 -0.4139  0.9372
17359TIP3   OH273567   5.353   2.717   3.023 -0.8758 -0.5057 -0.5222
17359TIP3    H173568   5.259   2.704   3.031 -1.1742  1.3125 -0.5254
17359TIP3    H273569   5.378   2.764   3.103 -0.5219  1.4363 -1.6876
17360TIP3   OH273570   4.352   2.411   3.357 -0.3722  0.0358  0.4540
17360TIP3    H173571   4.326   2.379   3.270 -1.0787 -0.6767  0.9097
17360TIP3    H273572   4.274   2.402   3.410  0.4471 -0.9902  1.5547
17361TIP3   OH273573   1.646   1.522  13.339  0.1407 -0.0319  0.2652
17361TIP3    H173574   1.707   1.595  13.326  0.1834 -0.2306 -0.7578
17361TIP3    H273575   1.574   1.540  13.279  0.4893 -1.1715 -0.5373
17362TIP3   OH273576   1.494   6.195   4.928 -0.4285 -0.0398 -0.4413
17362TIP3    H173577   1.459   6.276   4.889 -1.7297  0.6713  1.9824
17362TIP3    H273578   1.581   6.219   4.958 -0.3599  0.1030 -0.7443
17363TIP3   OH273579   4.928   6.548   1.791  0.1834 -0.1246 -0.2201
17363TIP3    H173580   5.010   6.505   1.767  0.9259  0.0085  1.8667
17363TIP3    H273581   4.921   6.621   1.730  2.3756  0.6993  0.4119
17364TIP3   OH273582   4.910   3.623   0.026  0.3413  0.5948 -0.2097
17364TIP3    H173583   4.934   3.690   0.090 -1.7695 -0.5514  1.9361
17364TIP3    H273584   4.817   3.606   0.042 -0.4637  0.5563 -3.9825
17365TIP3   OH273585   4.873   5.178   0.702  0.7646  0.3086  0.7936
17365TIP3    H173586   4.827   5.191   0.619 -0.1993  2.2851  1.5890
17365TIP3    H273587   4.831   5.101   0.740  1.1650 -0.5799 -0.4579
17366TIP3   OH273588   2.446   0.652  16.492  0.2882  0.1811  0.3494
17366TIP3    H173589   2.421   0.666  16.401 -1.0627  2.1199  0.9606
17366TIP3    H273590   2.528   0.700  16.502 -0.5684  1.6505  0.5990
17367TIP3   OH273591   5.080   0.645  15.762 -0.1858  0.2705  0.2311
17367TIP3    H173592   4.998   0.694  15.756  0.0725  0.8720  1.3114
17367TIP3    H273593   5.054   0.553  15.761 -0.9538  0.4583  1.5435
17368TIP3   OH273594   4.381   4.095   2.479  0.1215 -0.1093 -0.1952
17368TIP3    H173595   4.476   4.094   2.473  0.0539 -0.9666 -1.6409
17368TIP3    H273596   4.361   4.058   2.565  1.0832  0.2865  0.2049
17369TIP3   OH273597   0.207   1.325   1.672  0.6382  0.4573  0.7239
17369TIP3    H173598   0.148   1.251   1.690  1.3386 -0.9810 -2.2339
17369TIP3    H273599   0.152   1.402   1.682 -1.9392 -0.8217 -2.0458
17370TIP3   OH273600   2.938   4.008  16.398  0.1646 -0.1345 -0.3515
17370TIP3    H173601   3.031   4.012  16.423 -0.0505  2.7468  0.3515
17370TIP3    H273602   2.935   4.048  16.311 -0.5472  1.2545  0.2756
17371TIP3   OH273603   5.112   4.271  11.112  0.0742 -0.1337  0.2049
17371TIP3    H173604   5.053   4.346  11.103 -0.9060 -0.8649  0.3998
17371TIP3    H273605   5.086   4.211  11.042 -0.7916 -1.3559  1.5259
17372TIP3   OH273606   4.733   3.014  11.683  0.0067  0.3304 -0.2552
17372TIP3    H173607   4.753   2.921  11.682 -1.0560  0.0599 -2.3957
17372TIP3    H273608   4.770   3.047  11.601  1.7870  2.1704  1.1912
17373TIP3   OH273609   4.911   2.808   2.834 -0.1937  0.4952 -0.3794
17373TIP3    H173610   4.932   2.794   2.927  2.8118 -0.3872 -1.0990
17373TIP3    H273611   4.827   2.762   2.822 -0.6732  0.6582  1.8578
17374TIP3   OH273612   1.899   2.972  13.161  0.3844  0.1855  0.7014
17374TIP3    H173613   1.849   2.969  13.079  1.2010 -0.9702  0.2235
17374TIP3    H273614   1.925   3.064  13.169 -0.7306  0.5487  0.3083
17375TIP3   OH273615   4.398   2.154   1.417 -0.3846  0.4970 -0.4378
17375TIP3    H173616   4.450   2.080   1.450  0.9814  1.1771 -0.9702
17375TIP3    H273617   4.310   2.139   1.451 -0.4131 -1.9475 -1.4093
17376TIP3   OH273618   2.626   1.094  13.790 -0.5301 -0.0308 -0.2969
17376TIP3    H173619   2.616   1.009  13.747 -0.6147  0.0532 -0.4442
17376TIP3    H273620   2.543   1.108  13.836 -0.2254 -0.3843  0.3715
17377TIP3   OH273621   1.449   4.832  13.262  0.2914 -0.5310 -0.1540
17377TIP3    H173622   1.416   4.767  13.325  1.0203  1.8816  2.9535
17377TIP3    H273623   1.542   4.841  13.284  0.3228  1.1570 -0.8559
17378TIP3   OH273624   0.465   4.821   5.032  0.1601  0.3872  0.8900
17378TIP3    H173625   0.456   4.897   4.975  0.6190  1.1326  1.7780
17378TIP3    H273626   0.397   4.760   5.004  0.8980  0.3714 -0.9787
17379TIP3   OH273627   5.611   5.496  17.058  0.1009  0.5041 -0.0672
17379TIP3    H173628   5.586   5.532  16.973 -0.4143 -0.0462 -0.1545
17379TIP3    H273629   5.531   5.456  17.092  0.9796 -1.9223 -0.6586
17380TIP3   OH273630   4.831   2.363   2.718 -0.3247 -0.0434 -0.4279
17380TIP3    H173631   4.852   2.436   2.775 -2.4747 -0.4124  0.9468
17380TIP3    H273632   4.879   2.289   2.754 -1.7935 -0.3109  1.0834
17381TIP3   OH273633   1.920   3.701  14.689  0.3597  0.1282 -0.1541
17381TIP3    H173634   1.961   3.681  14.773  2.7293 -0.8628 -1.4526
17381TIP3    H273635   1.902   3.615  14.650  1.8157  0.4972 -1.7615
17382TIP3   OH273636   1.529   0.015   2.903 -0.3404  0.2529  0.4212
17382TIP3    H173637   1.582   0.024   2.824 -3.7477  1.1211 -2.0227
17382TIP3    H273638   1.530   0.102   2.943 -0.8437  0.6081 -0.3133
17383TIP3   OH273639   1.948   0.845   0.246  0.3920  0.4910 -0.4485
17383TIP3    H173640   1.964   0.905   0.173 -0.1893  0.5348 -0.5515
17383TIP3    H273641   2.028   0.794   0.253  0.4131  0.3996 -1.2076
17384TIP3   OH273642   1.693   0.056  13.320 -0.1313 -0.2114  0.0182
17384TIP3    H173643   1.752   0.021  13.387 -0.4026  1.1423  1.0333
17384TIP3    H273644   1.624   0.099  13.370 -2.1001 -1.8920 -1.1396
17385TIP3   OH273645   3.981   0.239   5.899 -0.0411 -0.2773 -0.1484
17385TIP3    H173646   3.959   0.315   5.953  0.0037 -0.5503  0.2616
17385TIP3    H273647   3.992   0.168   5.962  3.2439  0.0789 -0.1770
17386TIP3   OH273648   1.560   4.538  13.448 -0.7875 -0.0502 -0.1395
17386TIP3    H173649   1.488   4.475  13.449 -0.1965 -0.7422  0.7950
17386TIP3    H273650   1.616   4.511  13.521  0.4023  0.4862 -0.8265
17387TIP3   OH273651   4.021   6.136  15.103 -0.7058  0.0915 -0.1512
17387TIP3    H173652   4.002   6.048  15.069  0.6727 -1.5263  2.8338
17387TIP3    H273653   3.953   6.152  15.168 -1.4763  1.7218 -1.2871
17388TIP3   OH273654   1.898   3.884  15.830 -0.0163  0.5107 -0.4104
17388TIP3    H173655   1.842   3.890  15.908  1.1658 -0.9907  0.6258
17388TIP3    H273656   1.923   3.792  15.826 -0.2744  0.4961 -2.7854
17389TIP3   OH273657   3.538   3.103  15.367 -0.0854 -0.4571 -0.7751
17389TIP3    H173658   3.490   3.025  15.397 -2.6212  0.9859 -0.7813
17389TIP3    H273659   3.557   3.085  15.275 -0.3766 -1.1978 -0.7015
17390TIP3   OH273660   2.128   3.102  10.719 -0.2691 -0.1571 -0.4700
17390TIP3    H173661   2.067   3.169  10.689  0.3415  1.5286  1.7460
17390TIP3    H273662   2.212   3.125  10.679  0.1606  1.0673  1.0426
17391TIP3   OH273663   0.957   5.368   5.168 -0.3071 -0.1405  0.4763
17391TIP3    H173664   0.961   5.338   5.259  2.7432 -0.2002  0.4233
17391TIP3    H273665   0.950   5.463   5.175 -1.9867 -0.2496  0.7051
17392TIP3   OH273666   1.114   1.497  11.191  0.3453  0.5590  0.3308
17392TIP3    H173667   1.058   1.574  11.188 -0.6476 -0.1788 -0.6381
17392TIP3    H273668   1.111   1.461  11.102 -1.4213 -2.1442  1.3628
17393TIP3   OH273669   4.811   4.557  13.474  0.4193 -0.2061  0.0960
17393TIP3    H173670   4.718   4.582  13.475 -0.3770 -2.8676  0.4446
17393TIP3    H273671   4.846   4.592  13.555 -0.4246  0.3541  0.2340
17394TIP3   OH273672   6.227   4.776   0.571  0.3717 -0.0264  0.2843
17394TIP3    H173673   6.151   4.807   0.522  0.2601  0.9476  1.0420
17394TIP3    H273674   6.191   4.728   0.645  0.4899  0.2047  0.4951
17395TIP3   OH273675   3.424   1.968   1.357  0.0562  0.2677  0.1396
17395TIP3    H173676   3.508   1.993   1.396  0.6435  1.0877 -1.5699
17395TIP3    H273677   3.441   1.882   1.318  0.3796  0.8207 -0.9692
17396TIP3   OH273678   0.046   0.168   1.603 -0.8379 -0.4160  0.0376
17396TIP3    H173679   0.117   0.200   1.658  0.4311 -1.3792 -0.9628
17396TIP3    H273680   0.059   0.073   1.601 -0.9857 -0.4273 -1.6825
17397TIP3   OH273681   5.457   2.809  10.264  0.4365 -0.0415  0.0619
17397TIP3    H173682   5.414   2.881  10.309  0.1155  0.7902 -1.4962
17397TIP3    H273683   5.491   2.848  10.183  0.5938 -1.5551 -0.6444
17398TIP3   OH273684   1.569   1.858  13.041  0.2900  0.0754 -0.0518
17398TIP3    H173685   1.514   1.887  12.968 -2.1857 -2.7748  0.5154
17398TIP3    H273686   1.508   1.833  13.110  2.5197  2.8042  3.2413
17399TIP3   OH273687   4.110   0.207   5.035  0.3545 -0.2409  0.0354
17399TIP3    H173688   4.148   0.227   4.949  0.4497  0.0703  0.1489
17399TIP3    H273689   4.074   0.290   5.065  0.5256 -0.2957  0.3954
17400TIP3   OH273690   6.183   1.647   3.126 -0.0828 -0.1792  0.1024
17400TIP3    H173691   6.133   1.720   3.164 -0.6937 -0.4521 -0.1677
17400TIP3    H273692   6.189   1.583   3.196  0.1076 -0.0392  0.2149
17401TIP3   OH273693   3.802   3.751  14.378  0.0719 -0.1362  0.4840
17401TIP3    H173694   3.795   3.797  14.462 -0.1830 -0.0523  0.4160
17401TIP3    H273695   3.713   3.721  14.359  0.2963 -0.9679  0.7051
17402TIP3   OH273696   3.963   6.272   1.667  0.1821  0.2832  0.3102
17402TIP3    H173697   3.930   6.310   1.586 -0.3730  1.0470  0.8783
17402TIP3    H273698   3.973   6.346   1.726  1.6669 -0.1027  0.6013
17403TIP3   OH273699   2.881   1.596   4.901 -0.2390  0.1325 -0.1030
17403TIP3    H173700   2.964   1.557   4.874 -0.2232 -0.8598  1.2931
17403TIP3    H273701   2.865   1.561   4.989 -3.7375 -2.3956 -1.4996
17404TIP3   OH273702   6.496   2.019  16.756  0.0325  0.9357 -0.0645
17404TIP3    H173703   6.540   1.933  16.750  0.6546  1.2895 -0.7598
17404TIP3    H273704   6.418   2.009  16.702 -1.1490  0.0896  1.7108
17405TIP3   OH273705   5.140   0.240  16.119 -0.5536  0.1612  0.0983
17405TIP3    H173706   5.046   0.238  16.135 -0.9323 -0.5860 -1.9270
17405TIP3    H273707   5.172   0.314  16.171 -2.3053  0.6872  0.4881
17406TIP3   OH273708   3.531   3.725  14.327 -0.7128  0.0367 -0.0455
17406TIP3    H173709   3.506   3.817  14.320 -0.0975  0.3091  1.0627
17406TIP3    H273710   3.449   3.677  14.317 -0.9183  0.6280 -1.5924
17407TIP3   OH273711   2.010   5.976  15.951  0.1394  0.1121 -0.4185
17407TIP3    H173712   2.096   5.940  15.931  0.1424 -0.1084 -0.0213
17407TIP3    H273713   1.949   5.927  15.896  0.4568  1.5970 -2.1927
17408TIP3   OH273714   4.118   2.545  16.511 -0.3331 -0.0128 -0.5298
17408TIP3    H173715   4.150   2.577  16.427  1.0410 -2.5262 -1.0689
17408TIP3    H273716   4.195   2.542  16.567 -0.4830 -1.6418 -0.3365
17409TIP3   OH273717   2.042   3.894  15.170  0.5818 -0.2461  0.5780
17409TIP3    H173718   2.066   3.987  15.164  0.3294 -0.0163  2.5282
17409TIP3    H273719   1.979   3.890  15.242 -3.2322 -1.2591 -2.4767
17410TIP3   OH273720   4.143   6.105   3.199  0.3520  0.3629 -0.0716
17410TIP3    H173721   4.177   6.096   3.110 -0.7311  0.6959 -0.5323
17410TIP3    H273722   4.171   6.192   3.227 -1.0779  1.1134 -0.8903
17411TIP3   OH273723   6.491   4.802  12.440  0.6863 -1.2878  0.2320
17411TIP3    H173724   6.487   4.789  12.345  1.9073  1.3596 -0.2661
17411TIP3    H273725   6.399   4.810  12.467  0.3794 -0.5369 -0.9856
17412TIP3   OH273726   6.144   1.812  13.501  0.1850 -0.1320 -0.0469
17412TIP3    H173727   6.150   1.826  13.596  0.4222 -1.5059  0.1635
17412TIP3    H273728   6.087   1.882  13.470 -1.0182 -0.4501  1.3260
17413TIP3   OH273729   2.593   3.300  13.259 -0.6153 -0.6152  0.0879
17413TIP3    H173730   2.563   3.210  13.273  0.2839 -0.8968  0.2927
17413TIP3    H273731   2.652   3.317  13.332  1.1907 -0.7696 -1.2576
17414TIP3   OH273732   2.379   6.015   1.007  0.2236  0.4207  0.1212
17414TIP3    H173733   2.309   6.079   0.991 -0.7787 -0.1420  2.0186
17414TIP3    H273734   2.396   5.977   0.921 -2.6820 -0.2819 -0.2540
17415TIP3   OH273735   1.946   0.957  13.296 -0.0453 -0.3031  0.2870
17415TIP3    H173736   2.009   0.936  13.366 -0.6970  1.1675  1.3678
17415TIP3    H273737   1.861   0.936  13.333 -0.2940 -1.2994 -0.7927
17416TIP3   OH273738   2.283   3.115  16.174 -0.7260 -0.2996 -0.2046
17416TIP3    H173739   2.357   3.172  16.195  0.1923 -1.4437 -0.1785
17416TIP3    H273740   2.228   3.116  16.252 -0.9448  0.8549 -0.3593
17417TIP3   OH273741   4.450   4.902   3.837  0.4301  0.2105 -0.5806
17417TIP3    H173742   4.389   4.966   3.801 -0.1470 -0.1892 -0.3389
17417TIP3    H273743   4.508   4.880   3.765  0.2096  0.5112 -0.8495
17418TIP3   OH273744   6.385   5.853  11.699  0.4442  0.4428  0.6665
17418TIP3    H173745   6.365   5.798  11.774 -0.7474 -0.7300 -0.4698
17418TIP3    H273746   6.335   5.933  11.714 -1.5516 -0.6335  0.1246
17419TIP3   OH273747   1.473   2.056  14.932  0.3873  1.0759 -0.2544
17419TIP3    H173748   1.434   2.118  14.871  2.6752  2.3597 -0.5197
17419TIP3    H273749   1.475   1.973  14.884 -1.4443  1.0724 -0.3971
17420TIP3   OH273750   1.204   3.035   4.443 -0.1212 -0.2423 -0.0495
17420TIP3    H173751   1.192   2.940   4.446  2.1082 -0.5812  0.0631
17420TIP3    H273752   1.123   3.071   4.479 -0.4897 -2.1499  1.1696
17421TIP3   OH273753   6.586   6.778   1.660  0.0806  0.2571 -0.2133
17421TIP3    H173754   6.562   6.818   1.743 -1.0190 -0.6224 -0.0827
17421TIP3    H273755   6.592   6.684   1.679 -2.4698 -0.2821 -1.5474
17422TIP3   OH273756   3.235   6.612   3.029 -0.1911  0.1026 -0.0722
17422TIP3    H173757   3.203   6.648   2.946  0.7012 -0.4151 -0.6650
17422TIP3    H273758   3.157   6.607   3.085 -0.5832  1.6123 -0.4451
17423TIP3   OH273759   6.568   0.239  16.656 -0.4880  0.2996 -0.1252
17423TIP3    H173760   6.640   0.238  16.593 -0.7384 -1.1627 -0.4364
17423TIP3    H273761   6.602   0.193  16.732 -1.2892 -1.1030 -0.5654
17424TIP3   OH273762   1.698   0.059   1.869  0.3683 -0.4646 -0.0527
17424TIP3    H173763   1.728   0.109   1.944 -0.4932  0.6642 -0.4251
17424TIP3    H273764   1.608   0.034   1.891 -0.2382  0.6819 -1.0370
17425TIP3   OH273765   5.372   6.180   0.586  0.6052  0.6723 -0.4110
17425TIP3    H173766   5.297   6.129   0.615 -0.5270  2.8294  0.6756
17425TIP3    H273767   5.430   6.116   0.544 -1.9414 -1.0303 -1.5624
17426TIP3   OH273768   3.222   2.321  12.549  0.5176  0.0963 -0.1882
17426TIP3    H173769   3.208   2.388  12.616 -1.4664  0.4536 -0.8697
17426TIP3    H273770   3.271   2.252  12.593 -0.0577  0.6697  1.4223
17427TIP3   OH273771   2.314   3.578  12.899  0.1405  0.6224  0.0749
17427TIP3    H173772   2.384   3.620  12.948  2.1667  1.3080 -3.1233
17427TIP3    H273773   2.358   3.523  12.835 -2.2715  0.0712 -1.2505
17428TIP3   OH273774   4.721   6.332   1.609  0.6325  0.6347 -0.7951
17428TIP3    H173775   4.751   6.422   1.623  1.9335 -0.2208  3.6913
17428TIP3    H273776   4.643   6.324   1.664  0.0574 -0.7643 -1.7603
17429TIP3   OH273777   1.182   3.105   0.080 -0.1894 -0.2473  0.3157
17429TIP3    H173778   1.133   3.027   0.103  0.8523 -1.2271 -0.6358
17429TIP3    H273779   1.235   3.079   0.004  0.8038  1.1328  0.4854
17430TIP3   OH273780   5.083   6.746  12.184  0.1139 -0.0519  0.3913
17430TIP3    H173781   5.121   6.657  12.185  0.1352 -0.0455  1.1884
17430TIP3    H273782   5.057   6.761  12.275  2.2236  1.6515  0.7908
17431TIP3   OH273783   4.136   1.011   1.833  0.3758  0.0481 -0.2580
17431TIP3    H173784   4.164   1.080   1.894  1.4554  0.1856 -0.8895
17431TIP3    H273785   4.192   0.936   1.854  0.3518 -0.0969 -0.7047
17432TIP3   OH273786   2.081   4.719  15.962  0.0369 -0.5301 -0.3990
17432TIP3    H173787   2.112   4.759  15.880 -4.9545 -0.4168 -2.5455
17432TIP3    H273788   2.063   4.628  15.939 -0.0375 -0.9266  1.0975
17433TIP3   OH273789   0.606   3.872  11.775  0.0295  0.6070 -0.1508
17433TIP3    H173790   0.692   3.833  11.796  0.1378  1.3171  0.7939
17433TIP3    H273791   0.589   3.931  11.848  0.1759  2.8607 -1.8525
17434TIP3   OH273792   3.615   0.002   2.610 -0.0086  0.3116 -0.0047
17434TIP3    H173793   3.692   0.056   2.629  0.0813  0.1485  0.1004
17434TIP3    H273794   3.595  -0.041   2.693 -0.0693  0.1716 -0.0913
17435TIP3   OH273795   1.843   3.548  13.654  0.2061  0.1929  0.2299
17435TIP3    H173796   1.778   3.526  13.720  0.0968  0.0218  0.0672
17435TIP3    H273797   1.802   3.524  13.571  0.5882 -0.1938  0.1454
17436TIP3   OH273798   6.203   0.617   5.784 -0.1063 -0.0825 -0.6190
17436TIP3    H173799   6.294   0.610   5.755 -0.4516  0.2404 -1.8147
17436TIP3    H273800   6.209   0.652   5.873  0.9977 -1.5486 -0.0782
17437TIP3   OH273801   3.217   6.383  16.726 -0.9139 -0.4531 -0.4327
17437TIP3    H173802   3.173   6.305  16.759 -1.2204 -0.3010 -0.4732
17437TIP3    H273803   3.167   6.406  16.647 -0.0241 -0.9761 -1.1705
17438TIP3   OH273804   3.871   6.652   4.433 -0.1429  0.4200 -0.0287
17438TIP3    H173805   3.797   6.609   4.477 -0.4961 -0.4508 -1.3852
17438TIP3    H273806   3.845   6.744   4.427  0.3522  0.7956  2.3971
17439TIP3   OH273807   3.910   6.360   2.958  0.5064  0.5244  0.1038
17439TIP3    H173808   3.849   6.406   3.015 -0.1071 -1.3551  1.0401
17439TIP3    H273809   3.995   6.370   3.001  0.5831  1.6450 -0.2728
17440TIP3   OH273810   4.850   0.305   5.109 -0.3497  0.0961  0.4294
17440TIP3    H173811   4.926   0.364   5.106 -1.6934  1.9043  0.3411
17440TIP3    H273812   4.791   0.345   5.173 -1.6055 -0.7886 -0.1331
17441TIP3   OH273813   5.820   5.001   6.113  0.8616 -0.5869 -0.5420
17441TIP3    H173814   5.868   4.937   6.060  1.2190 -1.1544  0.4233
17441TIP3    H273815   5.859   4.993   6.200 -2.4989 -2.8157  0.9881
17442TIP3   OH273816   1.106   2.088   3.939  0.0319 -0.3509 -0.2345
17442TIP3    H173817   1.178   2.042   3.982  0.7872  0.5553 -0.4829
17442TIP3    H273818   1.052   2.019   3.900 -0.3197 -1.1729  1.5831
17443TIP3   OH273819   1.877   3.201   1.743 -0.3728  0.0945 -0.0335
17443TIP3    H173820   1.839   3.159   1.821  1.0980  0.6173  1.0200
17443TIP3    H273821   1.804   3.211   1.683 -0.9661 -3.4182 -0.1174
17444TIP3   OH273822   3.674   1.629  14.150  0.0153  0.0853  0.1493
17444TIP3    H173823   3.637   1.560  14.095 -0.7982  0.2678  0.4628
17444TIP3    H273824   3.753   1.589  14.187  1.5686  0.5201 -2.4777
17445TIP3   OH273825   6.521   5.335   5.307 -0.4123  0.2348 -0.6848
17445TIP3    H173826   6.448   5.283   5.274  1.1865 -2.9019  0.3195
17445TIP3    H273827   6.482   5.390   5.375 -1.7200 -2.4672  0.9302
17446TIP3   OH273828   2.299   6.112  15.927  0.0793 -0.0119 -0.4832
17446TIP3    H173829   2.318   6.042  15.864 -1.5167  0.5032 -1.5802
17446TIP3    H273830   2.212   6.143  15.903 -1.0528 -0.4756  2.6219
17447TIP3   OH273831   6.203   0.314   1.886 -0.1486  0.5233 -0.0112
17447TIP3    H173832   6.109   0.301   1.899  0.0703 -0.9672  0.2523
17447TIP3    H273833   6.238   0.329   1.973  0.0497 -0.4433  0.0915
17448TIP3   OH273834   4.199   1.061   3.562  0.2415 -0.0422 -0.0207
17448TIP3    H173835   4.174   1.148   3.529  2.9255  0.5228 -0.7824
17448TIP3    H273836   4.166   1.001   3.495 -0.2882  0.5113 -0.2782
17449TIP3   OH273837   5.752   4.481  16.846  0.0164  1.0563 -0.0460
17449TIP3    H173838   5.714   4.397  16.819  0.4624  0.3671  1.3898
17449TIP3    H273839   5.846   4.469  16.838  0.0750  1.5451 -0.1515
17450TIP3   OH273840   0.136   1.026   5.039  0.3189  0.0098  0.1681
17450TIP3    H173841   0.132   0.998   4.947  0.2518  0.7139 -0.0473
17450TIP3    H273842   0.146   1.121   5.034  4.0494 -0.2280  0.8136
17451TIP3   OH273843   5.854   3.540   0.196  0.2715 -0.2257 -0.6310
17451TIP3    H173844   5.822   3.512   0.282 -0.1458  0.5919 -0.5114
17451TIP3    H273845   5.819   3.475   0.135 -0.8040  0.0943 -0.3756
17452TIP3   OH273846   3.820   0.761  13.583  0.4177  0.5233  0.1367
17452TIP3    H173847   3.882   0.694  13.555 -1.1492 -0.4288 -1.3022
17452TIP3    H273848   3.807   0.743  13.677 -0.1522 -1.4127 -0.2623
17453TIP3   OH273849   4.215   1.791  14.339  0.2604 -0.2883 -0.3914
17453TIP3    H173850   4.159   1.728  14.384 -0.9745  1.2356  0.3218
17453TIP3    H273851   4.252   1.844  14.409  2.4367 -1.0665 -0.8800
17454TIP3   OH273852   0.532   1.949  14.606 -0.0841  0.3008  0.2682
17454TIP3    H173853   0.543   1.859  14.635  2.2581  0.5548  0.3709
17454TIP3    H273854   0.472   1.944  14.532 -2.0399 -0.9880  1.8680
17455TIP3   OH273855   5.844   2.073  14.203 -0.2171 -0.5048 -0.8143
17455TIP3    H173856   5.928   2.062  14.158  0.8752  0.4090  0.9274
17455TIP3    H273857   5.813   2.159  14.175  1.2586  0.8071  1.2958
17456TIP3   OH273858   4.169   6.530  16.326 -0.1558  0.8423  0.3768
17456TIP3    H173859   4.135   6.604  16.377  0.7518  2.7514 -1.6296
17456TIP3    H273860   4.257   6.515  16.362 -1.0622 -0.6969  2.1305
17457TIP3   OH273861   3.056   6.323   4.759  0.6468 -0.4414 -1.0310
17457TIP3    H173862   3.039   6.416   4.772  1.0026 -0.4929 -0.1228
17457TIP3    H273863   3.019   6.281   4.836  1.4601 -0.9353 -0.9054
17458TIP3   OH273864   3.326   6.561   5.249  0.4117  0.0666  0.0990
17458TIP3    H173865   3.418   6.555   5.223  0.3053  1.1189 -0.6063
17458TIP3    H273866   3.288   6.622   5.186 -1.1937 -1.6982 -0.7622
17459TIP3   OH273867   3.662   2.395   3.308 -0.0341 -0.0782 -0.1608
17459TIP3    H173868   3.746   2.364   3.343  1.6320  1.0252 -2.8113
17459TIP3    H273869   3.664   2.370   3.216 -0.3636  4.0123 -1.5189
17460TIP3   OH273870   3.722   5.082   6.525 -0.1329 -0.3667 -0.2831
17460TIP3    H173871   3.780   5.130   6.585  2.8667 -1.0117 -2.4454
17460TIP3    H273872   3.706   5.143   6.453 -2.5414 -0.1039  0.3678
17461TIP3   OH273873   2.571   6.066   4.184 -0.0887 -0.3132  0.2994
17461TIP3    H173874   2.480   6.096   4.190 -0.9613 -2.8065  0.8496
17461TIP3    H273875   2.601   6.063   4.275  0.8626  1.2300  0.0724
17462TIP3   OH273876   2.639   4.787   1.253 -0.1452 -0.0896  0.4919
17462TIP3    H173877   2.622   4.764   1.344  1.7961 -0.8337  0.7104
17462TIP3    H273878   2.617   4.707   1.204  1.5823 -0.7194  0.6715
17463TIP3   OH273879   6.742   5.489  12.220 -0.0013  0.8456  0.5976
17463TIP3    H173880   6.672   5.449  12.271 -0.4050  1.9733  0.9577
17463TIP3    H273881   6.787   5.415  12.178  1.1817 -0.2578  3.5681
17464TIP3   OH273882   6.812   6.810   0.164  0.0185 -0.2981 -0.5793
17464TIP3    H173883   6.817   6.716   0.181 -0.7456 -0.1645  0.5473
17464TIP3    H273884   6.841   6.850   0.246 -1.0483  0.4269 -0.5344
17465TIP3   OH273885   4.894   0.350   4.430  0.2285  0.6221 -0.0822
17465TIP3    H173886   4.911   0.443   4.414  0.1753  0.5205 -0.7800
17465TIP3    H273887   4.980   0.314   4.452  0.3572  0.7311 -0.3879
17466TIP3   OH273888   6.731   1.012  12.828 -0.6000 -0.1411  1.0195
17466TIP3    H173889   6.654   0.976  12.872 -2.2260  1.3943 -0.4358
17466TIP3    H273890   6.741   1.100  12.864  0.4200 -0.2723  1.0951
17467TIP3   OH273891   0.707   0.207   6.281  0.0044 -0.4975  0.1681
17467TIP3    H173892   0.702   0.116   6.252  0.2086 -0.4314 -0.0735
17467TIP3    H273893   0.689   0.258   6.203 -1.0860 -0.3396  0.5104
17468TIP3   OH273894   4.449   0.894   4.445  0.2378  0.1091 -0.4144
17468TIP3    H173895   4.508   0.893   4.370  0.0107  4.5380 -0.8929
17468TIP3    H273896   4.500   0.935   4.515 -0.7349 -0.5787  0.7451
17469TIP3   OH273897   6.605   2.140  12.335 -0.0490 -0.4592 -0.0590
17469TIP3    H173898   6.599   2.211  12.272  0.4449  0.1075  0.5200
17469TIP3    H273899   6.674   2.083  12.302 -0.3062 -0.5641 -0.4173
17470TIP3   OH273900   4.980   3.918  14.732  0.7746 -0.0150  0.3069
17470TIP3    H173901   5.033   3.991  14.699  1.0344 -0.3665 -0.0779
17470TIP3    H273902   4.924   3.956  14.799  1.6688  0.3274  0.8733
17471TIP3   OH273903   2.318   5.204  15.283 -0.3942  0.9887 -0.3114
17471TIP3    H173904   2.370   5.255  15.346 -0.4397 -0.0450  0.6015
17471TIP3    H273905   2.316   5.116  15.321 -1.8921  0.7545 -0.9015
17472TIP3   OH273906   1.233   0.279  15.748 -0.4375 -0.1052 -0.5578
17472TIP3    H173907   1.250   0.371  15.727 -2.1228  1.4440  3.7699
17472TIP3    H273908   1.312   0.250  15.795  0.1368 -1.0007 -2.0051
17473TIP3   OH273909   4.611   4.973   1.968 -0.1456  0.3876  0.5284
17473TIP3    H173910   4.533   4.975   2.024 -1.4868 -1.0815 -1.1394
17473TIP3    H273911   4.652   5.059   1.980 -0.9512  0.5244  2.8724
17474TIP3   OH273912   2.618   3.385   1.296  0.0255  0.2768 -0.2038
17474TIP3    H173913   2.699   3.353   1.256 -0.3980 -0.8102 -0.1966
17474TIP3    H273914   2.628   3.481   1.296  1.0018  0.1849 -0.8386
17475TIP3   OH273915   2.847   3.075   3.061  0.3242 -0.6643 -0.3541
17475TIP3    H173916   2.762   3.066   3.019  1.3028  1.5917 -3.1652
17475TIP3    H273917   2.901   3.006   3.023 -0.3400 -2.6645  2.0777
17476TIP3   OH273918   0.998   5.980  15.739  0.3618  0.1044  0.2850
17476TIP3    H173919   1.000   6.016  15.651  3.4536  1.3033  0.7194
17476TIP3    H273920   1.031   5.890  15.729  0.3068  0.0997  0.1495
17477TIP3   OH273921   2.152   4.616   2.334  0.2595  0.1572  0.2782
17477TIP3    H173922   2.120   4.541   2.285  0.6089  1.2675 -1.7777
17477TIP3    H273923   2.239   4.633   2.298 -0.3214  2.3134 -0.2872
17478TIP3   OH273924   3.391   0.275  14.398  0.9597 -0.5424 -0.3184
17478TIP3    H173925   3.414   0.339  14.331  0.5099  0.3929  0.3991
17478TIP3    H273926   3.302   0.299  14.425  0.5167 -1.8889 -0.5185
17479TIP3   OH273927   1.956   1.945  14.153 -0.4308  0.4159  0.3513
17479TIP3    H173928   1.923   2.026  14.114 -0.3002 -0.1954 -1.1006
17479TIP3    H273929   2.025   1.974  14.213 -0.5132  1.3894 -0.0091
17480TIP3   OH273930   5.943   0.654  15.256 -0.3769  0.5510 -0.2489
17480TIP3    H173931   6.011   0.689  15.315 -1.1737 -0.1361  1.1272
17480TIP3    H273932   5.928   0.724  15.192  1.3964  0.8390 -0.4033
17481TIP3   OH273933   4.931   5.638  16.458 -0.2401  0.4429  0.0629
17481TIP3    H173934   4.885   5.625  16.541 -0.8920 -0.2458 -0.3797
17481TIP3    H273935   5.011   5.685  16.481 -1.1903  1.7439  0.8582
17482TIP3   OH273936   5.279   6.252   1.641  0.1930 -0.3285  0.3759
17482TIP3    H173937   5.296   6.172   1.691  0.4159 -0.1642  0.5614
17482TIP3    H273938   5.271   6.222   1.551 -2.2157 -0.9369  0.7022
17483TIP3   OH273939   0.781   2.892  17.092  0.4913 -0.1874  0.0727
17483TIP3    H173940   0.798   2.822  17.156  1.9415  0.2743  0.2152
17483TIP3    H273941   0.718   2.949  17.137 -0.2085 -1.0390  0.2066
17484TIP3   OH273942   0.639   4.506  10.930 -0.1151 -1.0860  0.1249
17484TIP3    H173943   0.597   4.513  10.844  1.3441 -0.6127 -0.5701
17484TIP3    H273944   0.733   4.504  10.911  0.2014 -2.6806  1.6076
17485TIP3   OH273945   0.115   4.836  15.549  0.2923 -0.3471 -0.7015
17485TIP3    H173946   0.099   4.901  15.481  0.6491 -0.7670 -1.1939
17485TIP3    H273947   0.203   4.804  15.532 -0.2009 -1.6027 -1.0123
17486TIP3   OH273948   6.728   4.289   3.830  0.2602 -0.7195 -0.0467
17486TIP3    H173949   6.800   4.350   3.849 -1.6021  1.8482 -0.7509
17486TIP3    H273950   6.724   4.286   3.735 -1.1101 -0.0908 -0.0275
17487TIP3   OH273951   3.240   5.423  14.437  0.2039  0.2074  0.0567
17487TIP3    H173952   3.201   5.355  14.492  2.2790 -1.6968 -0.6638
17487TIP3    H273953   3.187   5.500  14.453 -1.7423 -1.3406  1.6049
17488TIP3   OH273954   2.486   5.423   1.353  0.2130 -0.1157  0.7811
17488TIP3    H173955   2.506   5.516   1.348  0.0171 -0.1209 -2.7793
17488TIP3    H273956   2.411   5.417   1.412  0.0922  2.0152  0.9046
17489TIP3   OH273957   5.380   4.228   1.036 -0.1160  0.1906 -0.0021
17489TIP3    H173958   5.422   4.215   1.121 -4.0491 -2.5050  1.7970
17489TIP3    H273959   5.334   4.311   1.044  0.7715  0.7198 -0.1719
17490TIP3   OH273960   1.667   6.095   2.182  0.9179  0.2389 -0.0904
17490TIP3    H173961   1.580   6.099   2.144  0.0599  2.0913  1.8768
17490TIP3    H273962   1.675   6.005   2.214  0.5520 -0.5071 -2.0015
17491TIP3   OH273963   2.884   2.840  14.728 -0.2583  0.0950 -0.5132
17491TIP3    H173964   2.964   2.878  14.764 -1.6676  1.4900  1.3618
17491TIP3    H273965   2.814   2.870  14.787 -2.8974  2.9945 -4.4983
17492TIP3   OH273966   0.927   3.715   4.045 -0.1250  0.0377 -0.4530
17492TIP3    H173967   0.879   3.647   4.092 -0.8701  0.2859 -0.8392
17492TIP3    H273968   1.018   3.685   4.046 -0.0349  0.2708  1.5348
17493TIP3   OH273969   6.376   4.613  11.134 -0.5587 -0.1538  0.2713
17493TIP3    H173970   6.333   4.672  11.072  0.6493  1.2633  0.7302
17493TIP3    H273971   6.441   4.566  11.082 -0.0856  0.4689  0.2792
17494TIP3   OH273972   4.844   2.030  16.565 -0.5821  0.0982  0.2826
17494TIP3    H173973   4.830   2.121  16.590  0.7329  0.1799  0.7547
17494TIP3    H273974   4.768   1.983  16.602 -0.3724  0.7316  1.5650
17495TIP3   OH273975   5.781   5.158  14.787 -0.3275 -0.1085  0.8082
17495TIP3    H173976   5.697   5.200  14.809 -0.6946  0.5849 -1.6650
17495TIP3    H273977   5.842   5.231  14.780 -0.1689 -0.3137 -0.0756
17496TIP3   OH273978   1.640   4.599  11.142  0.2692 -0.5372 -0.1528
17496TIP3    H173979   1.575   4.652  11.188 -0.7675 -1.1142 -0.8884
17496TIP3    H273980   1.593   4.566  11.065  1.8366  0.1127 -1.4492
17497TIP3   OH273981   1.091   1.362   5.146  0.2312  0.6117 -0.4191
17497TIP3    H173982   1.158   1.294   5.154 -0.5492 -0.0760  0.4952
17497TIP3    H273983   1.124   1.435   5.199 -0.3061 -0.2102  1.1050
17498TIP3   OH273984   1.586   4.544   4.790 -0.5041  0.1331  0.3376
17498TIP3    H173985   1.625   4.588   4.866 -1.7369  2.0670 -0.0881
17498TIP3    H273986   1.647   4.561   4.719 -0.2523 -0.1225  0.4889
17499TIP3   OH273987   5.301   4.881  15.322  0.1688 -0.0167  0.2046
17499TIP3    H173988   5.394   4.863  15.306  0.7256  1.7483  1.1869
17499TIP3    H273989   5.263   4.891  15.234  1.4105  1.4726 -0.2068
17500TIP3   OH273990   0.223   1.416  16.619  0.1163 -0.0349 -0.4229
17500TIP3    H173991   0.314   1.387  16.618  0.0329 -0.3256  0.0828
17500TIP3    H273992   0.180   1.360  16.684 -0.7486 -0.8675 -1.6750
17501TIP3   OH273993   2.005   3.739   4.026  0.7490 -0.0019 -0.5651
17501TIP3    H173994   2.091   3.779   4.043  0.5582  0.1819 -0.0115
17501TIP3    H273995   1.942   3.807   4.048  0.3432 -1.0646  1.9436
17502TIP3   OH273996   0.421   1.893  16.580 -0.1064  0.0008  0.4362
17502TIP3    H173997   0.329   1.870  16.571  0.0739 -0.2843 -0.9165
17502TIP3    H273998   0.462   1.816  16.618 -0.0947 -0.6876 -0.9000
17503TIP3   OH273999   2.010   3.036  12.000 -0.0415  0.3199  0.0922
17503TIP3    H174000   1.958   2.989  12.066  0.1082 -0.8167 -0.5775
17503TIP3    H274001   2.049   2.967  11.946  2.2668  1.0978  0.6142
17504TIP3   OH274002   2.940   0.247   0.111 -0.2295 -0.4534  0.1571
17504TIP3    H174003   2.967   0.180   0.175  3.3268 -1.2102 -1.8373
17504TIP3    H274004   2.876   0.202   0.056  0.3152 -1.4489  0.3035
17505TIP3   OH274005   3.502   1.441  12.074  0.0674 -0.4565  0.0071
17505TIP3    H174006   3.520   1.347  12.064  0.8739 -0.2843 -0.2856
17505TIP3    H274007   3.463   1.466  11.990  0.0118 -0.4969  0.0206
17506TIP3   OH274008   1.535   0.360   3.885  0.6811  0.3922 -0.2380
17506TIP3    H174009   1.509   0.449   3.906  0.0020  0.5900 -1.7492
17506TIP3    H274010   1.605   0.369   3.821  0.6035 -0.1468 -0.4118
17507TIP3   OH274011   5.529   1.708  14.393 -0.0637  0.2138 -0.1758
17507TIP3    H174012   5.617   1.671  14.398  0.0723  0.5366 -0.1696
17507TIP3    H274013   5.489   1.664  14.318  0.4840  0.8751 -0.8672
17508TIP3   OH274014   6.000   0.313   3.669  0.7479  0.1358  0.4123
17508TIP3    H174015   5.996   0.406   3.647  2.0759  0.3290  0.9167
17508TIP3    H274016   6.086   0.301   3.707  1.7208 -1.8199 -2.0972
17509TIP3   OH274017   5.455   0.116  15.290  0.2735  0.0972  0.0969
17509TIP3    H174018   5.424   0.076  15.209 -0.3570  1.9700 -0.6485
17509TIP3    H274019   5.515   0.185  15.260  1.3674 -0.2930  1.3150
17510TIP3   OH274020   4.656   4.484  13.793  0.3730 -0.2587 -0.2104
17510TIP3    H174021   4.666   4.579  13.785 -1.0500 -0.1076 -0.6696
17510TIP3    H274022   4.592   4.473  13.864  0.9491 -0.9003  0.2089
17511TIP3   OH274023   1.589   1.254   4.548 -0.4077 -0.1339 -0.3266
17511TIP3    H174024   1.528   1.190   4.585 -0.5216 -0.2076 -0.6356
17511TIP3    H274025   1.643   1.281   4.621 -1.2749  0.4607  0.1107
17512TIP3   OH274026   3.369   3.245  11.095  0.2109 -0.3971  0.2665
17512TIP3    H174027   3.275   3.252  11.110  0.3137  1.4320  0.2986
17512TIP3    H274028   3.408   3.265  11.180  0.6545 -2.3542  0.5770
17513TIP3   OH274029   6.670   0.270   4.879  0.4668 -0.1436  0.2334
17513TIP3    H174030   6.641   0.182   4.856 -1.1903  0.2059  0.8855
17513TIP3    H274031   6.759   0.276   4.843  0.0397 -1.5289 -1.1492
17514TIP3   OH274032   4.468   4.901  13.792 -0.4072 -0.3155  0.1625
17514TIP3    H174033   4.470   4.806  13.804  0.4997 -0.2463  0.6977
17514TIP3    H274034   4.413   4.915  13.716 -0.5959 -1.2732  0.1154
17515TIP3   OH274035   4.597   6.281   2.539 -0.2355 -0.1490 -0.2460
17515TIP3    H174036   4.535   6.337   2.585 -1.6986 -0.1425 -2.1439
17515TIP3    H274037   4.571   6.192   2.563  0.7640 -0.1082  1.0916
17516TIP3   OH274038   4.321   5.825  16.049  0.0426  0.1709 -0.2497
17516TIP3    H174039   4.308   5.736  16.016  0.3630  0.3809 -0.9575
17516TIP3    H274040   4.411   5.825  16.082  0.0830  0.2692 -0.3623
17517TIP3   OH274041   2.226   3.024   2.459 -0.1951  0.1682  0.0230
17517TIP3    H174042   2.260   3.093   2.515 -1.9220 -0.3902  1.8388
17517TIP3    H274043   2.298   2.960   2.453 -0.0881  0.0729  1.9214
17518TIP3   OH274044   3.485   6.109   2.956  0.1960  0.1232 -0.1367
17518TIP3    H174045   3.480   6.053   2.879  1.6081  1.5575 -1.3526
17518TIP3    H274046   3.577   6.138   2.959 -0.0178  0.7551  1.6108
17519TIP3   OH274047   2.589   3.891  14.473 -0.5112  0.1453 -0.3510
17519TIP3    H174048   2.568   3.811  14.424  0.6119 -2.2966  2.7798
17519TIP3    H274049   2.533   3.887  14.551  0.2599  1.9346  0.3603
17520TIP3   OH274050   6.540   3.933  14.316 -0.1731 -0.1707 -0.2867
17520TIP3    H174051   6.612   3.989  14.285  1.2539 -2.1132 -0.6502
17520TIP3    H274052   6.464   3.963  14.267  0.7770  0.7192 -1.2931
17521TIP3   OH274053   2.960   6.678  13.627 -0.0044 -0.0292  0.1422
17521TIP3    H174054   2.989   6.587  13.625  1.1027  0.2442  1.5623
17521TIP3    H274055   2.865   6.673  13.642 -0.2624 -0.9355 -1.5906
17522TIP3   OH274056   5.726   0.395  13.086 -0.0973 -0.6641  0.3081
17522TIP3    H174057   5.712   0.488  13.071  0.5283 -0.4137  1.1858
17522TIP3    H274058   5.818   0.388  13.111 -0.3652 -1.3847  1.1514
17523TIP3   OH274059   5.985   3.829  15.782 -0.2522 -0.3201  0.0712
17523TIP3    H174060   6.004   3.759  15.720 -1.3627 -0.4398 -0.1540
17523TIP3    H274061   5.903   3.868  15.751 -0.0894  0.5316  0.6704
17524TIP3   OH274062   3.578   3.833  11.131 -0.1313  0.0980 -0.3447
17524TIP3    H174063   3.599   3.798  11.044 -1.1932 -1.0336 -0.1531
17524TIP3    H274064   3.483   3.843  11.131 -0.1548 -0.0130  0.7300
17525TIP3   OH274065   1.999   6.134  15.038 -0.5932 -0.5339 -0.2640
17525TIP3    H174066   1.940   6.137  14.962 -0.0184  0.4229 -0.6976
17525TIP3    H274067   2.049   6.216  15.032 -0.5752 -0.4210  1.1863
17526TIP3   OH274068   1.896   6.076   5.223  0.4877 -0.5385 -0.3076
17526TIP3    H174069   1.903   6.089   5.318 -0.7340  0.4509 -0.3179
17526TIP3    H274070   1.874   5.983   5.213 -0.1565 -0.4823  0.4421
17527TIP3   OH274071   0.799   4.383   5.340 -0.9133 -0.3026 -0.1576
17527TIP3    H174072   0.880   4.333   5.345 -0.1333  0.6991 -1.9163
17527TIP3    H274073   0.729   4.317   5.346  0.0579 -1.3822 -0.4562
17528TIP3   OH274074   0.040   3.639  16.608 -0.7543  0.3891  0.2380
17528TIP3    H174075   0.025   3.651  16.514 -0.3265  0.9840  0.2418
17528TIP3    H274076  -0.002   3.714  16.649 -0.1475  0.6214  0.4462
17529TIP3   OH274077   2.220   5.591  11.510  0.2064 -0.0641  0.2329
17529TIP3    H174078   2.277   5.651  11.559 -0.9961  0.4488  1.0496
17529TIP3    H274079   2.144   5.579  11.567  0.0243 -1.6740 -0.3163
17530TIP3   OH274080   5.039   5.567  14.370  0.2246  0.1454  0.3995
17530TIP3    H174081   4.965   5.520  14.332  0.6934 -0.3865  0.1474
17530TIP3    H274082   5.111   5.505  14.369  1.1347  1.1751 -0.8576
17531TIP3   OH274083   4.678   6.223   3.465 -0.1636  0.0286  0.3553
17531TIP3    H174084   4.739   6.231   3.538  0.5697  0.3574 -0.2751
17531TIP3    H274085   4.701   6.295   3.406 -0.4092 -0.5127 -0.4246
17532TIP3   OH274086   3.758   5.825   2.045  0.1496  0.4415 -0.0812
17532TIP3    H174087   3.724   5.832   2.134 -2.5154  0.4394 -0.9995
17532TIP3    H274088   3.691   5.775   1.998  1.7210 -0.0039 -1.9867
17533TIP3   OH274089   3.212   0.305   2.517  0.1599  0.2696  0.7997
17533TIP3    H174090   3.257   0.227   2.549  1.0385  0.1588 -0.6168
17533TIP3    H274091   3.135   0.271   2.472  0.0903  0.2767  0.9135
17534TIP3   OH274092   4.861   3.582   3.505 -0.1437 -0.1675  0.4534
17534TIP3    H174093   4.860   3.560   3.412 -0.2625  1.2305  0.0993
17534TIP3    H274094   4.780   3.544   3.539 -0.3700 -0.2354 -0.1368
17535TIP3   OH274095   4.674   1.873   0.540 -0.0328  0.2287  0.1603
17535TIP3    H174096   4.652   1.965   0.526  0.1808  0.1957 -0.4109
17535TIP3    H274097   4.757   1.861   0.494 -0.7797 -0.5998 -1.0496
17536TIP3   OH274098   4.851   2.726   3.647  0.5424  0.2086 -0.6040
17536TIP3    H174099   4.859   2.791   3.717  2.4982  3.2494 -3.3809
17536TIP3    H274100   4.917   2.660   3.668 -0.2987 -0.0630  1.4024
17537TIP3   OH274101   5.100   2.743  14.287 -0.3308  0.1197  0.2508
17537TIP3    H174102   5.126   2.681  14.355 -0.1259  0.4346  0.4669
17537TIP3    H274103   5.015   2.777  14.317 -0.4744 -0.1091  0.0986
17538TIP3   OH274104   4.414   3.287   4.771  0.1227 -0.2592 -0.1439
17538TIP3    H174105   4.393   3.194   4.774 -1.2759 -0.0182 -1.2174
17538TIP3    H274106   4.353   3.323   4.707 -0.7146  1.7508  1.6722
17539TIP3   OH274107   1.385   6.825   0.404 -0.0796  0.2762 -0.1335
17539TIP3    H174108   1.470   6.820   0.360 -0.0670  2.8634 -0.5417
17539TIP3    H274109   1.385   6.910   0.447 -3.0054  1.0451 -1.3786
17540TIP3   OH274110   6.328   6.376   3.620  0.1626 -0.7798 -0.2198
17540TIP3    H174111   6.318   6.391   3.714  2.5309  2.0778 -0.2658
17540TIP3    H274112   6.257   6.426   3.579  1.2699  1.0769  0.0201
17541TIP3   OH274113   1.349   6.058   4.380  0.2828 -0.2166 -0.0031
17541TIP3    H174114   1.268   6.021   4.346  0.3915 -1.2327  0.7868
17541TIP3    H274115   1.336   6.063   4.475  0.3245  1.6991 -0.0598
17542TIP3   OH274116   4.876   1.649  16.853 -0.1396 -0.2784  0.2198
17542TIP3    H174117   4.955   1.615  16.895  0.3594 -0.0799 -0.5384
17542TIP3    H274118   4.909   1.707  16.784 -0.9116  2.3651  1.8941
17543TIP3   OH274119   1.849   3.513   4.398  0.8260  0.0398 -0.4718
17543TIP3    H174120   1.860   3.552   4.485  1.3833  3.4899 -1.9215
17543TIP3    H274121   1.755   3.496   4.391  1.0698 -2.9127  1.6930
17544TIP3   OH274122   1.105   4.127  16.715 -0.3950 -0.4661 -0.2844
17544TIP3    H174123   1.088   4.071  16.639  0.1144  0.0356 -0.7830
17544TIP3    H274124   1.187   4.093  16.751  0.5436  0.6481 -1.2787
17545TIP3   OH274125   4.228   6.577  12.933  0.2116 -0.0984  0.2621
17545TIP3    H174126   4.174   6.598  12.857  0.8466 -0.3688 -0.2627
17545TIP3    H274127   4.317   6.602  12.908  1.0125 -3.1534 -0.3394
17546TIP3   OH274128   6.371   0.023   5.734 -0.0638  0.1863 -0.0069
17546TIP3    H174129   6.337   0.113   5.739 -0.1778  0.0652  2.5180
17546TIP3    H274130   6.466   0.034   5.743 -0.1252  0.0468  0.9163
17547TIP3   OH274131   0.871   5.953   5.690  0.4286  0.2157 -0.4153
17547TIP3    H174132   0.917   5.872   5.712 -0.1374  0.4166  1.7300
17547TIP3    H274133   0.789   5.924   5.649  0.2716 -0.3279  0.2624
17548TIP3   OH274134   4.331   2.241  16.981 -0.4632  0.9675 -0.7494
17548TIP3    H174135   4.337   2.235  16.886  0.2716  1.5979 -0.7588
17548TIP3    H274136   4.402   2.302  17.005  0.8283 -0.8845  0.3915
17549TIP3   OH274137   2.793   5.661  13.625  0.0205  0.1760  0.1996
17549TIP3    H174138   2.770   5.672  13.533  0.5709  0.1457  0.0539
17549TIP3    H274139   2.709   5.667  13.671 -0.5222 -1.6475 -0.4549
17550TIP3   OH274140   5.120   6.268   2.293  0.6052  0.0077  0.2919
17550TIP3    H174141   5.106   6.217   2.373 -1.0052 -0.9761 -0.5809
17550TIP3    H274142   5.109   6.206   2.222 -2.5719  1.6587 -0.8742
17551TIP3   OH274143   5.270   5.899   5.878 -0.0962  0.0696  0.4542
17551TIP3    H174144   5.345   5.846   5.905 -0.8477 -1.8172 -0.9447
17551TIP3    H274145   5.209   5.895   5.951 -0.0116 -0.7925  0.4893
17552TIP3   OH274146   3.337   1.687   4.000  0.5003  0.1742  0.3882
17552TIP3    H174147   3.400   1.729   3.942 -0.0514 -1.7657 -1.8007
17552TIP3    H274148   3.252   1.711   3.964  0.1579 -1.6524 -0.1326
17553TIP3   OH274149   5.957   4.200   4.114  0.0505  0.0079 -0.1921
17553TIP3    H174150   5.927   4.242   4.195 -0.5019 -1.2076  0.2484
17553TIP3    H274151   5.877   4.184   4.064  0.2586 -0.4704 -0.3760
17554TIP3   OH274152   1.496   3.012  11.748 -0.7852  0.6260 -0.1630
17554TIP3    H174153   1.525   2.938  11.694  2.1645  0.7122  1.1014
17554TIP3    H274154   1.470   2.972  11.831  1.2138  0.9458  0.6725
17555TIP3   OH274155   3.593   3.596  11.379 -0.0762 -0.0224  0.2336
17555TIP3    H174156   3.647   3.572  11.304  1.5660  2.0103  0.6684
17555TIP3    H274157   3.506   3.612  11.342  0.0529 -1.5266 -0.7963
17556TIP3   OH274158   6.732   6.205  14.395 -0.0638 -0.1431  0.3471
17556TIP3    H174159   6.805   6.144  14.410  0.0981 -0.9968 -3.1318
17556TIP3    H274160   6.654   6.151  14.406  0.0066 -0.4279 -0.4996
17557TIP3   OH274161   5.228   3.801   3.171 -0.1001  0.0289  0.2415
17557TIP3    H174162   5.158   3.862   3.148  1.4096  1.4310 -0.8259
17557TIP3    H274163   5.195   3.715   3.143 -0.8520  0.8440 -1.5109
17558TIP3   OH274164   0.063   1.022   2.707  0.5712  0.3007 -0.0149
17558TIP3    H174165   0.122   1.087   2.669  0.3673 -0.0331 -0.9068
17558TIP3    H274166   0.119   0.947   2.727  0.3898 -0.1962 -1.2916
17559TIP3   OH274167   2.713   5.671   5.669 -0.1438 -0.3457 -0.2324
17559TIP3    H174168   2.736   5.675   5.761  0.0907  0.3248 -0.3127
17559TIP3    H274169   2.623   5.637   5.668  0.0599 -0.9059  0.2010
17560TIP3   OH274170   3.720   5.463  11.821 -0.1182  0.6528  0.4637
17560TIP3    H174171   3.765   5.497  11.898 -1.1121 -1.0564  1.8406
17560TIP3    H274172   3.725   5.368  11.829 -1.7135  0.4239 -0.6703
17561TIP3   OH274173   6.209   0.561   5.072 -0.3059  0.6658  0.1501
17561TIP3    H174174   6.133   0.597   5.119  0.2023  1.5015  0.3559
17561TIP3    H274175   6.192   0.467   5.069 -1.7419  0.9129 -0.5262
17562TIP3   OH274176   2.890   0.281   5.304 -0.0333  0.4877 -0.3154
17562TIP3    H174177   2.982   0.258   5.291  0.0606  0.3575  0.4805
17562TIP3    H274178   2.886   0.376   5.288  0.6361  0.8592  1.4680
17563TIP3   OH274179   5.018   6.233  16.035  0.0147 -0.3994 -0.4674
17563TIP3    H174180   5.108   6.262  16.051  0.5161 -0.6314 -2.5657
17563TIP3    H274181   4.999   6.262  15.945 -2.5997  1.0425  0.4471
17564TIP3   OH274182   2.838   1.206  17.193 -0.3512 -0.1721 -0.4568
17564TIP3    H174183   2.874   1.118  17.200  0.0493  0.0546  0.5965
17564TIP3    H274184   2.884   1.256  17.261 -2.3292  0.2587  0.6387
17565TIP3   OH274185   2.938   4.984   1.412 -0.4336  0.7895  1.1854
17565TIP3    H174186   2.990   4.906   1.429  0.6455  1.0141 -0.7041
17565TIP3    H274187   2.875   4.958   1.345 -0.5833  1.3325  1.1035
17566TIP3   OH274188   5.332   2.363   3.524  0.4129 -0.1777 -0.0769
17566TIP3    H174189   5.302   2.330   3.439 -1.6507  1.1655  0.0513
17566TIP3    H274190   5.269   2.327   3.586  1.4530 -0.5159  0.7926
17567TIP3   OH274191   5.851   0.947   2.531 -0.6333 -0.3057  0.2902
17567TIP3    H174192   5.887   1.029   2.497 -1.4902 -0.0729 -0.0806
17567TIP3    H274193   5.888   0.940   2.619 -1.1136  0.8607  0.6087
17568TIP3   OH274194   5.136   0.474   5.950  0.5044  0.3089  0.3768
17568TIP3    H174195   5.100   0.455   6.037  1.7639 -2.3280  0.4433
17568TIP3    H274196   5.142   0.569   5.946  0.7644  0.5084  3.3522
17569TIP3   OH274197   5.067   6.337   5.888  0.3179 -0.1569  0.2954
17569TIP3    H174198   4.983   6.291   5.886  0.5739 -0.9928  3.3375
17569TIP3    H274199   5.132   6.270   5.867  0.3818 -0.1239  0.3859
17570TIP3   OH274200   1.966   5.984   3.163  0.2941 -0.2995 -0.4282
17570TIP3    H174201   1.940   6.075   3.155  0.9187 -0.1379 -0.7161
17570TIP3    H274202   2.008   5.978   3.249 -0.2187 -0.4388 -0.1859
17571TIP3   OH274203   4.876   4.627  11.709  0.0387 -0.0823  0.0670
17571TIP3    H174204   4.786   4.658  11.723 -0.2688 -0.3241 -1.2428
17571TIP3    H274205   4.896   4.651  11.619  1.0588 -0.6053  0.1405
17572TIP3   OH274206   6.731   3.779  16.389  0.2278 -0.5558 -0.5957
17572TIP3    H174207   6.719   3.873  16.403 -1.8347 -0.7692 -0.5894
17572TIP3    H274208   6.814   3.772  16.341  1.3952  1.0837  1.0548
17573TIP3   OH274209   2.422   6.348   4.127  0.4607  0.0655 -0.1383
17573TIP3    H174210   2.408   6.288   4.200  1.6000 -0.3750 -0.2649
17573TIP3    H274211   2.363   6.316   4.058 -0.1814  0.1264  0.3787
17574TIP3   OH274212   2.277   6.285   0.207  0.0715 -0.0352 -0.0174
17574TIP3    H174213   2.320   6.309   0.289  0.3676  1.1889 -0.4996
17574TIP3    H274214   2.346   6.290   0.141 -0.5154  0.6765 -0.5968
17575TIP3   OH274215   5.311   6.537   1.279 -0.0727  0.0410 -0.3528
17575TIP3    H174216   5.279   6.566   1.365 -0.5164  1.3801 -0.9430
17575TIP3    H274217   5.342   6.617   1.237  2.1092 -0.8968 -0.6547
17576TIP3   OH274218   3.328   6.457   6.126 -0.2835 -0.2444  0.2160
17576TIP3    H174219   3.422   6.462   6.112 -0.0331 -2.3165  0.7386
17576TIP3    H274220   3.314   6.503   6.209  0.1648  0.5370 -0.1297
17577TIP3   OH274221   2.470   4.603  15.664  0.3076 -0.1682 -0.0380
17577TIP3    H174222   2.497   4.654  15.740  0.5409  1.5017 -1.1709
17577TIP3    H274223   2.548   4.598  15.609 -0.3185  0.2527 -1.0014
17578TIP3   OH274224   2.926   1.953  15.323  0.7688  0.2211 -0.5837
17578TIP3    H174225   2.863   1.948  15.250  0.0060  0.8104  0.0113
17578TIP3    H274226   2.953   1.863  15.338  0.0584 -0.0466 -0.8601
17579TIP3   OH274227   2.830   6.111   5.929  0.3909  0.2366  0.4437
17579TIP3    H174228   2.897   6.043   5.941  0.8082  0.8519  1.7557
17579TIP3    H274229   2.759   6.067   5.883  1.3581 -0.6422 -0.2614
17580TIP3   OH274230   0.782   1.931   0.788  0.3157 -0.1479 -0.6070
17580TIP3    H174231   0.788   1.842   0.821  1.3275 -0.3866 -1.4002
17580TIP3    H274232   0.733   1.923   0.706 -0.6525  0.2038 -0.0792
17581TIP3   OH274233   5.696   5.266  11.807 -0.2437  0.1268  0.0050
17581TIP3    H174234   5.781   5.296  11.775 -0.7336 -0.0338 -1.5540
17581TIP3    H274235   5.648   5.242  11.728 -1.7360  0.1953  0.8521
17582TIP3   OH274236   0.355   3.053   2.849 -0.0539  0.0268 -0.3586
17582TIP3    H174237   0.440   3.094   2.864  0.3902  0.6204 -3.7337
17582TIP3    H274238   0.309   3.062   2.932  2.2467  1.9964  0.8159
17583TIP3   OH274239   4.894   4.899   1.682 -0.0941 -0.2700  0.6382
17583TIP3    H174240   4.906   4.885   1.775 -0.0319 -1.4635  0.4588
17583TIP3    H274241   4.911   4.993   1.670 -0.6512  0.0066  1.8931
17584TIP3   OH274242   0.333   0.048  13.717 -0.4522 -0.1812  0.6435
17584TIP3    H174243   0.313  -0.038  13.680 -1.0268 -1.0629  2.8134
17584TIP3    H274244   0.248   0.093  13.721 -0.2811  0.1798  0.2357
17585TIP3   OH274245   0.412   6.509   1.849  0.0689 -0.1457  0.2404
17585TIP3    H174246   0.452   6.456   1.780  0.4790 -0.2659  0.5654
17585TIP3    H274247   0.344   6.559   1.805  0.7907  0.3014 -0.3887
17586TIP3   OH274248   3.113   6.481   2.345 -0.6900  0.1477 -0.3733
17586TIP3    H174249   3.177   6.552   2.349 -0.1409 -0.2870 -1.1059
17586TIP3    H274250   3.053   6.498   2.418  0.7925  0.0611  0.9162
17587TIP3   OH274251   1.721   0.291  17.095 -0.1613  0.4929  0.2538
17587TIP3    H174252   1.702   0.233  17.021  0.8130 -0.2726  0.5962
17587TIP3    H274253   1.766   0.366  17.055  1.3877 -0.4346  0.1762
17588TIP3   OH274254   5.051   0.447   6.559 -0.3258  0.2194 -0.3064
17588TIP3    H174255   5.053   0.352   6.548 -1.5256 -0.2229  2.3393
17588TIP3    H274256   4.958   0.469   6.553 -0.2637  0.8991  0.8809
17589TIP3   OH274257   3.862   3.959  15.681  0.2946 -0.3254  0.0976
17589TIP3    H174258   3.907   4.034  15.641 -1.6766  0.6642 -0.3898
17589TIP3    H274259   3.923   3.927  15.747  1.1436  1.8272  0.4381
17590TIP3   OH274260   1.389   0.367   6.172 -0.0073 -0.0010  0.5290
17590TIP3    H174261   1.302   0.327   6.171  0.9042 -2.2276  1.8103
17590TIP3    H274262   1.412   0.372   6.265  0.8286  1.5668  0.2675
17591TIP3   OH274263   1.788   0.059  15.931  1.1059  0.3674  0.4386
17591TIP3    H174264   1.733   0.083  15.857  2.4371  0.6807 -0.4916
17591TIP3    H274265   1.830   0.141  15.959  0.4244  0.3061  1.7312
17592TIP3   OH274266   4.321   2.118  14.192  0.0848 -0.3382  0.5490
17592TIP3    H174267   4.406   2.111  14.148  0.0930 -0.9539  0.6586
17592TIP3    H274268   4.307   2.213  14.202 -0.2659 -0.1127 -1.4768
17593TIP3   OH274269   3.983   2.207   1.838  0.8436 -0.2958 -0.0274
17593TIP3    H174270   4.034   2.128   1.824  3.1744  1.2704 -0.9661
17593TIP3    H274271   3.998   2.229   1.930 -0.2723 -1.1847  0.3964
17594TIP3   OH274272   2.943   2.732  11.965 -0.4892  0.4654  0.1806
17594TIP3    H174273   2.893   2.656  11.937 -0.0959 -0.1111  1.0250
17594TIP3    H274274   3.001   2.700  12.033 -0.8846  1.6879  1.1291
17595TIP3   OH274275   3.590   0.514  12.457  0.1107  0.8385  0.0630
17595TIP3    H174276   3.677   0.540  12.489  0.2295 -0.1975  0.5917
17595TIP3    H274277   3.608   0.474  12.371  0.1998  0.3184  0.3212
17596TIP3   OH274278   0.166   4.716   0.838 -0.1649  0.0664 -0.1400
17596TIP3    H174279   0.260   4.698   0.842 -0.1022  0.2627 -0.6524
17596TIP3    H274280   0.128   4.635   0.803 -0.3934 -0.6314  1.6014
17597TIP3   OH274281   6.283   1.785  15.770 -0.5939 -0.1725  0.4552
17597TIP3    H174282   6.265   1.738  15.852  1.5213 -0.0525  1.0417
17597TIP3    H274283   6.258   1.723  15.701 -1.1476 -0.7792  1.1835
17598TIP3   OH274284   3.260   4.885  15.081  0.1541  0.1573 -0.4746
17598TIP3    H174285   3.199   4.820  15.048  0.0780 -0.3334  0.6125
17598TIP3    H274286   3.343   4.864  15.036 -0.2969  0.4410 -1.4750
17599TIP3   OH274287   3.414   0.698  13.215  0.1838  0.0967 -0.4726
17599TIP3    H174288   3.497   0.700  13.263  1.1693  0.4307 -2.1293
17599TIP3    H274289   3.359   0.763  13.260  0.3917 -0.8934  1.3080
17600TIP3   OH274290   3.443   4.061  10.614 -0.1477  0.1836 -0.3337
17600TIP3    H174291   3.498   4.007  10.557  0.2953 -0.5085  0.7095
17600TIP3    H274292   3.487   4.146  10.615  1.9447 -0.8162  1.8048
17601TIP3   OH274293   0.845   4.853  13.232 -0.6207  0.8565  0.4289
17601TIP3    H174294   0.821   4.871  13.323  0.4526  0.3596  0.8269
17601TIP3    H274295   0.857   4.939  13.192 -1.3024  1.0774  0.6924
17602TIP3   OH274296   2.092   1.737  13.819  0.1672  0.5516 -0.3573
17602TIP3    H174297   2.061   1.823  13.791 -1.7505 -0.5276 -1.7494
17602TIP3    H274298   2.042   1.718  13.899 -0.4600  0.1479 -0.8393
17603TIP3   OH274299   5.955   1.092   0.241 -0.0190  0.1714 -0.0781
17603TIP3    H174300   5.862   1.068   0.239 -0.2606  0.7702  1.9827
17603TIP3    H274301   5.998   1.027   0.186 -1.6790  0.0232 -1.2676
17604TIP3   OH274302   4.880   1.246   2.836  0.2222  0.3163  0.1958
17604TIP3    H174303   4.959   1.241   2.782  0.5050 -2.9292  0.7426
17604TIP3    H274304   4.808   1.234   2.774  0.2244  1.3009 -0.0245
17605TIP3   OH274305   3.449   6.240   2.151 -0.4207 -0.7407  0.0760
17605TIP3    H174306   3.361   6.276   2.138 -0.9536 -1.7437  0.7976
17605TIP3    H274307   3.483   6.226   2.063  0.4503  2.9308 -0.3489
17606TIP3   OH274308   3.648   6.380  12.540 -0.3306  0.0074 -0.2740
17606TIP3    H174309   3.658   6.362  12.446  0.0544  0.0832 -0.2467
17606TIP3    H274310   3.650   6.293  12.581  0.5301  0.0402 -0.2387
17607TIP3   OH274311   4.320   3.389   5.715  0.4965 -0.7128  0.5804
17607TIP3    H174312   4.337   3.345   5.798  2.2946 -1.1019  0.0581
17607TIP3    H274313   4.267   3.327   5.665 -1.9154  0.1373  1.9347
17608TIP3   OH274314   1.168   2.134  16.244  0.3001  0.1272  0.3961
17608TIP3    H174315   1.127   2.047  16.245  0.5478 -0.0027 -0.2992
17608TIP3    H274316   1.246   2.124  16.298  2.6520 -1.2740 -2.9128
17609TIP3   OH274317   2.744   0.340   3.855  0.1664  0.5035 -0.6003
17609TIP3    H174318   2.699   0.266   3.896  1.7476 -0.6161 -0.7966
17609TIP3    H274319   2.773   0.394   3.928  2.2901 -1.0807 -0.1734
17610TIP3   OH274320   2.957   0.846   0.669  0.4285 -0.0885  0.1268
17610TIP3    H174321   2.986   0.930   0.705 -0.5503  0.0662  0.6115
17610TIP3    H274322   2.871   0.865   0.632  1.5700 -0.1262 -2.7945
17611TIP3   OH274323   1.394   1.702  11.990  0.0109 -0.3931  0.0028
17611TIP3    H174324   1.305   1.685  12.021  0.5119 -2.4292  0.4596
17611TIP3    H274325   1.386   1.707  11.895 -0.6646  0.0898  0.0743
17612TIP3   OH274326   3.154   2.680   0.058  0.1205  0.5384  0.1465
17612TIP3    H174327   3.069   2.636   0.052  1.2301 -1.5350 -1.2428
17612TIP3    H274328   3.141   2.763   0.011 -0.6202 -0.6461 -1.8576
17613TIP3   OH274329   0.724   1.560   3.242  0.0224 -0.5732 -0.1294
17613TIP3    H174330   0.781   1.504   3.189  0.4279 -0.5345  0.2539
17613TIP3    H274331   0.763   1.647   3.235 -0.6133 -0.3288 -0.7339
17614TIP3   OH274332   3.915   2.041  12.538  0.1761  0.1305 -0.3245
17614TIP3    H174333   3.881   2.083  12.617 -0.3316  0.5348 -0.7473
17614TIP3    H274334   3.891   2.101  12.467 -0.3034 -0.7329 -0.9078
17615TIP3   OH274335   3.765   0.673  12.814  0.5390 -0.0519 -0.0747
17615TIP3    H174336   3.786   0.579  12.812  0.8728  0.0137 -2.6601
17615TIP3    H274337   3.684   0.678  12.865  1.3900 -1.5231  1.5259
17616TIP3   OH274338   6.650   1.943   0.553 -0.3528 -0.0662  0.0927
17616TIP3    H174339   6.609   1.966   0.469  0.6615  0.2007 -0.3458
17616TIP3    H274340   6.650   1.848   0.555 -0.3344 -0.0755 -0.2474
17617TIP3   OH274341   6.692   4.676  14.702 -0.0253  0.1211  0.0286
17617TIP3    H174342   6.691   4.582  14.685 -2.1616  0.0086  0.5471
17617TIP3    H274343   6.671   4.716  14.617 -1.3164  0.0013  0.2743
17618TIP3   OH274344   1.344   5.835   2.723 -0.3598  0.2020  0.1373
17618TIP3    H174345   1.267   5.859   2.671  0.2862  0.6157 -0.6411
17618TIP3    H274346   1.397   5.914   2.727  0.9831 -0.5752 -1.0375
17619TIP3   OH274347   0.690   3.395  11.977 -0.1091  0.3897  0.0092
17619TIP3    H174348   0.659   3.351  12.056  0.0643  0.9579  0.3997
17619TIP3    H274349   0.740   3.470  12.010  0.3668  0.3559 -0.6314
17620TIP3   OH274350   3.795   2.999  13.511  0.2232  0.3975  0.0897
17620TIP3    H174351   3.780   2.989  13.605  0.7369  2.6180  0.4547
17620TIP3    H274352   3.766   2.916  13.474  0.2807 -0.6566  2.2259
17621TIP3   OH274353   2.388   6.837   4.918 -0.1747 -0.1700 -0.1792
17621TIP3    H174354   2.350   6.750   4.904  0.5315 -0.4727 -0.2583
17621TIP3    H274355   2.320   6.897   4.889  0.1023 -0.7225 -2.2006
17622TIP3   OH274356   1.600   6.182   1.744  0.2645  0.5991  0.3722
17622TIP3    H174357   1.517   6.187   1.793  1.0694  1.8963  1.6898
17622TIP3    H274358   1.643   6.266   1.762  1.4582  0.3324 -1.0613
17623TIP3   OH274359   1.881   3.382  17.061  0.9315 -0.2170  0.0557
17623TIP3    H174360   1.919   3.325  16.995  0.0271 -0.6004 -0.1545
17623TIP3    H274361   1.788   3.358  17.063  0.4063  1.6187 -0.4352
17624TIP3   OH274362   2.243   2.753  16.722  0.3717  0.1483  0.3778
17624TIP3    H174363   2.264   2.796  16.639  1.4539 -2.1129 -0.6128
17624TIP3    H274364   2.227   2.825  16.782  1.7869  1.9417 -1.2229
17625TIP3   OH274365   4.306   3.518  15.144 -0.0813 -0.9632 -0.8897
17625TIP3    H174366   4.357   3.598  15.133  1.1491 -1.5141  0.5036
17625TIP3    H274367   4.371   3.448  15.147 -0.9097 -1.7156  0.6314
17626TIP3   OH274368   2.039   1.554  16.797 -0.8572  0.5577 -0.0692
17626TIP3    H174369   2.056   1.648  16.801  0.9162  0.2306  1.1580
17626TIP3    H274370   1.947   1.547  16.772 -0.7773  2.5976 -1.1153
17627TIP3   OH274371   2.600   5.591  12.364  1.0685  0.4549  0.2553
17627TIP3    H174372   2.549   5.618  12.288  0.4998  1.1544  0.8684
17627TIP3    H274373   2.681   5.641  12.358  1.2992  0.0247 -0.2329
17628TIP3   OH274374   6.813   4.009  10.475 -0.2574 -0.4809  0.6859
17628TIP3    H174375   6.729   4.016  10.521 -0.2847 -0.7477  0.6813
17628TIP3    H274376   6.879   4.013  10.544 -0.2594  0.0853  0.6561
17629TIP3   OH274377   1.859   6.199   0.326  0.0125  0.1023 -0.5171
17629TIP3    H174378   1.876   6.266   0.261  0.8904  0.8711  0.4729
17629TIP3    H274379   1.803   6.135   0.281 -1.7127  1.9704 -1.2031
17630TIP3   OH274380   5.028   1.487  12.303 -0.2490  0.4873 -0.5297
17630TIP3    H174381   4.990   1.475  12.390  0.1635 -1.2617 -0.5599
17630TIP3    H274382   5.117   1.517  12.319  0.1645 -0.8179 -0.2984
17631TIP3   OH274383   0.962   2.801   1.359  0.2147 -0.2774  0.0575
17631TIP3    H174384   1.026   2.805   1.288  0.2791  0.0092  0.1305
17631TIP3    H274385   0.975   2.714   1.397  2.6794  0.7940  1.9812
17632TIP3   OH274386   6.039   0.402   3.238 -0.0271  0.4067 -0.5786
17632TIP3    H174387   6.068   0.484   3.198 -1.3056  1.1423 -0.0656
17632TIP3    H274388   5.950   0.420   3.269  0.5898 -0.3403  1.8850
17633TIP3   OH274389   6.040   1.043   3.194 -0.5623  0.0854 -0.3568
17633TIP3    H174390   6.076   0.954   3.192 -0.2310  0.1427  1.4220
17633TIP3    H274391   6.109   1.095   3.235 -0.5636  1.2836 -1.8012
17634TIP3   OH274392   4.746   1.948  15.524  0.4910  0.1218 -0.3133
17634TIP3    H174393   4.677   1.884  15.508  1.0279 -1.0111  1.5912
17634TIP3    H274394   4.811   1.931  15.456 -0.1591 -0.1878 -0.8632
17635TIP3   OH274395   6.014   5.293   1.233 -0.3277 -0.0206  0.4063
17635TIP3    H174396   6.093   5.243   1.255 -0.8240 -1.0975 -0.2022
17635TIP3    H274397   5.963   5.235   1.177 -1.9644  0.3211  1.4647
17636TIP3   OH274398   4.445   3.935   5.178  0.6265 -0.6049 -0.5163
17636TIP3    H174399   4.364   3.907   5.135  0.0462 -1.5360  1.1034
17636TIP3    H274400   4.512   3.926   5.110 -0.1375 -2.6308 -1.0894
17637TIP3   OH274401   6.828   3.167   5.707 -0.2563 -0.4552 -0.2189
17637TIP3    H174402   6.827   3.134   5.797  0.6232  1.0350  0.3631
17637TIP3    H274403   6.801   3.092   5.654 -0.4480 -1.4609  1.2481
17638TIP3   OH274404   5.686   1.879   3.950 -0.1227 -0.2123  0.0600
17638TIP3    H174405   5.607   1.869   3.896 -0.7514  1.1661  0.6611
17638TIP3    H274406   5.754   1.905   3.887 -0.0219 -1.7958 -0.5205
17639TIP3   OH274407   1.152   4.876   0.357  0.2110  0.0096  0.2590
17639TIP3    H174408   1.131   4.960   0.314  0.6132  0.4380  0.8976
17639TIP3    H274409   1.215   4.835   0.299  0.2313  0.2766  0.0893
17640TIP3   OH274410   0.534   4.833   3.686 -0.0504  0.4690  0.8045
17640TIP3    H174411   0.495   4.841   3.773 -0.7752 -1.3360  0.6981
17640TIP3    H274412   0.460   4.818   3.627  0.6347 -1.9780  0.4433
17641TIP3   OH274413   0.756   2.785   5.807  0.5421 -0.4223  0.2206
17641TIP3    H174414   0.714   2.828   5.881  0.6295 -0.9989  0.6172
17641TIP3    H274415   0.758   2.692   5.831  1.8860 -0.4352  0.1512
17642TIP3   OH274416   5.451   0.402  13.413  0.3643 -0.0495  0.1375
17642TIP3    H174417   5.459   0.472  13.348  3.4354 -0.2063  0.1648
17642TIP3    H274418   5.493   0.326  13.372  1.5555 -0.4164  1.8873
17643TIP3   OH274419   2.550   1.439   4.345  0.1892  0.8110  0.4153
17643TIP3    H174420   2.617   1.409   4.284 -0.2093 -0.4050  0.5541
17643TIP3    H274421   2.486   1.368   4.347  0.1601  0.8404  2.2037
17644TIP3   OH274422   2.132   6.121   5.019 -0.4388 -0.3474 -0.1186
17644TIP3    H174423   2.124   6.071   5.100 -1.9061  0.0773  0.0246
17644TIP3    H274424   2.144   6.211   5.047  0.7162 -0.4008 -0.3871
17645TIP3   OH274425   4.061   1.734   0.997 -0.7221  0.1551 -0.5220
17645TIP3    H174426   3.976   1.728   0.953 -1.1731  2.1452 -0.0040
17645TIP3    H274427   4.124   1.744   0.926 -0.9832 -0.5514 -0.8677
17646TIP3   OH274428   3.023   5.218   2.386 -0.2596  0.1525  0.7858
17646TIP3    H174429   2.962   5.185   2.452 -0.0779 -1.5374  0.1407
17646TIP3    H274430   2.974   5.213   2.304  0.2360  0.2299  0.4846
17647TIP3   OH274431   6.223   3.109   2.172  0.0129  0.6516  0.8653
17647TIP3    H174432   6.217   3.204   2.173  0.3074  0.6899 -0.2982
17647TIP3    H274433   6.167   3.082   2.100  1.1772  0.0502  0.1617
17648TIP3   OH274434   0.950   1.290   4.744 -0.3704 -0.3215 -0.4459
17648TIP3    H174435   1.026   1.340   4.713  0.0340 -1.1638 -0.8524
17648TIP3    H274436   0.891   1.287   4.669 -1.8321  2.1508  0.4776
17649TIP3   OH274437   2.957   1.248  16.785 -0.1451  0.2085  0.9472
17649TIP3    H174438   2.890   1.249  16.717  0.8940 -1.2458 -0.1621
17649TIP3    H274439   2.943   1.329  16.834 -0.1514  1.9741 -1.7679
17650TIP3   OH274440   3.174   1.232  15.922  0.1013 -0.1397  0.5245
17650TIP3    H174441   3.235   1.300  15.890  0.5233 -0.4658  0.6263
17650TIP3    H274442   3.175   1.166  15.853 -0.4456  0.0357  0.3461
17651TIP3   OH274443   6.710   1.017   5.058  0.8791 -0.1024  0.0474
17651TIP3    H174444   6.711   1.113   5.053  0.2155  0.0028  1.2641
17651TIP3    H274445   6.802   0.992   5.059  1.0588  0.4455 -1.2686
17652TIP3   OH274446   3.877   2.002  13.836  0.1390  0.6125  0.0994
17652TIP3    H174447   3.850   2.057  13.910 -2.1754 -2.3611  1.6546
17652TIP3    H274448   3.954   1.954  13.869 -0.9882 -0.8311  0.7428
17653TIP3   OH274449   4.106   3.651   2.731 -0.9669 -0.0371  0.4156
17653TIP3    H174450   4.163   3.728   2.739  0.4052 -0.8016 -1.4416
17653TIP3    H274451   4.033   3.670   2.790 -0.0685  2.1280  0.9407
17654TIP3   OH274452   4.415   6.754   4.848  0.1469  0.4782  0.4277
17654TIP3    H174453   4.502   6.731   4.881  0.2722 -0.4771 -0.5245
17654TIP3    H274454   4.418   6.849   4.838  1.0446  0.4696  0.5279
17655TIP3   OH274455   6.223   2.572   1.532 -0.2549  0.1836  0.4618
17655TIP3    H174456   6.294   2.578   1.468 -1.8131 -0.3137 -1.3886
17655TIP3    H274457   6.219   2.478   1.553 -1.0897  0.0178 -0.3543
17656TIP3   OH274458   5.817   5.796  15.414  0.0742 -0.7771  0.1526
17656TIP3    H174459   5.882   5.775  15.481  0.5179 -2.1250 -0.6795
17656TIP3    H274460   5.804   5.890  15.422  1.4949 -0.6263  0.8833
17657TIP3   OH274461   5.405   2.742   3.593  0.0433  0.3119  0.2148
17657TIP3    H174462   5.418   2.784   3.508 -1.3248 -0.4118 -0.3846
17657TIP3    H274463   5.351   2.803   3.643  0.7479  0.6832  0.5453
17658TIP3   OH274464   4.701   5.876  11.256 -0.2511  0.4575  0.1546
17658TIP3    H174465   4.753   5.930  11.196  1.4763  0.5205  1.6190
17658TIP3    H274466   4.631   5.841  11.202  0.0275  2.1658 -1.4155
17659TIP3   OH274467   1.879   3.145  16.579 -0.4890  0.1984 -0.1934
17659TIP3    H174468   1.961   3.110  16.545  0.4846  1.9835  0.1808
17659TIP3    H274469   1.861   3.221  16.525 -2.6287 -0.8682 -1.0910
17660TIP3   OH274470   4.968   4.169   1.594  0.1157  0.0660  0.0196
17660TIP3    H174471   4.969   4.255   1.551  3.0404 -0.0429 -0.3743
17660TIP3    H274472   5.056   4.161   1.631 -0.1257 -2.7183  0.1694
17661TIP3   OH274473   3.776   3.983  15.153 -0.5029  0.2048 -0.4912
17661TIP3    H174474   3.864   3.990  15.189 -0.4991 -2.8646  0.4306
17661TIP3    H274475   3.769   4.055  15.091  2.6361  0.5725 -0.5747
17662TIP3   OH274476   3.685   3.453   5.223  0.1279 -0.2384  0.5998
17662TIP3    H174477   3.600   3.471   5.264 -0.7552  3.4340 -2.3055
17662TIP3    H274478   3.669   3.375   5.170 -0.8543 -0.6944  1.5290
17663TIP3   OH274479   5.684   4.266  15.197  0.4356  0.5398  0.2858
17663TIP3    H174480   5.701   4.359  15.216 -0.4101  1.1179 -1.5186
17663TIP3    H274481   5.612   4.243  15.255  1.2528  0.7179  1.4110
17664TIP3   OH274482   0.037   3.292   4.982 -0.7616  0.2574 -0.0645
17664TIP3    H174483   0.096   3.258   5.049 -1.9139  0.3430  1.0292
17664TIP3    H274484   0.062   3.246   4.902  0.5481  0.0496  0.4424
17665TIP3   OH274485   3.725   2.752  13.413  0.0418  0.3552 -0.1385
17665TIP3    H174486   3.650   2.696  13.435 -0.7531  1.9185  1.3372
17665TIP3    H274487   3.724   2.756  13.317 -1.0141 -0.6381 -0.1961
17666TIP3   OH274488   6.477   1.171  15.905  0.0224  0.1548  0.1341
17666TIP3    H174489   6.554   1.177  15.849  0.4060 -0.4155  0.5949
17666TIP3    H274490   6.476   1.080  15.935  0.1378  0.5968  1.5119
17667TIP3   OH274491   2.514   1.084   5.986 -0.2741  0.4646 -0.2569
17667TIP3    H174492   2.491   1.144   6.057  0.8479  0.2505  0.3142
17667TIP3    H274493   2.550   1.007   6.030 -0.9267 -0.2917 -1.0117
17668TIP3   OH274494   3.079   4.480   2.893 -0.0088  0.4256  0.2870
17668TIP3    H174495   3.063   4.520   2.979  0.6245  1.6344 -0.1472
17668TIP3    H274496   3.168   4.445   2.899 -0.7515 -1.5224  0.8635
17669TIP3   OH274497   6.212   4.915   3.242 -0.2173 -0.8663  1.1995
17669TIP3    H174498   6.142   4.878   3.296  0.7396 -3.0340  1.0511
17669TIP3    H274499   6.220   5.005   3.273 -1.1000 -1.4242  3.2474
17670TIP3   OH274500   6.461   0.855  16.689 -0.2612 -0.2323  0.3507
17670TIP3    H174501   6.394   0.881  16.626  1.1773  1.5346 -0.5477
17670TIP3    H274502   6.531   0.818  16.636  0.7461  0.7758  0.9299
17671TIP3   OH274503   4.779   4.600   1.089 -0.1052 -0.7589 -0.0526
17671TIP3    H174504   4.708   4.664   1.085 -0.8311 -1.5835 -0.7154
17671TIP3    H274505   4.739   4.521   1.125  1.1953 -0.3605  2.5775
17672TIP3   OH274506   2.121   0.608   2.655  0.0215 -0.3423  0.4199
17672TIP3    H174507   2.182   0.664   2.703 -0.4242  0.6762 -0.1745
17672TIP3    H274508   2.174   0.566   2.587  0.1619  0.1797  0.2023
17673TIP3   OH274509   4.401   0.872   2.756 -1.4362  0.2692 -0.0550
17673TIP3    H174510   4.415   0.948   2.699 -1.6483  1.8020  1.8333
17673TIP3    H274511   4.460   0.806   2.721  0.3860  2.0246 -0.5087
17674TIP3   OH274512   0.131   6.545  14.701 -0.6482  0.5371 -0.2897
17674TIP3    H174513   0.116   6.457  14.668  0.8677  0.5409 -1.0750
17674TIP3    H274514   0.162   6.532  14.791 -2.2061  0.3872  0.2463
17675TIP3   OH274515   3.480   2.277  14.196 -0.4229  0.3754  0.1280
17675TIP3    H174516   3.438   2.200  14.156  0.7757  0.6002 -1.7034
17675TIP3    H274517   3.552   2.241  14.247  0.3967  0.2544 -1.0663
17676TIP3   OH274518   2.762   2.247   5.544 -0.1808 -0.3736  0.7524
17676TIP3    H174519   2.779   2.170   5.490  0.5061 -0.6774  1.3927
17676TIP3    H274520   2.667   2.246   5.558 -0.2201 -0.9015  0.4634
17677TIP3   OH274521   3.821   4.254  15.062  0.1049 -0.6452 -0.0017
17677TIP3    H174522   3.845   4.334  15.108 -0.3701 -0.5393  0.0646
17677TIP3    H274523   3.881   4.249  14.988 -0.7972  0.5161 -0.8304
17678TIP3   OH274524   3.168   1.567   5.819 -0.2164 -0.3766 -0.2762
17678TIP3    H174525   3.228   1.576   5.893 -1.6718 -2.1453  1.2058
17678TIP3    H274526   3.107   1.641   5.828 -0.1133 -0.3267  0.0012
17679TIP3   OH274527   3.616   4.991   2.850  0.0330 -0.2694  1.5469
17679TIP3    H174528   3.626   4.954   2.762  0.2221 -0.9342  1.8434
17679TIP3    H274529   3.701   5.031   2.868 -0.0583  0.0102  1.3653
17680TIP3   OH274530   4.881   3.845  12.910 -0.0892  0.0191 -0.2318
17680TIP3    H174531   4.875   3.939  12.897  1.2307  0.2532  0.6795
17680TIP3    H274532   4.973   3.829  12.930 -0.5803 -1.2619  1.1885
17681TIP3   OH274533   0.560   1.358  10.906 -0.1832 -0.7467 -0.3013
17681TIP3    H174534   0.514   1.398  10.833 -1.4476 -1.0570  0.3026
17681TIP3    H274535   0.575   1.267  10.878  2.2929 -0.0576 -1.4887
17682TIP3   OH274536   1.693   0.900   6.257 -0.3367 -0.4123  0.0715
17682TIP3    H174537   1.762   0.909   6.191 -0.7953  0.1483 -0.3413
17682TIP3    H274538   1.638   0.829   6.225  0.0389 -0.8584  0.3995
17683TIP3   OH274539   0.765   6.619  15.960  0.5624 -0.0037 -0.5869
17683TIP3    H174540   0.811   6.702  15.948 -1.4560  1.2224 -0.3138
17683TIP3    H274541   0.683   6.629  15.911 -0.8097 -0.8926  1.3715
17684TIP3   OH274542   5.526   5.531  13.865 -0.2139  0.3467  0.0043
17684TIP3    H174543   5.567   5.544  13.951 -1.2853  1.3540  0.3932
17684TIP3    H274544   5.599   5.525  13.804  0.5278  1.1971  0.7879
17685TIP3   OH274545   4.452   4.166   1.058 -0.1351 -0.2760  0.1255
17685TIP3    H174546   4.430   4.146   1.149  0.4799  1.1719  0.6213
17685TIP3    H274547   4.521   4.104   1.035  0.4536  0.0379  1.0067
17686TIP3   OH274548   0.197   3.557  16.841  0.5254  0.4791 -0.4931
17686TIP3    H174549   0.154   3.549  16.756 -2.7747 -1.0814  1.1537
17686TIP3    H274550   0.157   3.633  16.882 -1.8982 -1.7103  1.5627
17687TIP3   OH274551   5.138   4.889   2.301 -0.9922  0.2341 -0.4059
17687TIP3    H174552   5.054   4.911   2.342  0.1188  1.1864  1.4630
17687TIP3    H274553   5.147   4.795   2.312 -1.3865  0.2703  0.2333
17688TIP3   OH274554   0.998   1.719  11.559 -0.2293 -0.8482  0.2964
17688TIP3    H174555   1.024   1.746  11.471  0.9668  1.6865  1.3183
17688TIP3    H274556   1.060   1.651  11.583  0.9081  0.0388 -0.0225
17689TIP3   OH274557   0.927   0.777   6.360  0.3303  0.0062 -0.0870
17689TIP3    H174558   0.895   0.801   6.273  0.0600 -1.2462 -0.3485
17689TIP3    H274559   0.980   0.852   6.387  1.4250 -0.0567 -1.8535
17690TIP3   OH274560   5.029   5.440  17.138  0.3650 -0.1076  0.3021
17690TIP3    H174561   5.050   5.490  17.058 -0.0272  0.9228  0.8192
17690TIP3    H274562   4.964   5.376  17.109 -1.4692  1.6838  0.1546
17691TIP3   OH274563   6.060   6.335  11.133 -0.1635  0.6618  0.3349
17691TIP3    H174564   6.090   6.328  11.043 -2.1144 -1.5573 -0.2374
17691TIP3    H274565   6.117   6.275  11.181 -0.3488  0.3936  0.2203
17692TIP3   OH274566   0.643   0.693  15.373  0.2240 -0.0061  0.4287
17692TIP3    H174567   0.723   0.643  15.353 -0.1360 -0.9694  1.3184
17692TIP3    H274568   0.572   0.640  15.338 -0.0844  0.4550  0.3515
17693TIP3   OH274569   0.899   0.962   2.747  0.3270 -0.0456 -0.1398
17693TIP3    H174570   0.908   1.017   2.825  0.9882 -0.0865 -0.1828
17693TIP3    H274571   0.923   1.019   2.674  0.8124 -0.3261 -0.2044
17694TIP3   OH274572   3.903   1.072   1.700 -0.1828  0.1873 -0.5165
17694TIP3    H174573   3.854   1.133   1.755  1.7881  1.3278  0.0571
17694TIP3    H274574   3.986   1.059   1.745 -0.1401 -2.2285 -1.1080
17695TIP3   OH274575   4.190   4.148   5.121  0.0289 -0.2723  0.4661
17695TIP3    H174576   4.185   4.055   5.097  1.4049 -0.1646 -0.3558
17695TIP3    H274577   4.245   4.187   5.053  2.2396  0.4808  2.5452
17696TIP3   OH274578   3.800   1.159  10.220  0.2482  0.0902  0.3927
17696TIP3    H174579   3.727   1.220  10.211 -0.0733 -0.3633 -0.0834
17696TIP3    H274580   3.804   1.140  10.314 -0.5541 -0.2619  0.3560
17697TIP3   OH274581   0.504   6.511  11.398  0.3301 -0.0499 -0.0164
17697TIP3    H174582   0.430   6.451  11.404 -0.6398  0.7065 -2.8640
17697TIP3    H274583   0.467   6.591  11.361  1.7264  2.1055  2.8222
17698TIP3   OH274584   4.848   3.976  16.088 -0.2607  0.2280 -0.5356
17698TIP3    H174585   4.909   3.915  16.047 -0.8002  0.4183 -1.6422
17698TIP3    H274586   4.830   3.937  16.174  1.9083  0.4955  0.1224
17699TIP3   OH274587   3.821   0.124  15.075 -0.2986  0.0261 -0.1856
17699TIP3    H174588   3.856   0.088  15.156 -0.6539  1.8389  0.8301
17699TIP3    H274589   3.882   0.095  15.007  0.9949 -0.0719  0.9798
17700TIP3   OH274590   1.442   2.163  16.569  0.2588  0.3597  0.2643
17700TIP3    H174591   1.348   2.179  16.581  0.5253  0.8836  1.8848
17700TIP3    H274592   1.445   2.091  16.506 -1.1920  0.9783 -0.5848
17701TIP3   OH274593   5.854   2.355  17.119  0.2300 -0.4620  0.1776
17701TIP3    H174594   5.856   2.350  17.023 -1.0857 -2.0419  0.1965
17701TIP3    H274595   5.942   2.385  17.143 -0.2026  2.7247 -1.6185
17702TIP3   OH274596   3.759   1.254   4.798 -0.1102  0.0542 -0.2705
17702TIP3    H174597   3.719   1.297   4.722 -1.0459 -0.4976 -0.1155
17702TIP3    H274598   3.827   1.314   4.827 -1.9754  1.9112  0.5193
17703TIP3   OH274599   6.703   0.095   5.698  0.1930  0.1583 -0.8907
17703TIP3    H174600   6.706   0.066   5.607 -0.9577  1.4102 -1.3471
17703TIP3    H274601   6.658   0.179   5.696 -0.3271 -0.0280  0.9014
17704TIP3   OH274602   6.483   2.036   3.275  0.1063  0.1053  0.5592
17704TIP3    H174603   6.573   2.050   3.245  0.2295  0.1474  0.9405
17704TIP3    H274604   6.461   2.116   3.323  0.2068 -0.2963  1.2805
17705TIP3   OH274605   2.850   5.687   4.495  0.4532  0.1927 -0.4993
17705TIP3    H174606   2.878   5.764   4.544 -0.8866  0.6224 -0.3558
17705TIP3    H274607   2.765   5.712   4.458 -0.0871 -1.2477 -0.3214
17706TIP3   OH274608   1.005   3.792  16.654  0.5852  0.5569  0.8211
17706TIP3    H174609   1.006   3.850  16.579 -1.3471 -0.1432  0.2047
17706TIP3    H274610   0.990   3.849  16.729  3.4492  1.3809  0.8829
17707TIP3   OH274611   0.217   5.049  11.235  0.4968  0.0957 -0.1508
17707TIP3    H174612   0.167   5.127  11.258 -0.3486 -0.4518 -0.1166
17707TIP3    H274613   0.279   5.079  11.168 -0.4686  0.5953 -0.8396
17708TIP3   OH274614   2.928   5.701  12.603  0.5406 -0.5661  0.0217
17708TIP3    H174615   2.891   5.615  12.582  1.0148 -0.2388 -2.4074
17708TIP3    H274616   2.853   5.760  12.604  0.5187 -0.5323 -1.3064
17709TIP3   OH274617   1.641   3.243  12.377  0.0482 -0.3310 -0.3888
17709TIP3    H174618   1.661   3.336  12.368  1.1862 -0.6770 -1.9023
17709TIP3    H274619   1.661   3.223  12.468 -0.8501  1.0348  0.1371
17710TIP3   OH274620   2.111   2.768   1.917 -0.6171  0.0725 -0.0712
17710TIP3    H174621   2.160   2.722   1.985 -0.5284  0.4011  0.0911
17710TIP3    H274622   2.168   2.841   1.893 -0.0617 -0.7728 -1.4216
17711TIP3   OH274623   3.878   5.351   2.040  0.0043  0.3825  0.1498
17711TIP3    H174624   3.953   5.374   2.093  0.0335  2.6358 -0.7332
17711TIP3    H274625   3.820   5.303   2.099  1.1100  0.6364  1.4900
17712TIP3   OH274626   1.427   3.115   4.621  0.4670 -0.9109 -0.1759
17712TIP3    H174627   1.471   3.032   4.641 -0.7753 -1.3045  1.0552
17712TIP3    H274628   1.343   3.089   4.583 -1.2495 -0.3738  2.9378
17713TIP3   OH274629   5.626   6.841  16.876  0.3922  0.1956 -0.2408
17713TIP3    H174630   5.548   6.843  16.932  0.2485  1.1127 -0.4480
17713TIP3    H274631   5.676   6.766  16.907  0.8026  1.2458  1.7991
17714TIP3   OH274632   4.602   4.837   2.759 -0.0315 -0.0950  0.4633
17714TIP3    H174633   4.612   4.887   2.840 -0.9658 -1.9188  1.7629
17714TIP3    H274634   4.603   4.745   2.787 -1.8467 -0.7580 -1.3817
17715TIP3   OH274635   3.908   0.838   2.601 -0.1577  0.3008  0.4868
17715TIP3    H174636   3.856   0.893   2.543 -4.1434 -2.6836  0.8010
17715TIP3    H274637   3.937   0.766   2.546  3.1385  1.4312  0.5513
17716TIP3   OH274638   1.523   2.969   1.155  0.0006 -0.0773  0.7458
17716TIP3    H174639   1.616   2.990   1.144 -0.2139  0.7489  0.4295
17716TIP3    H274640   1.522   2.875   1.172  1.1207  0.2985  3.5065
17717TIP3   OH274641   4.079   6.324   5.835 -0.9121  0.3494 -0.2934
17717TIP3    H174642   4.008   6.305   5.773 -0.3729 -0.5896 -0.6504
17717TIP3    H274643   4.075   6.253   5.899 -1.2126  1.1005  0.5435
17718TIP3   OH274644   1.249   4.257   1.437  0.3994 -0.2665 -0.8980
17718TIP3    H174645   1.290   4.209   1.508  0.5363 -2.0962 -2.1412
17718TIP3    H274646   1.161   4.277   1.469  1.0671  0.6279  0.4679
17719TIP3   OH274647   4.614   1.488   5.482  0.1683 -0.5230  0.2198
17719TIP3    H174648   4.692   1.518   5.435 -0.7677  0.8258 -0.5266
17719TIP3    H274649   4.541   1.518   5.428 -0.9585  1.0686  2.4962
17720TIP3   OH274650   3.323   5.364  11.497 -0.0124  0.1811  0.5300
17720TIP3    H174651   3.345   5.454  11.523  0.3079 -0.1929  1.6412
17720TIP3    H274652   3.242   5.372  11.447  0.9428  1.2676 -0.9332
17721TIP3   OH274653   3.243   5.819   0.864  0.4136  0.5864 -0.1472
17721TIP3    H174654   3.329   5.858   0.849  0.3726  0.5677 -0.4364
17721TIP3    H274655   3.253   5.727   0.840  0.1637  0.7094 -0.7304
17722TIP3   OH274656   3.217   0.712   2.231  0.0424 -0.1084  0.0664
17722TIP3    H174657   3.275   0.782   2.202  0.6481 -0.7106 -0.2000
17722TIP3    H274658   3.262   0.673   2.306  0.0939 -0.7222 -0.2798
17723TIP3   OH274659   6.408   4.589   0.421  0.1660 -0.7555 -0.5729
17723TIP3    H174660   6.359   4.513   0.391 -1.0524 -0.0219 -0.4994
17723TIP3    H274661   6.344   4.642   0.469  1.7674 -1.3425  2.4064
17724TIP3   OH274662   3.517   0.796  11.375  0.4430 -0.1285  0.0499
17724TIP3    H174663   3.535   0.823  11.465  0.5764 -0.8783  0.2477
17724TIP3    H274664   3.422   0.805  11.366  0.3960 -0.3259  0.3508
17725TIP3   OH274665   0.072   1.610  13.961 -0.0915  0.1075 -0.5423
17725TIP3    H174666   0.092   1.517  13.975  1.2886  0.3361 -0.8254
17725TIP3    H274667  -0.003   1.610  13.902 -2.1258 -0.8188  1.8605
17726TIP3   OH274668   1.398   3.184  16.786  0.1596  0.1689 -0.2247
17726TIP3    H174669   1.321   3.158  16.734  0.4186 -0.8292 -0.1281
17726TIP3    H274670   1.463   3.116  16.769  0.4477  0.1165  0.9791
17727TIP3   OH274671   1.685   5.510   5.289 -0.0680  0.1513 -0.0537
17727TIP3    H174672   1.594   5.503   5.262 -0.2200  1.9053 -0.1094
17727TIP3    H274673   1.715   5.419   5.297 -2.1259 -0.4939  1.0901
17728TIP3   OH274674   5.158   5.053  13.687  0.1724 -0.0620 -0.1869
17728TIP3    H174675   5.086   5.109  13.714  0.6016  0.2832  0.2697
17728TIP3    H274676   5.188   5.091  13.604 -0.2353 -0.2750 -0.4370
17729TIP3   OH274677   1.220   1.893   5.457  0.5806 -0.7067  0.4656
17729TIP3    H174678   1.263   1.867   5.376  1.3313 -0.3749  0.7512
17729TIP3    H274679   1.264   1.842   5.525  3.9635  2.9751  1.4403
17730TIP3   OH274680   1.133   5.899  12.345 -0.5502  0.3564 -0.7459
17730TIP3    H174681   1.128   5.912  12.440  0.6426 -0.5979 -0.5102
17730TIP3    H274682   1.172   5.979  12.312  1.4615 -0.2608 -0.0557
17731TIP3   OH274683   5.520   6.831  11.122 -0.3118 -0.7900  0.2804
17731TIP3    H174684   5.448   6.836  11.059  0.0242 -2.2352 -0.2710
17731TIP3    H274685   5.578   6.903  11.099 -1.5239  0.3321  0.6706
17732TIP3   OH274686   5.436   5.224   1.908  0.4327 -0.0208  0.0367
17732TIP3    H174687   5.529   5.209   1.925  0.2933  0.2114  1.0790
17732TIP3    H274688   5.431   5.238   1.813  1.7624  2.1362  0.2251
17733TIP3   OH274689   1.185   0.084  13.494 -0.4653 -0.0303  0.2869
17733TIP3    H174690   1.212   0.094  13.402 -0.8836  0.1888  0.1836
17733TIP3    H274691   1.159  -0.008  13.501  2.2086 -0.8086  0.9140
17734TIP3   OH274692   1.506   5.579   1.845 -0.2957 -0.3733  0.2090
17734TIP3    H174693   1.471   5.643   1.907  0.9465  0.5680  0.0010
17734TIP3    H274694   1.600   5.574   1.866 -0.5443 -3.1474  1.0691
17735TIP3   OH274695   5.584   5.394   5.597  0.1714 -0.1615 -0.2858
17735TIP3    H174696   5.581   5.306   5.559  0.8501  0.4697 -1.8967
17735TIP3    H274697   5.507   5.438   5.561  1.5404  0.8694 -2.1688
17736TIP3   OH274698   4.190   6.388   0.341  0.4339 -0.0591  0.1674
17736TIP3    H174699   4.194   6.303   0.385 -0.8851 -0.6100 -0.7181
17736TIP3    H274700   4.220   6.450   0.407 -1.5241 -0.8358  1.9072
17737TIP3   OH274701   1.359   2.151  11.230  0.1701 -0.2786  0.1046
17737TIP3    H174702   1.299   2.083  11.202  0.5458 -0.4450 -0.3201
17737TIP3    H274703   1.428   2.151  11.163 -0.2725  1.1026 -0.3790
17738TIP3   OH274704   3.604   0.626  11.145  0.1804 -0.0666  0.0508
17738TIP3    H174705   3.603   0.659  11.235 -2.8139 -1.4419  0.6355
17738TIP3    H274706   3.675   0.561  11.145  0.8906  0.6669  1.1056
17739TIP3   OH274707   3.340   6.460   0.011  0.5769 -0.2492  0.3241
17739TIP3    H174708   3.405   6.531   0.011  1.1310 -0.7406 -0.4743
17739TIP3    H274709   3.371   6.399  -0.056 -1.5172  0.2648 -1.2275
17740TIP3   OH274710   2.660   3.646   1.335 -0.1996 -0.2557 -0.0830
17740TIP3    H174711   2.706   3.699   1.399 -0.5575  0.9200 -0.7664
17740TIP3    H274712   2.638   3.707   1.264 -0.5217 -1.3399 -0.9509
17741TIP3   OH274713   4.143   4.223   1.724  0.5027  0.5409 -0.2621
17741TIP3    H174714   4.218   4.208   1.666 -0.0626  2.5637 -1.6124
17741TIP3    H274715   4.072   4.172   1.685  1.4132 -2.6812  1.8927
17742TIP3   OH274716   5.702   1.434  13.248  0.1443  0.0139 -1.0802
17742TIP3    H174717   5.633   1.500  13.255 -0.9455 -0.9565 -2.3494
17742TIP3    H274718   5.685   1.374  13.321 -0.0304  0.0446 -1.0967
17743TIP3   OH274719   0.488   3.284   0.403  0.3310 -1.0769 -1.2692
17743TIP3    H174720   0.541   3.300   0.324 -0.6132  1.4972 -1.4853
17743TIP3    H274721   0.537   3.219   0.452  2.3192 -0.7723 -2.7285
17744TIP3   OH274722   2.611   0.077   4.413 -0.2228  0.4420 -0.5081
17744TIP3    H174723   2.704   0.098   4.408  0.0442 -0.9561 -3.0338
17744TIP3    H274724   2.567   0.162   4.410  0.9462  1.0424 -1.2538
17745TIP3   OH274725   3.686   4.927  15.167  0.4833 -0.8984 -0.6262
17745TIP3    H174726   3.651   4.998  15.220  1.4131 -1.7738  1.2808
17745TIP3    H274727   3.608   4.879  15.138 -0.0812 -0.0202 -0.6167
17746TIP3   OH274728   3.496   6.338   2.636 -0.8918  0.5050 -0.1371
17746TIP3    H174729   3.507   6.382   2.720  0.5421 -1.8726  1.0416
17746TIP3    H274730   3.439   6.264   2.655 -0.1648 -0.3434 -1.1280
17747TIP3   OH274731   2.260   6.450   0.988 -0.6796  0.9020  0.0913
17747TIP3    H174732   2.231   6.495   0.909  3.0578  1.4965 -1.1695
17747TIP3    H274733   2.214   6.366   0.987 -1.6874  1.4134 -2.0039
17748TIP3   OH274734   5.813   0.491   2.745 -0.4003  0.5905  0.3231
17748TIP3    H174735   5.872   0.507   2.670 -0.0454  1.0925  0.7008
17748TIP3    H274736   5.835   0.403   2.774 -0.1898  0.5821  0.1463
17749TIP3   OH274737   2.756   6.167   4.646  0.3840  0.0395  0.3446
17749TIP3    H174738   2.801   6.250   4.628  0.9955 -0.3175  0.2098
17749TIP3    H274739   2.733   6.172   4.739  0.8078  0.1675  0.4423
17750TIP3   OH274740   3.329   5.429   4.772  0.1776  0.3949 -0.8364
17750TIP3    H174741   3.297   5.343   4.746 -1.4931  1.0646 -1.0988
17750TIP3    H274742   3.393   5.452   4.704 -1.6374  0.6533 -2.5555
17751TIP3   OH274743   4.092   6.238  11.975  0.0016  0.6266 -0.2550
17751TIP3    H174744   4.073   6.249  12.068 -1.1168  2.6261 -0.6657
17751TIP3    H274745   4.118   6.146  11.967 -0.1341  0.3355  1.9743
17752TIP3   OH274746   2.208   4.067  12.956 -0.4891 -0.0514 -0.0575
17752TIP3    H174747   2.112   4.070  12.954 -0.5352 -1.1891 -1.9342
17752TIP3    H274748   2.232   4.015  12.879  1.7159  2.4357 -1.2143
17753TIP3   OH274749   2.283   2.722  11.302  0.0232  0.1578  0.6254
17753TIP3    H174750   2.226   2.772  11.243 -0.8123 -1.3171  0.1366
17753TIP3    H274751   2.334   2.665  11.243  0.7269  0.1924  1.1912
17754TIP3   OH274752   5.698   2.342  16.241  0.7362 -0.0091 -0.4330
17754TIP3    H174753   5.771   2.386  16.199  1.1997  0.4506  0.7861
17754TIP3    H274754   5.671   2.403  16.310  0.7262 -1.1861  0.6323
17755TIP3   OH274755   1.680   4.669  16.903 -0.2225 -0.0236  0.3071
17755TIP3    H174756   1.657   4.683  16.995  2.5858  0.2283  1.0687
17755TIP3    H274757   1.605   4.701  16.854 -1.3581  0.8445  2.4877
17756TIP3   OH274758   6.098   2.876  15.189  0.0716 -0.0728 -0.7556
17756TIP3    H174759   6.073   2.963  15.160  0.3018 -0.7054 -3.0532
17756TIP3    H274760   6.110   2.826  15.108 -0.9112 -2.4978  0.4899
17757TIP3   OH274761   1.773   2.789   5.275  0.0143 -0.2813 -0.2760
17757TIP3    H174762   1.694   2.803   5.223 -0.2817 -0.4719  0.1076
17757TIP3    H274763   1.840   2.765   5.212  0.1716  1.4278 -0.7839
17758TIP3   OH274764   5.898   6.082   6.462  0.1989  0.5469  0.1937
17758TIP3    H174765   5.860   6.166   6.434 -1.6706 -0.4003 -0.2193
17758TIP3    H274766   5.965   6.107   6.525  0.3911  2.4127 -0.6740
17759TIP3   OH274767   6.760   3.112  10.705 -0.1801 -0.1870  0.1251
17759TIP3    H174768   6.766   3.184  10.642  1.0579  1.6383  2.1861
17759TIP3    H274769   6.818   3.044  10.668  0.0905  0.5956 -0.9582
17760TIP3   OH274770   4.999   0.102  15.554 -0.4603  0.0466  0.3415
17760TIP3    H174771   4.909   0.133  15.551 -0.3201  0.3865 -1.0453
17760TIP3    H274772   5.032   0.115  15.465  0.9410 -0.1237  0.8110
17761TIP3   OH274773   3.902   1.192   6.080 -0.2839  0.0792 -0.3298
17761TIP3    H174774   3.811   1.212   6.103 -0.2725 -0.5136  0.2995
17761TIP3    H274775   3.899   1.101   6.049  0.2309 -0.2971  0.6733
17762TIP3   OH274776   2.824   6.370  11.933  0.4703 -0.2809  0.3719
17762TIP3    H174777   2.866   6.374  11.848 -2.9188  2.3166 -1.4548
17762TIP3    H274778   2.746   6.426  11.924 -0.2313 -0.0411  5.1097
17763TIP3   OH274779   6.845   0.443  11.995  0.2169 -0.0150  0.0700
17763TIP3    H174780   6.767   0.393  12.017 -0.8593  1.0951 -1.0969
17763TIP3    H274781   6.840   0.522  12.048  0.4301  0.1643 -0.1739
17764TIP3   OH274782   2.056   1.959  13.447 -0.0828 -0.5384 -0.6878
17764TIP3    H174783   2.014   2.029  13.398 -1.0674 -0.6395 -0.0136
17764TIP3    H274784   2.114   2.004  13.509 -1.3073 -0.2650  0.2910
17765TIP3   OH274785   1.001   2.106  15.032 -0.0773 -0.2357 -0.2964
17765TIP3    H174786   0.985   2.082  15.124  0.1687  1.0092  0.0976
17765TIP3    H274787   1.069   2.174  15.037  0.6082 -0.8047 -1.4741
17766TIP3   OH274788   0.274   5.495  15.172 -0.1818  0.5683  0.0626
17766TIP3    H174789   0.346   5.473  15.232 -1.4680  0.6724  1.7269
17766TIP3    H274790   0.201   5.443  15.204 -0.6454 -0.2377 -2.1655
17767TIP3   OH274791   6.207   2.052   3.920 -0.0396 -0.1060  0.2282
17767TIP3    H174792   6.269   1.981   3.905 -1.4187 -1.7382  1.7780
17767TIP3    H274793   6.138   2.013   3.973 -2.5982  1.4823 -1.6569
17768TIP3   OH274794   0.710   6.229  15.061 -0.6816 -0.2774  0.0503
17768TIP3    H174795   0.702   6.200  14.970  1.0382  0.9381 -0.5574
17768TIP3    H274796   0.726   6.323  15.054  1.0778 -0.4175  1.4779
17769TIP3   OH274797   4.407   5.790  11.603  0.4334  0.1942 -0.1200
17769TIP3    H174798   4.441   5.744  11.526 -0.0795  0.1562 -0.3249
17769TIP3    H274799   4.438   5.739  11.677  0.3992 -0.1264 -0.3244
17770TIP3   OH274800   3.466   1.854   3.810  0.3767  0.1816  0.1822
17770TIP3    H174801   3.504   1.932   3.850  0.5612 -0.5306  1.4406
17770TIP3    H274802   3.384   1.885   3.771  0.3138  0.9542  0.8954
17771TIP3   OH274803   4.151   1.711   5.502  0.3848  0.0234 -0.0018
17771TIP3    H174804   4.148   1.807   5.507  1.0055 -0.0010  1.0086
17771TIP3    H274805   4.133   1.692   5.410 -0.6021  1.0700 -0.0501
17772TIP3   OH274806   2.099   3.614   5.331 -0.3187 -0.7739 -0.1623
17772TIP3    H174807   2.100   3.709   5.341  0.8115 -0.8825  1.0739
17772TIP3    H274808   2.009   3.588   5.353 -0.9020  0.0612 -1.4308
17773TIP3   OH274809   0.301   5.521   6.011 -0.1400  0.2640 -0.2631
17773TIP3    H174810   0.360   5.445   6.008 -0.5107  0.0095 -1.6814
17773TIP3    H274811   0.358   5.596   5.995  0.1871  0.2770  0.8819
17774TIP3   OH274812   2.457   3.586   3.536 -0.3135 -0.8910  0.1469
17774TIP3    H174813   2.375   3.574   3.488 -1.3130 -2.2340  2.0624
17774TIP3    H274814   2.509   3.644   3.480 -1.8907 -1.3300 -1.9055
17775TIP3   OH274815   3.046   4.430   3.759  0.4823  0.2191  0.3105
17775TIP3    H174816   3.017   4.505   3.810  0.7474  0.5635 -0.0390
17775TIP3    H274817   3.045   4.357   3.821  1.1136  0.6966  0.8955
17776TIP3   OH274818   2.018   0.843  10.355  0.6324 -0.2242 -0.4350
17776TIP3    H174819   1.960   0.784  10.403  0.0470 -1.4596 -2.5426
17776TIP3    H274820   2.105   0.805  10.365  0.6655  0.0587  0.4081
17777TIP3   OH274821   0.131   4.322  15.605  0.0512  0.3099 -0.1184
17777TIP3    H174822   0.102   4.236  15.574  1.2645 -0.8170  1.6735
17777TIP3    H274823   0.059   4.353  15.659  0.5541 -0.7560  1.2394
17778TIP3   OH274824   6.763   2.670  15.881  0.1935 -0.3158  0.1672
17778TIP3    H174825   6.711   2.701  15.806  0.0174 -0.5568  0.1871
17778TIP3    H274826   6.787   2.580  15.857 -0.8180 -0.7941  0.8853
17779TIP3   OH274827   3.702   2.887  10.643 -0.1546  0.0824 -0.0658
17779TIP3    H174828   3.789   2.846  10.642 -0.2280 -0.0820  0.1378
17779TIP3    H274829   3.644   2.821  10.604 -0.1914  0.1785 -0.1718
17780TIP3   OH274830   1.047   5.572  13.396  0.1214  0.1860  0.2118
17780TIP3    H174831   0.962   5.577  13.354  0.3324 -0.8729 -0.3765
17780TIP3    H274832   1.048   5.646  13.458 -1.6651 -0.4506  1.0692
17781TIP3   OH274833   1.513   4.177   6.560 -0.1173 -0.0551  0.0224
17781TIP3    H174834   1.434   4.195   6.610 -0.6183  0.7466 -1.0134
17781TIP3    H274835   1.517   4.082   6.554 -2.8162 -0.1582 -2.6193
17782TIP3   OH274836   5.081   5.038  11.799 -0.3346  0.4356 -0.5014
17782TIP3    H174837   5.091   4.979  11.724  0.7202  1.1236 -0.9336
17782TIP3    H274838   5.019   5.105  11.768 -0.1015  0.5742 -0.6767
17783TIP3   OH274839   0.990   3.200  10.736  0.3596  0.3194  0.1368
17783TIP3    H174840   0.940   3.278  10.714 -0.3265 -0.2579 -0.4409
17783TIP3    H274841   0.949   3.130  10.684  2.5430  0.0371 -1.3881
17784TIP3   OH274842   3.201   6.235   0.113 -0.0599 -0.3598  0.2009
17784TIP3    H174843   3.203   6.169   0.183  0.7305 -0.6939 -0.1298
17784TIP3    H274844   3.248   6.310   0.148 -0.3002 -0.2479  0.2914
17785TIP3   OH274845   5.697   2.805   5.895 -0.3214 -0.3675 -0.1315
17785TIP3    H174846   5.640   2.728   5.894  0.5103 -1.0122  0.6309
17785TIP3    H274847   5.774   2.777   5.946  0.6523  0.4966 -1.0971
17786TIP3   OH274848   6.386   5.257   5.984  0.2728 -0.0134  0.0421
17786TIP3    H174849   6.454   5.191   5.999 -0.8893 -1.0797  0.9107
17786TIP3    H274850   6.388   5.312   6.063 -0.8991 -1.0567  0.8564
17787TIP3   OH274851   0.326   5.513   0.729  0.4057 -0.4062 -0.4143
17787TIP3    H174852   0.326   5.609   0.733  0.6949 -0.3793 -0.9661
17787TIP3    H274853   0.263   5.487   0.796  1.8748  0.0950  1.2451
17788TIP3   OH274854   3.638   0.635   3.133  0.1630 -1.1711  0.0532
17788TIP3    H174855   3.592   0.611   3.052 -0.6464 -0.5633  0.3232
17788TIP3    H274856   3.716   0.681   3.102 -0.1744 -0.8804 -0.3804
17789TIP3   OH274857   2.817   6.526  12.603  0.0506 -0.1080 -0.3064
17789TIP3    H174858   2.742   6.571  12.563 -0.9484  1.1607  2.7504
17789TIP3    H274859   2.889   6.589  12.598 -0.8066  1.2139  2.1260
17790TIP3   OH274860   1.816   5.564  10.656 -0.5193 -0.3621 -0.8014
17790TIP3    H174861   1.856   5.513  10.585  1.3646 -1.2849  0.8114
17790TIP3    H274862   1.781   5.642  10.613  2.5245  0.2317 -2.5341
17791TIP3   OH274863   5.486   4.559  15.399  0.1376  0.1273  0.6381
17791TIP3    H174864   5.519   4.641  15.434 -0.3071  0.5810  0.0060
17791TIP3    H274865   5.457   4.580  15.311  2.2283 -1.2283 -0.4569
17792TIP3   OH274866   0.564   5.668   3.304 -0.5513 -0.3267 -0.0449
17792TIP3    H174867   0.633   5.682   3.369 -0.7831 -1.0216  0.3538
17792TIP3    H274868   0.569   5.575   3.283 -0.9163 -0.2399 -0.5296
17793TIP3   OH274869   1.548   3.771  11.536  0.4358  0.1647 -0.4368
17793TIP3    H174870   1.565   3.823  11.458 -0.0025 -1.2197 -1.5107
17793TIP3    H274871   1.460   3.798  11.564  0.3493  0.2556 -0.7827
17794TIP3   OH274872   6.066   1.035   1.127  0.2351 -0.4363 -0.5082
17794TIP3    H174873   6.107   1.105   1.176 -0.9345  0.5432 -0.8716
17794TIP3    H274874   6.006   0.993   1.189  0.6116 -0.8382 -0.4120
17795TIP3   OH274875   6.387   0.691  11.921  0.0039 -0.5272 -0.1251
17795TIP3    H174876   6.332   0.745  11.865 -0.5644  1.3733  2.1401
17795TIP3    H274877   6.476   0.703  11.887  0.2079  3.5002  1.3768
17796TIP3   OH274878   5.053   5.403   1.695  0.3368 -0.1584 -0.2208
17796TIP3    H174879   4.994   5.419   1.769 -0.2287 -0.8704 -0.4976
17796TIP3    H274880   5.068   5.308   1.697  1.0879 -0.0515 -0.4481
17797TIP3   OH274881   2.718   2.590  16.898  1.0464 -0.3659  0.7567
17797TIP3    H174882   2.787   2.540  16.855  0.0270 -1.1784  0.0118
17797TIP3    H274883   2.637   2.557  16.860  0.3242  2.2182 -0.1602
17798TIP3   OH274884   4.988   1.327   0.470 -0.7316 -0.3723 -0.8746
17798TIP3    H174885   4.954   1.353   0.556  0.3148 -0.1338 -0.5164
17798TIP3    H274886   5.075   1.292   0.489 -0.7767 -0.9749 -1.7639
17799TIP3   OH274887   1.588   2.001  11.857 -0.7705 -0.0202  0.4158
17799TIP3    H174888   1.616   1.934  11.920  0.3340 -0.1183 -0.1544
17799TIP3    H274889   1.639   1.982  11.779 -0.5095  1.4456  0.2138
17800TIP3   OH274890   2.854   0.297   1.920  0.2911 -0.5460  0.0707
17800TIP3    H174891   2.764   0.285   1.949 -0.0156 -0.4624 -0.8478
17800TIP3    H274892   2.895   0.212   1.932  0.6691 -0.1274  2.3878
17801TIP3   OH274893   4.302   0.068  16.260 -0.0038  0.3779  0.4134
17801TIP3    H174894   4.365   0.072  16.188 -1.6020 -2.1668 -1.2798
17801TIP3    H274895   4.348   0.020  16.329 -0.3694 -2.6510 -1.3013
17802TIP3   OH274896   4.035   3.752  11.115 -0.2184  0.0498  0.2112
17802TIP3    H174897   4.048   3.845  11.134  0.8533 -0.2700  1.1888
17802TIP3    H274898   4.006   3.715  11.198 -0.1704 -0.5689 -0.0473
17803TIP3   OH274899   1.620   1.120   2.140 -0.0373  1.0959  0.0653
17803TIP3    H174900   1.588   1.103   2.051  0.2110 -0.5139  0.2497
17803TIP3    H274901   1.541   1.120   2.194 -0.0803  0.8687  0.0042
17804TIP3   OH274902   2.084   3.477   0.033  0.1673  0.2325  1.0669
17804TIP3    H174903   1.991   3.472   0.013  0.2544  0.7002  0.4964
17804TIP3    H274904   2.120   3.395  -0.001  0.1242  0.5101  0.3343
17805TIP3   OH274905   4.412   3.071   5.710 -0.5422 -0.4908 -0.2653
17805TIP3    H174906   4.502   3.100   5.723 -0.4435 -0.9541  0.0927
17805TIP3    H274907   4.418   3.001   5.645 -0.6847 -0.3121 -0.4762
17806TIP3   OH274908   6.595   6.624   5.827  0.0329 -0.0095 -0.2635
17806TIP3    H174909   6.504   6.629   5.798  0.1414 -1.4829 -0.9556
17806TIP3    H274910   6.590   6.612   5.922 -0.5003  0.0664 -0.2828
17807TIP3   OH274911   5.470   2.898   2.790 -0.1040 -0.5185  0.2307
17807TIP3    H174912   5.420   2.870   2.866 -0.2489 -0.2039  0.2529
17807TIP3    H274913   5.491   2.817   2.743 -1.2573 -0.6065 -0.1646
17808TIP3   OH274914   4.897   0.768   5.702 -0.4136 -0.0608  0.1815
17808TIP3    H174915   4.809   0.806   5.701  0.2260  1.5623  1.4102
17808TIP3    H274916   4.951   0.833   5.747  1.2745 -1.3465  0.1168
17809TIP3   OH274917   0.550   6.615   0.534  0.1881 -0.1756  0.0303
17809TIP3    H174918   0.556   6.585   0.444 -0.6759 -1.2264  0.3125
17809TIP3    H274919   0.551   6.535   0.587  0.8486  0.4234  0.9751
17810TIP3   OH274920   3.388   0.369  15.059  0.2122 -0.1020 -0.3364
17810TIP3    H174921   3.315   0.417  15.099  0.3764  0.1601 -0.3553
17810TIP3    H274922   3.453   0.435  15.040  0.4048 -0.3212 -0.4405
17811TIP3   OH274923   4.886   2.418   3.491 -0.6922  0.3226  0.1444
17811TIP3    H174924   4.798   2.387   3.513 -0.1093 -0.3534  1.6626
17811TIP3    H274925   4.916   2.462   3.571  0.5207  0.1465 -0.2023
17812TIP3   OH274926   3.832   0.945   3.624  0.6713 -0.2125 -0.6553
17812TIP3    H174927   3.897   0.902   3.680  0.3838 -0.0706 -0.2144
17812TIP3    H274928   3.810   1.026   3.670  1.9748  0.9552 -1.9571
17813TIP3   OH274929   4.410   1.336  13.944  0.0088  0.2481  0.3073
17813TIP3    H174930   4.392   1.381  13.862  1.2648  0.4394  0.1166
17813TIP3    H274931   4.349   1.262  13.944 -1.1957  1.2065  0.0370
17814TIP3   OH274932   5.906   0.694   2.000 -0.0115 -0.0766 -0.5742
17814TIP3    H174933   5.930   0.756   1.931 -0.7062 -0.8230 -1.5078
17814TIP3    H274934   5.811   0.698   2.004 -0.0439 -0.8979 -0.4604
17815TIP3   OH274935   0.841   1.521   1.994  0.2874 -0.2570 -0.1981
17815TIP3    H174936   0.815   1.613   1.991 -0.8166 -0.4887  1.2399
17815TIP3    H274937   0.917   1.516   1.936  1.3744  1.8900  0.8873
17816TIP3   OH274938   5.537   1.218  12.336  0.5266  0.1775 -0.3017
17816TIP3    H174939   5.620   1.208  12.289 -0.3307 -2.5257 -1.4813
17816TIP3    H274940   5.513   1.309  12.324  2.6681  0.7090 -1.0552
17817TIP3   OH274941   2.682   1.728  16.876 -0.0790 -0.6848 -0.2529
17817TIP3    H174942   2.719   1.772  16.800  1.3298 -2.0777 -0.4215
17817TIP3    H274943   2.738   1.756  16.949  1.3272 -2.6737 -0.4826
17818TIP3   OH274944   0.738   3.838  15.036 -0.0846  0.0431 -0.0881
17818TIP3    H174945   0.768   3.781  15.108  0.3975 -0.8601 -0.9716
17818TIP3    H274946   0.643   3.843  15.047  0.0498  0.4155  0.9659
17819TIP3   OH274947   0.794   4.823  15.920 -0.3166 -0.3727 -0.4004
17819TIP3    H174948   0.750   4.857  15.843 -0.9896 -3.0333 -1.2978
17819TIP3    H274949   0.887   4.836  15.902 -0.4696 -0.8116 -1.6155
17820TIP3   OH274950   3.524   1.575  14.834  0.1431 -0.1778 -0.1093
17820TIP3    H174951   3.590   1.555  14.900 -0.7676 -0.3602  0.7890
17820TIP3    H274952   3.555   1.655  14.791  0.6236  0.1152  0.7556
17821TIP3   OH274953   5.400   1.866  14.706 -0.3778 -0.0678 -0.0672
17821TIP3    H174954   5.487   1.826  14.712 -0.5784 -0.3309  1.3099
17821TIP3    H274955   5.347   1.819  14.770 -1.0635  1.2924  0.4119
17822TIP3   OH274956   1.023   4.583  12.531  0.2312 -0.1930 -0.2651
17822TIP3    H174957   0.990   4.610  12.617  0.6088  0.4393 -0.3157
17822TIP3    H274958   1.101   4.531  12.552  1.0809  1.0486 -0.2603
17823TIP3   OH274959   6.040   5.079   0.111  0.3293  0.0524  0.1403
17823TIP3    H174960   6.058   5.137   0.185  2.5455 -1.2614  0.7366
17823TIP3    H274961   5.963   5.117   0.069  0.1703  1.9518  1.9596
17824TIP3   OH274962   0.423   0.053  11.109  0.5883  0.4560  0.1217
17824TIP3    H174963   0.444   0.092  11.194 -1.4132  1.3196  0.2597
17824TIP3    H274964   0.469   0.108  11.045  1.7906  0.0284  0.5898
17825TIP3   OH274965   2.319   3.700  11.852  0.0118 -0.2357 -0.1027
17825TIP3    H174966   2.268   3.707  11.771  0.2258  0.6013 -0.1750
17825TIP3    H274967   2.261   3.734  11.920  0.4753  0.7717 -0.1939
17826TIP3   OH274968   2.012   3.193   3.701  0.3395  0.8194 -0.5505
17826TIP3    H174969   1.964   3.267   3.738 -0.5290  0.4487 -0.9035
17826TIP3    H274970   2.025   3.133   3.775 -2.3298 -0.4159 -0.9489
17827TIP3   OH274971   0.032   1.237  12.686  0.5308 -0.0193  0.2804
17827TIP3    H174972   0.116   1.263  12.725 -0.0951  1.5809  0.6696
17827TIP3    H274973  -0.032   1.252  12.755 -0.0994 -1.1395 -0.0402
17828TIP3   OH274974   0.694   3.645   5.189 -0.1686  0.1461 -0.7435
17828TIP3    H174975   0.737   3.632   5.104  2.2901  0.0693  0.4220
17828TIP3    H274976   0.686   3.557   5.226 -0.6860  0.2309 -0.6518
17829TIP3   OH274977   0.792   5.221   1.079 -0.7490  0.4708  0.6830
17829TIP3    H174978   0.797   5.126   1.091 -2.4192  0.3941  1.0387
17829TIP3    H274979   0.879   5.252   1.104  0.5580 -1.1314 -1.4882
17830TIP3   OH274980   1.187   3.464  16.902 -0.3907 -0.8345 -0.4010
17830TIP3    H174981   1.095   3.475  16.878 -0.1779 -2.2478 -2.0564
17830TIP3    H274982   1.184   3.429  16.992 -1.4266 -0.3559 -0.2342
17831TIP3   OH274983   0.497   1.749   6.553  0.2971  0.1698  0.3559
17831TIP3    H174984   0.519   1.711   6.468 -1.8738 -0.5020  0.0513
17831TIP3    H274985   0.435   1.687   6.592 -0.0546  1.3204  1.6948
17832TIP3   OH274986   6.497   4.689   0.183 -0.3799 -0.2639  0.0018
17832TIP3    H174987   6.516   4.644   0.265 -1.4847 -1.3623 -0.3286
17832TIP3    H274988   6.402   4.688   0.175 -0.2923 -0.1515 -1.2868
17833TIP3   OH274989   1.849   2.031   0.183 -0.4444  0.8098  0.0753
17833TIP3    H174990   1.782   2.020   0.249  0.0282 -3.7344  0.0734
17833TIP3    H274991   1.929   1.998   0.224  0.7339  1.5044 -1.5435
17834TIP3   OH274992   3.615   5.808   3.950  0.0894  0.6250  0.1061
17834TIP3    H174993   3.572   5.722   3.954  0.7829  0.2071 -0.8982
17834TIP3    H274994   3.578   5.849   3.872  0.9613  0.5535 -0.3536
17835TIP3   OH274995   1.010   6.827   4.103  0.0465 -0.3450 -0.3046
17835TIP3    H174996   1.057   6.803   4.183  1.7948  0.0581 -1.1446
17835TIP3    H274997   0.918   6.824   4.127  0.5149  2.8137  2.6375
17836TIP3   OH274998   1.802   2.296   1.508 -0.1409 -0.4471  0.0901
17836TIP3    H174999   1.724   2.244   1.524 -0.8050  0.4047 -0.3401
17836TIP3    H275000   1.872   2.231   1.495 -0.8568 -1.2153  0.0192
17837TIP3   OH275001   5.209   5.079  14.315  0.0988  0.4179  0.8193
17837TIP3    H175002   5.211   5.173  14.335  0.2206  0.3471  1.1336
17837TIP3    H275003   5.277   5.041  14.370  0.7706  0.2846 -0.0790
17838TIP3   OH275004   0.493   3.715  14.123  0.2030 -0.2659 -0.3483
17838TIP3    H175005   0.404   3.746  14.135  0.3085  0.3974 -1.1280
17838TIP3    H275006   0.486   3.619  14.125 -0.4358 -0.2129  0.1407
17839TIP3   OH275007   5.297   1.629  13.764 -0.1762  0.0432  0.4509
17839TIP3    H175008   5.243   1.562  13.807 -0.0349  0.0836  0.6936
17839TIP3    H275009   5.386   1.611  13.795 -0.0592  0.0247  0.1158
17840TIP3   OH275010   0.488   5.808  16.219 -0.8030  0.3036 -0.2653
17840TIP3    H175011   0.496   5.875  16.151  0.2705  0.6619  0.2030
17840TIP3    H275012   0.445   5.854  16.291  0.1438  0.5669  0.1430
17841TIP3   OH275013   1.689   4.067   0.376 -0.1562  0.5733  0.6986
17841TIP3    H175014   1.678   4.162   0.388  2.5567  1.0417  0.1181
17841TIP3    H275015   1.681   4.054   0.282 -1.4358  0.0298  0.8580
17842TIP3   OH275016   6.744   3.977  15.311 -0.0020 -0.1319 -0.0395
17842TIP3    H175017   6.692   3.981  15.231  0.1809  0.0187 -0.1502
17842TIP3    H275018   6.769   4.067  15.329  0.7997 -0.2716 -0.3710
17843TIP3   OH275019   1.446   4.728  11.302  0.2054 -0.3341 -0.3012
17843TIP3    H175020   1.416   4.797  11.362 -1.0501  0.3473 -1.6437
17843TIP3    H275021   1.379   4.661  11.307 -0.5359  0.2491 -1.7552
17844TIP3   OH275022   0.916   0.413  12.838 -0.7007 -0.1570  0.3442
17844TIP3    H175023   0.876   0.441  12.921 -0.0074 -0.4291  0.7844
17844TIP3    H275024   1.001   0.456  12.837 -0.9202  0.2816 -0.5002
17845TIP3   OH275025   0.095   5.263   1.883  0.4202 -0.1206 -0.4306
17845TIP3    H175026   0.052   5.178   1.875  0.8899 -0.6737  2.1294
17845TIP3    H275027   0.075   5.292   1.972  1.4254  1.8312 -0.7786
17846TIP3   OH275028   6.369   3.240  11.566 -0.3110  0.3659  0.0506
17846TIP3    H175029   6.334   3.152  11.556  0.0188  0.1067  1.0657
17846TIP3    H275030   6.428   3.251  11.490 -1.0915  0.0926 -0.6065
17847TIP3   OH275031   1.644   5.155  13.231 -0.3585 -0.2467 -0.3996
17847TIP3    H175032   1.707   5.136  13.161  0.6091 -0.7122  0.5776
17847TIP3    H275033   1.563   5.113  13.202 -0.0700 -0.1456 -1.3982
17848TIP3   OH275034   1.893   6.053   3.831  0.1284 -0.0514 -0.3904
17848TIP3    H175035   1.804   6.077   3.858 -0.5239 -0.7928 -1.7257
17848TIP3    H275036   1.912   6.111   3.758  1.0251  0.5471  0.3035
17849TIP3   OH275037   6.540   5.567  12.665 -0.1017  0.3049  0.1707
17849TIP3    H175038   6.560   5.485  12.710 -0.8083 -0.0240 -0.1068
17849TIP3    H275039   6.625   5.610  12.655  0.2788 -0.4064  0.2903
17850TIP3   OH275040   6.532   2.363   5.839  0.8778  0.2056 -0.2139
17850TIP3    H175041   6.513   2.451   5.806  2.2728  0.5307 -0.2162
17850TIP3    H275042   6.562   2.376   5.928  0.0275 -0.3923  0.1728
17851TIP3   OH275043   3.771   6.101  16.231  0.1832  0.1818  0.0313
17851TIP3    H175044   3.835   6.172  16.227 -1.3573  1.5796 -1.2816
17851TIP3    H275045   3.785   6.061  16.317  1.2526  1.9286  0.7204
17852TIP3   OH275046   1.755   0.939   5.088  0.2487  0.7380  0.2406
17852TIP3    H175047   1.822   0.936   5.020  0.3804  1.7433  0.3063
17852TIP3    H275048   1.804   0.940   5.170  0.1804  1.6758  0.2845
17853TIP3   OH275049   2.122   4.481  15.604 -0.3394  0.5154  0.3542
17853TIP3    H175050   2.039   4.529  15.600 -1.3240 -1.1577 -0.6510
17853TIP3    H275051   2.126   4.434  15.520  1.5369  0.3952  0.4779
17854TIP3   OH275052   0.989   4.563   0.633  0.1457  0.5445 -0.1488
17854TIP3    H175053   1.047   4.514   0.575 -0.4571 -1.6333  1.0025
17854TIP3    H275054   1.044   4.587   0.707 -0.1601 -0.7250  0.5134
17855TIP3   OH275055   3.550   5.102   2.545 -0.0455  0.1861 -0.1827
17855TIP3    H175056   3.612   5.128   2.477  0.1737  1.1012  0.3498
17855TIP3    H275057   3.541   5.180   2.600 -0.7887 -0.3043  0.4079
17856TIP3   OH275058   5.310   4.543   6.654  0.9610 -0.3750 -0.6387
17856TIP3    H175059   5.218   4.526   6.674  1.4794 -0.6983  1.7050
17856TIP3    H275060   5.354   4.459   6.667  1.7906  0.0764 -0.4441
17857TIP3   OH275061   2.436   2.533  17.080  0.2808  0.0734 -0.0174
17857TIP3    H175062   2.444   2.523  16.986 -0.5645  0.3488 -0.1243
17857TIP3    H275063   2.508   2.592  17.105 -1.2563  2.4613 -0.9253
17858TIP3   OH275064   2.390   1.751  13.332 -0.1783  0.0100 -0.4716
17858TIP3    H175065   2.415   1.746  13.240 -1.1252  0.2853 -0.7583
17858TIP3    H275066   2.453   1.695  13.377  0.2249 -0.2232 -1.3008
17859TIP3   OH275067   5.771   2.154  14.905  0.1918 -0.0105  0.5412
17859TIP3    H175068   5.732   2.152  14.818  0.8072  1.9271  0.1900
17859TIP3    H275069   5.787   2.062  14.926 -3.1662 -0.8093  0.1159
17860TIP3   OH275070   4.020   0.714  13.308  0.8018  0.2575 -0.5736
17860TIP3    H175071   4.082   0.729  13.237  1.4045  1.8372  0.2372
17860TIP3    H275072   4.049   0.631  13.348  2.0963  0.7151 -0.5144
17861TIP3   OH275073   1.169   0.533   2.303  0.1644  0.1873 -0.1392
17861TIP3    H175074   1.230   0.475   2.259 -2.1848 -1.5793 -1.2504
17861TIP3    H275075   1.146   0.599   2.237 -0.6160 -0.3312 -0.3960
17862TIP3   OH275076   2.650   0.866   4.751  0.0585  0.6149 -0.2859
17862TIP3    H175077   2.684   0.826   4.671  0.4969 -0.1322  0.2659
17862TIP3    H275078   2.555   0.860   4.743  0.1122  0.1140 -0.5343
17863TIP3   OH275079   5.262   2.852  15.765  0.2056  0.4033 -0.5309
17863TIP3    H175080   5.202   2.921  15.794 -0.0319  0.1856 -0.5060
17863TIP3    H275081   5.348   2.881  15.795  0.1389  0.7954 -0.7024
17864TIP3   OH275082   6.725   4.359  15.725  0.0617  0.1897 -0.1473
17864TIP3    H175083   6.697   4.451  15.730  0.3898  0.2282  2.4211
17864TIP3    H275084   6.646   4.311  15.702 -0.7539  0.9016  1.0134
17865TIP3   OH275085   0.504   4.637  13.947 -0.2006  0.1318 -0.9036
17865TIP3    H175086   0.550   4.711  13.907  0.5561  2.6511  3.9143
17865TIP3    H275087   0.412   4.662  13.943 -0.1267  0.4092 -0.8816
17866TIP3   OH275088   3.453   2.532  14.180 -0.3925 -0.2846  0.9456
17866TIP3    H175089   3.360   2.544  14.161 -0.2202 -0.1591  0.1050
17866TIP3    H275090   3.465   2.438  14.187 -0.3038 -0.4241 -0.6197
17867TIP3   OH275091   4.312   1.477   4.390 -0.0909 -0.3401 -0.1856
17867TIP3    H175092   4.318   1.385   4.366  0.4717 -0.9012  1.9417
17867TIP3    H275093   4.242   1.481   4.455  2.0011  0.1301  2.1743
17868TIP3   OH275094   0.680   0.820   5.970  0.6836  0.4216 -1.2847
17868TIP3    H175095   0.586   0.821   5.985  0.6396  1.3463 -1.5778
17868TIP3    H275096   0.690   0.816   5.875  0.9636 -1.7269 -1.2129
17869TIP3   OH275097   4.454   5.327  11.752  0.8659 -0.0529  0.0577
17869TIP3    H175098   4.407   5.255  11.710  1.9597 -0.4453 -0.5416
17869TIP3    H275099   4.447   5.310  11.845 -2.1634  1.1655  0.1667
17870TIP3   OH275100   1.711   2.446  13.702  0.0662 -0.1947 -0.3967
17870TIP3    H175101   1.778   2.446  13.633 -2.3401 -0.1727 -2.9178
17870TIP3    H275102   1.671   2.359  13.697 -2.2054  0.8229 -1.2581
17871TIP3   OH275103   5.762   5.416  13.013 -0.6515  0.7960 -0.8648
17871TIP3    H175104   5.708   5.461  12.948 -0.5263  1.2122 -0.6852
17871TIP3    H275105   5.739   5.457  13.096 -0.7299  0.3429 -0.6577
17872TIP3   OH275106   5.503   4.363  16.486  0.4424  0.7299  0.1969
17872TIP3    H175107   5.534   4.413  16.410  0.2012  1.4472  0.5552
17872TIP3    H275108   5.441   4.300  16.449  1.4631  0.0359 -0.3798
17873TIP3   OH275109   5.009   0.595   4.452  0.5226 -0.3481  0.0089
17873TIP3    H175110   4.995   0.685   4.481  0.9612 -0.2016 -0.2223
17873TIP3    H275111   5.042   0.603   4.362  1.1877 -0.7115  0.2159
17874TIP3   OH275112   6.016   3.159   5.470 -0.9496  0.5037 -0.3426
17874TIP3    H175113   6.100   3.203   5.464 -1.2054  0.8598 -1.5441
17874TIP3    H275114   5.981   3.184   5.556  1.2072 -1.5913  1.2951
17875TIP3   OH275115   4.454   1.472  17.198  0.1720  0.4058 -0.4903
17875TIP3    H175116   4.528   1.498  17.143  1.5354  0.5010  1.3012
17875TIP3    H275117   4.394   1.428  17.137  1.9283 -0.1485 -1.9282
17876TIP3   OH275118   5.397   1.335   2.501 -0.0210  0.5223  0.4191
17876TIP3    H175119   5.486   1.364   2.522  0.2874  0.6050 -0.9061
17876TIP3    H275120   5.391   1.247   2.537  0.5199  0.6017  0.7124
17877TIP3   OH275121   6.017   1.994  11.589  0.1059 -0.2116 -0.7822
17877TIP3    H175122   6.089   2.015  11.647  0.3271 -0.3804 -0.9938
17877TIP3    H275123   5.943   1.977  11.647 -0.1222  1.2465 -0.5953
17878TIP3   OH275124   2.461   1.600   0.860 -0.2090  0.1896  0.0483
17878TIP3    H175125   2.405   1.653   0.917  0.5047  1.8476 -0.7128
17878TIP3    H275126   2.547   1.603   0.901 -0.3971 -1.4072  0.6157
17879TIP3   OH275127   3.486   1.509   6.212 -0.2761  0.1558 -0.4289
17879TIP3    H175128   3.449   1.426   6.182  1.7479 -1.4597  1.2893
17879TIP3    H275129   3.581   1.496   6.207  0.1025  2.4095 -0.1388
17880TIP3   OH275130   5.692   4.868   5.007 -0.2511  0.4117  0.3337
17880TIP3    H175131   5.688   4.778   5.038  1.1335  0.2415  0.0660
17880TIP3    H275132   5.768   4.906   5.051 -1.3484  1.7515  1.1667
17881TIP3   OH275133   6.361   3.849  15.905 -0.0038  0.0891 -0.6878
17881TIP3    H175134   6.428   3.855  15.973  0.6324  0.8061 -1.3578
17881TIP3    H275135   6.362   3.757  15.879  0.3000 -0.0276 -0.2761
17882TIP3   OH275136   4.330   5.914   4.184  0.6180  0.3393  0.4093
17882TIP3    H175137   4.312   6.001   4.149 -0.6403 -0.4234 -0.9270
17882TIP3    H275138   4.345   5.859   4.107  2.0430 -0.5226  1.2458
17883TIP3   OH275139   0.225   5.945   1.546 -0.3913 -0.0687  0.2643
17883TIP3    H175140   0.194   5.856   1.566  0.1518 -0.3330 -0.0612
17883TIP3    H275141   0.148   5.988   1.508 -0.5106 -0.5666 -0.0771
17884TIP3   OH275142   3.756   3.998   3.183 -0.1644  0.1142  0.1230
17884TIP3    H175143   3.816   4.073   3.173  2.0899 -1.6947 -0.7366
17884TIP3    H275144   3.736   3.971   3.094  0.3652 -1.2676  0.3970
17885TIP3   OH275145   4.993   3.692  10.515  0.0026 -0.3682  0.0080
17885TIP3    H175146   4.907   3.680  10.555 -0.0742 -0.2172 -0.1110
17885TIP3    H275147   5.004   3.615  10.458 -0.7799  0.4289 -1.2777
17886TIP3   OH275148   2.534   4.796  10.593  0.0302  0.1599 -0.1008
17886TIP3    H175149   2.490   4.784  10.509  0.4817  0.0579 -0.3286
17886TIP3    H275150   2.556   4.889  10.597 -0.5662  0.2910  0.1985
17887TIP3   OH275151   3.443   5.711  11.867 -0.3106  0.4370 -0.3305
17887TIP3    H175152   3.512   5.776  11.876  1.1330 -1.0015 -0.5167
17887TIP3    H275153   3.474   5.652  11.798  0.5596 -2.9194  2.6249
17888TIP3   OH275154   2.509   6.425  15.671  0.1077  0.0244  0.1978
17888TIP3    H175155   2.577   6.486  15.643 -0.5440  0.8803  0.4435
17888TIP3    H275156   2.525   6.412  15.764  0.5133 -0.5419  0.0560
17889TIP3   OH275157   2.425   1.124   4.158 -0.0277  0.7602 -0.0952
17889TIP3    H175158   2.382   1.177   4.225 -0.9199 -0.5447  0.4020
17889TIP3    H275159   2.497   1.080   4.204 -1.5828 -1.3515  0.4598
17890TIP3   OH275160   2.300   2.294   3.116 -0.0271  0.1347 -0.0540
17890TIP3    H175161   2.360   2.318   3.187 -2.5175 -1.0808  2.6806
17890TIP3    H275162   2.327   2.205   3.091  0.2473  0.1806  0.0763
17891TIP3   OH275163   0.352   6.833   0.217 -0.1850 -0.3295  0.2493
17891TIP3    H175164   0.393   6.816   0.132 -1.3606 -0.0358 -0.3985
17891TIP3    H275165   0.304   6.752   0.237  2.1566 -1.4238  1.9255
17892TIP3   OH275166   2.914   0.591  11.597 -0.0454 -0.3293 -0.5658
17892TIP3    H175167   2.886   0.529  11.531  0.8276 -0.3560 -0.9324
17892TIP3    H275168   2.896   0.548  11.681  1.4335 -1.5268 -0.8116
17893TIP3   OH275169   1.711   1.566  13.033 -0.4830 -0.5209 -0.4305
17893TIP3    H175170   1.661   1.485  13.023 -2.5327  0.5146  0.7167
17893TIP3    H275171   1.649   1.628  13.073  0.8067  1.8004 -1.7711
17894TIP3   OH275172   0.295   5.773   2.547 -0.3627 -0.2784 -0.0161
17894TIP3    H175173   0.340   5.857   2.556 -0.4014 -0.4837  2.8071
17894TIP3    H275174   0.202   5.795   2.548 -0.3707 -0.2730 -0.5568
17895TIP3   OH275175   5.628   0.026   6.556 -0.1009  0.3321  0.6820
17895TIP3    H175176   5.706  -0.000   6.508 -1.2653  0.8918 -1.7242
17895TIP3    H275177   5.596   0.104   6.509 -3.3067 -1.1646  0.1001
17896TIP3   OH275178   3.890   2.532   6.616 -0.4655 -0.0728 -0.3911
17896TIP3    H175179   3.924   2.525   6.527 -2.2186 -1.2454 -1.0316
17896TIP3    H275180   3.923   2.454   6.660  1.0157  0.8736  0.2706
17897TIP3   OH275181   2.769   2.331  15.861  0.0434 -0.0285  0.5009
17897TIP3    H175182   2.862   2.308  15.866 -0.2029 -1.2170  0.1373
17897TIP3    H275183   2.725   2.247  15.845 -1.0058  0.6397 -0.2384
17898TIP3   OH275184   2.065   2.494  11.251 -0.4036 -0.4860 -0.6536
17898TIP3    H175185   2.157   2.470  11.262 -0.3504  0.1161  0.3730
17898TIP3    H275186   2.061   2.537  11.166 -0.0083 -1.7442 -1.3238
17899TIP3   OH275187   3.739   6.067   1.851  0.1840  0.2170 -0.1243
17899TIP3    H175188   3.785   6.003   1.906 -2.6198 -1.3209  0.6259
17899TIP3    H275189   3.678   6.014   1.799 -0.9402  2.1318 -0.8326
17900TIP3   OH275190   6.449   6.143   3.216 -0.0226  0.4360  0.2677
17900TIP3    H175191   6.474   6.225   3.259 -0.5240  0.0823  1.2608
17900TIP3    H275192   6.361   6.124   3.249 -0.6943  0.4706 -1.4063
17901TIP3   OH275193   3.442   2.665  11.336 -0.0763 -0.4341  0.3753
17901TIP3    H175194   3.472   2.627  11.418  0.2778  1.3088  1.0970
17901TIP3    H275195   3.513   2.647  11.274 -0.9979 -3.0882 -0.0219
17902TIP3   OH275196   4.982   6.554  14.867 -0.5485  0.3112 -0.2893
17902TIP3    H175197   5.028   6.517  14.941  0.7213  1.2305 -0.5817
17902TIP3    H275198   4.974   6.482  14.804  0.0781  0.0266 -0.0435
17903TIP3   OH275199   6.446   0.752   5.815 -0.3471  0.0129  0.0765
17903TIP3    H175200   6.396   0.803   5.880 -0.4053  1.8552 -1.3031
17903TIP3    H275201   6.479   0.818   5.754 -0.0161 -1.6004 -1.5816
17904TIP3   OH275202   3.148   0.216  14.095 -0.5955  0.3751 -0.5600
17904TIP3    H175203   3.129   0.217  14.001 -1.8240  0.2868 -0.3319
17904TIP3    H275204   3.165   0.307  14.117 -0.5391  0.4303 -0.8284
17905TIP3   OH275205   3.203   3.284  16.939  0.6133 -0.3691  0.0526
17905TIP3    H175206   3.230   3.235  16.861  0.6455 -1.0227  0.4703
17905TIP3    H275207   3.269   3.354  16.947  1.1145 -0.8295 -0.0015
17906TIP3   OH275208   5.379   5.582   0.438  0.0345 -0.5455 -0.5720
17906TIP3    H175209   5.310   5.649   0.442  0.8282  0.2735 -0.3343
17906TIP3    H275210   5.356   5.520   0.507  1.0799  1.2619  1.5280
17907TIP3   OH275211   3.502   5.986   0.631  0.4233  0.3121  0.4637
17907TIP3    H175212   3.564   6.034   0.577  1.0935 -0.8683  0.1444
17907TIP3    H275213   3.417   6.024   0.610  0.7098  0.1127 -1.1871
17908TIP3   OH275214   3.728   1.517  16.815  0.5009  0.7894  0.4052
17908TIP3    H175215   3.633   1.503  16.813  0.4855  0.7527  1.2399
17908TIP3    H275216   3.757   1.478  16.897  1.1330  1.4821  0.5181
17909TIP3   OH275217   1.680   2.254  13.965  0.0910  0.0312  0.6296
17909TIP3    H175218   1.664   2.160  13.968  2.4620 -0.4199  1.3938
17909TIP3    H275219   1.619   2.287  13.900  0.4875 -2.3460 -1.0604
17910TIP3   OH275220   4.527   4.159  14.923 -0.8504 -0.0527 -0.4031
17910TIP3    H175221   4.573   4.195  14.847 -1.2194 -1.0966 -1.1522
17910TIP3    H275222   4.434   4.174  14.904 -0.9190  0.1544  0.0940
17911TIP3   OH275223   2.037   0.270  12.933 -0.7155  0.2616 -0.2822
17911TIP3    H175224   2.029   0.365  12.942  0.4405  0.2912  0.6714
17911TIP3    H275225   2.021   0.235  13.020  1.7857 -0.1623  0.0944
17912TIP3   OH275226   2.688   3.789  12.491  0.0867  0.0331  0.2125
17912TIP3    H175227   2.604   3.828  12.466  0.4069  0.0052 -0.9483
17912TIP3    H275228   2.741   3.863  12.522 -0.1821  0.1297  0.4436
17913TIP3   OH275229   4.239   5.641   3.369  0.1653 -0.2117 -0.1494
17913TIP3    H175230   4.259   5.727   3.406  0.2823  0.2566 -1.2742
17913TIP3    H275231   4.255   5.650   3.275 -1.0001 -1.1091 -0.4659
17914TIP3   OH275232   3.488   5.651  12.885  0.0182 -0.0659 -0.0469
17914TIP3    H175233   3.434   5.620  12.811 -0.0129  1.3091 -0.6296
17914TIP3    H275234   3.450   5.608  12.961  1.1007 -2.8787 -0.9684
17915TIP3   OH275235   3.284   5.918   4.011  0.3608  1.0402  0.2776
17915TIP3    H175236   3.197   5.879   4.024  0.3610  1.1327  0.5608
17915TIP3    H275237   3.332   5.853   3.960  0.6813  0.2192  1.5800
17916TIP3   OH275238   0.547   6.023  14.075  0.2414 -0.1003 -0.1542
17916TIP3    H175239   0.454   6.015  14.095  0.4344 -0.9784  0.4740
17916TIP3    H275240   0.590   6.019  14.161  0.7633  2.3862 -0.2328
17917TIP3   OH275241   5.604   2.024  12.798  0.4966 -0.0491 -0.7401
17917TIP3    H175242   5.670   2.022  12.729  0.0440 -0.1750 -1.1748
17917TIP3    H275243   5.521   2.033  12.751  0.0948 -1.1701 -0.2760
17918TIP3   OH275244   6.395   1.508  14.334 -0.1517 -0.2108  0.9487
17918TIP3    H175245   6.331   1.575  14.358  1.7732  1.4378  1.6659
17918TIP3    H275246   6.424   1.532  14.246  1.4896  0.6919  1.7097
17919TIP3   OH275247   6.002   5.509  12.814  0.0308 -0.0965 -0.0482
17919TIP3    H175248   5.996   5.561  12.894  1.4345  1.1504 -0.7020
17919TIP3    H275249   6.007   5.418  12.844 -1.3624  0.1964  1.1681
17920TIP3   OH275250   0.651   6.499  15.036 -0.7241  0.7935 -0.3125
17920TIP3    H175251   0.646   6.526  14.944  2.3134 -3.2078 -1.9644
17920TIP3    H275252   0.738   6.525  15.064 -0.6446 -0.3160  0.5325
17921TIP3   OH275253   1.069   2.010   0.961  0.3757  0.4216  0.1050
17921TIP3    H175254   0.979   1.997   0.991 -0.5493  1.6068 -1.9948
17921TIP3    H275255   1.119   2.026   1.041 -1.2565 -0.2521  1.3056
17922TIP3   OH275256   0.056   4.855  17.042  0.5505  0.4825 -0.5795
17922TIP3    H175257  -0.011   4.923  17.051  0.6258  0.4100  0.7757
17922TIP3    H275258   0.016   4.789  16.984 -0.0432  1.0445 -0.8200
17923TIP3   OH275259   6.552   4.213  11.259  0.3929  0.1212  0.3532
17923TIP3    H175260   6.563   4.292  11.311  1.3639  1.9266 -2.3859
17923TIP3    H275261   6.459   4.193  11.265  0.6725 -0.8516  4.0675
17924TIP3   OH275262   0.447   3.063   4.097 -0.5758  0.7603 -0.0311
17924TIP3    H175263   0.461   3.003   4.170 -0.4281  1.5834  0.6302
17924TIP3    H275264   0.378   3.023   4.046 -0.7930  0.2479  0.6531
17925TIP3   OH275265   5.096   3.429  15.620 -0.7120  0.2248 -0.9963
17925TIP3    H175266   5.044   3.380  15.683 -1.1042 -0.2347 -1.6699
17925TIP3    H275267   5.183   3.390  15.625  0.1018  2.0605  1.3323
17926TIP3   OH275268   3.535   6.280  14.418  0.1267  0.4518  0.7322
17926TIP3    H175269   3.562   6.369  14.443  1.3371  0.4348 -0.4112
17926TIP3    H275270   3.557   6.273  14.325 -3.0277  0.0588 -0.0881
17927TIP3   OH275271   1.282   1.736   2.784  0.1194 -0.4645 -0.4998
17927TIP3    H175272   1.245   1.731   2.872 -0.2255 -1.1076 -0.6704
17927TIP3    H275273   1.339   1.660   2.778  1.4051  0.4601 -0.2819
17928TIP3   OH275274   6.025   6.663  16.521  0.2100 -0.2242  0.1372
17928TIP3    H175275   5.998   6.585  16.570 -0.6811 -0.1664 -0.2621
17928TIP3    H275276   6.040   6.729  16.588 -1.9286  0.1405  0.3130
17929TIP3   OH275277   2.456   6.805   3.557  0.6986  0.0817  0.3459
17929TIP3    H175278   2.549   6.791   3.575  1.0924 -1.5513 -2.3528
17929TIP3    H275279   2.451   6.898   3.534  1.5060  0.3569  1.2125
17930TIP3   OH275280   3.494   1.729  12.476 -0.0640  0.7799 -0.3107
17930TIP3    H175281   3.567   1.779  12.513 -0.5620  0.1888  1.5655
17930TIP3    H275282   3.422   1.792  12.471  0.9204  1.8328 -3.7433
17931TIP3   OH275283   4.784   3.150  11.907 -0.2491 -0.0234 -0.0252
17931TIP3    H175284   4.796   3.088  11.835 -0.2404 -0.8403  0.6539
17931TIP3    H275285   4.848   3.220  11.890 -0.6204  0.0741 -1.0851
17932TIP3   OH275286   5.550   2.124   3.482  0.0008 -0.1043  0.2319
17932TIP3    H175287   5.520   2.108   3.571 -0.9517  0.4507  0.0190
17932TIP3    H275288   5.474   2.108   3.427  0.3254  0.4573 -0.4037
17933TIP3   OH275289   4.188   4.276   4.513  0.3366 -0.4335  0.5408
17933TIP3    H175290   4.224   4.253   4.427  0.1936 -0.5068  0.5015
17933TIP3    H275291   4.152   4.194   4.547  1.5328 -0.7122  1.2275
17934TIP3   OH275292   1.158   5.472  16.968  0.2409 -0.3646 -0.2912
17934TIP3    H175293   1.218   5.544  16.987  0.3620 -0.3912 -0.5773
17934TIP3    H275294   1.075   5.500  17.008  0.3488 -0.1735 -0.1991
17935TIP3   OH275295   4.394   1.238  14.763  0.0174 -0.0970 -0.2786
17935TIP3    H175296   4.463   1.304  14.754  2.1801 -2.1526  0.3330
17935TIP3    H275297   4.330   1.278  14.822  1.0196  1.6035 -0.2675
17936TIP3   OH275298   2.085   4.930  14.053  0.5705 -0.7735  0.6728
17936TIP3    H175299   2.138   4.980  13.990  0.0499 -1.2136 -0.1294
17936TIP3    H275300   2.004   4.911  14.006  0.4622 -1.7269  1.2345
17937TIP3   OH275301   0.528   6.673  13.897 -0.4533  0.1670  0.1698
17937TIP3    H175302   0.619   6.644  13.908 -0.6983 -0.8031 -0.2037
17937TIP3    H275303   0.535   6.763  13.865  0.4915 -0.6914 -2.3550
17938TIP3   OH275304   0.354   5.137   2.319 -0.2556  0.0162  0.0965
17938TIP3    H175305   0.341   5.181   2.403 -0.6986  0.4334 -0.1879
17938TIP3    H275306   0.363   5.044   2.342  2.0355  0.3633  0.8242
17939TIP3   OH275307   5.519   2.227   3.768 -0.1492  0.4479 -0.1124
17939TIP3    H175308   5.485   2.309   3.732  0.6579  0.7489 -0.2015
17939TIP3    H275309   5.484   2.224   3.857  0.0965  1.0554  0.0069
17940TIP3   OH275310   2.855   1.526  16.383 -0.4476  0.2925 -0.5962
17940TIP3    H175311   2.796   1.462  16.343 -2.3850  2.4735 -1.4367
17940TIP3    H275312   2.808   1.557  16.461  0.1500  1.1807 -0.5806
17941TIP3   OH275313   5.258   3.910  15.480 -0.2640  0.6691 -0.2479
17941TIP3    H175314   5.314   3.837  15.456 -0.5032  0.5110 -0.3268
17941TIP3    H275315   5.317   3.974  15.521 -0.1097  0.2976  0.1082
17942TIP3   OH275316   1.368   5.744   2.019  0.3166 -0.3174  0.0766
17942TIP3    H175317   1.279   5.779   2.014 -0.2571 -1.8046 -0.6756
17942TIP3    H275318   1.371   5.700   2.104  0.3104 -0.3022  0.0846
17943TIP3   OH275319   5.594   2.240  12.982  0.5493 -0.4531  0.1681
17943TIP3    H175320   5.542   2.195  13.049  0.2790  0.3605  0.5141
17943TIP3    H275321   5.587   2.184  12.905 -2.1566  0.3756 -0.3083
17944TIP3   OH275322   0.844   0.108   1.333  0.0603 -0.5330 -0.4026
17944TIP3    H175323   0.791   0.029   1.330  0.2442 -0.6169 -1.7109
17944TIP3    H275324   0.819   0.158   1.255  1.2848 -0.1742 -0.5934
17945TIP3   OH275325   2.099   6.483   1.461  0.2298  0.2296  0.0182
17945TIP3    H175326   2.190   6.470   1.487 -0.0505  2.1532  2.3531
17945TIP3    H275327   2.097   6.459   1.368  2.9725 -0.4100  0.0330
17946TIP3   OH275328   1.087   6.126   5.307 -0.1683  0.2225  0.1277
17946TIP3    H175329   1.176   6.114   5.274  0.1610  1.5043  0.5050
17946TIP3    H275330   1.042   6.172   5.237  0.2422  2.0118  1.0025
17947TIP3   OH275331   3.448   2.859  15.471 -0.9594 -0.4156 -0.3597
17947TIP3    H175332   3.438   2.867  15.565 -1.6685  0.2005 -0.4804
17947TIP3    H275333   3.486   2.772  15.458 -1.8745 -0.9449  0.4239
17948TIP3   OH275334   3.743   4.475  15.255 -0.7722 -0.0736 -0.4346
17948TIP3    H175335   3.784   4.552  15.216 -2.2693 -0.0007 -2.0104
17948TIP3    H275336   3.682   4.510  15.319 -0.4530 -0.0304 -0.1535
17949TIP3   OH275337   5.595   3.220  16.190 -0.4485 -0.5067  0.6457
17949TIP3    H175338   5.621   3.128  16.190  2.3375  0.1618 -0.9092
17949TIP3    H275339   5.662   3.263  16.244 -1.4561  0.6990  0.9834
17950TIP3   OH275340   1.343   6.013  13.087  0.8275  0.6432  0.3038
17950TIP3    H175341   1.266   6.069  13.092  1.1355  1.1105 -0.0745
17950TIP3    H275342   1.417   6.071  13.105  1.1829  0.4444 -0.4594
17951TIP3   OH275343   1.436   2.266   3.125  0.5423  0.4108 -0.4689
17951TIP3    H175344   1.465   2.356   3.134 -0.5745  1.2167 -3.7028
17951TIP3    H275345   1.515   2.214   3.142  1.7425  2.0848 -0.6294
17952TIP3   OH275346   0.087   0.126   5.901  0.3540 -0.1121  0.2160
17952TIP3    H175347   0.093   0.218   5.875 -0.4599 -0.4896 -1.4184
17952TIP3    H275348  -0.003   0.101   5.881  0.5211 -1.2355  0.7885
17953TIP3   OH275349   2.900   5.280   1.914 -0.0027 -0.2334  0.3939
17953TIP3    H175350   2.858   5.306   1.996  1.2079  0.7403  0.7285
17953TIP3    H275351   2.993   5.283   1.933  0.2700 -1.2357 -0.6710
17954TIP3   OH275352   6.202   0.029  12.146  0.1031  0.3919  0.1640
17954TIP3    H175353   6.131   0.035  12.082 -0.2733  2.3834  0.7045
17954TIP3    H275354   6.258  -0.041  12.112 -0.9457  0.2726 -1.4559
17955TIP3   OH275355   1.281   0.584   5.856  0.2611  0.0318  0.0938
17955TIP3    H175356   1.316   0.655   5.801  4.3910 -1.0217  1.0241
17955TIP3    H275357   1.259   0.627   5.939 -0.6050  0.7277 -0.4775
17956TIP3   OH275358   1.466   0.143  14.540  0.1866 -0.6660 -0.3997
17956TIP3    H175359   1.481   0.225  14.493 -0.6927 -0.2723 -0.0215
17956TIP3    H275360   1.386   0.107  14.500 -0.7709 -0.1521  0.9748
17957TIP3   OH275361   0.991   5.117  12.909  0.5598  0.7428  0.3459
17957TIP3    H175362   1.053   5.187  12.929  1.0776  0.2820  0.3818
17957TIP3    H275363   0.998   5.104  12.814  1.4546 -0.1530  0.5109
17958TIP3   OH275364   2.093   0.586   3.026  0.4096  0.3117 -0.0951
17958TIP3    H175365   2.036   0.571   3.101  2.4865 -0.7502  1.3853
17958TIP3    H275366   2.064   0.523   2.960 -0.8144  0.5698  0.1751
17959TIP3   OH275367   4.854   3.868   4.753  0.7180  0.0419 -0.3616
17959TIP3    H175368   4.906   3.793   4.780 -1.3722 -1.2324  0.4289
17959TIP3    H275369   4.891   3.894   4.669  3.2184 -0.1053  0.6116
17960TIP3   OH275370   2.850   0.819   1.752  0.0780  0.0242 -0.3267
17960TIP3    H175371   2.759   0.793   1.739 -0.3238  0.5637  1.1850
17960TIP3    H275372   2.854   0.849   1.843  2.1097 -1.3886  0.1300
17961TIP3   OH275373   6.447   0.627   1.863 -0.5414  0.4214  0.1461
17961TIP3    H175374   6.441   0.626   1.959  0.1018  0.5543  0.1952
17961TIP3    H275375   6.471   0.718   1.842 -1.1547  0.5110 -0.1735
17962TIP3   OH275376   5.655   6.712  16.097  0.8863  0.5095 -0.0742
17962TIP3    H175377   5.611   6.710  16.012  0.9290  0.7792 -0.1011
17962TIP3    H275378   5.611   6.781  16.146  0.1841 -0.3088  0.4911
17963TIP3   OH275379   2.627   3.498  12.839 -0.4058  0.0397 -0.3444
17963TIP3    H175380   2.576   3.442  12.781 -0.3482  0.9170 -1.2818
17963TIP3    H275381   2.674   3.556  12.780  1.7461 -0.7673  0.4636
17964TIP3   OH275382   1.834   1.043  14.781  0.4425 -0.3505  0.0233
17964TIP3    H175383   1.809   0.967  14.832  1.6044 -0.8825 -0.1645
17964TIP3    H275384   1.929   1.050  14.793  0.2084  1.8283  1.0747
17965TIP3   OH275385   0.591   3.957   1.597  0.2076 -0.5719 -0.1568
17965TIP3    H175386   0.565   3.865   1.610 -1.4633 -0.2801 -1.0028
17965TIP3    H275387   0.517   4.007   1.632 -0.0144  0.3592 -1.8412
17966TIP3   OH275388   6.451   6.077   2.241 -0.4159 -0.0174  0.0929
17966TIP3    H175389   6.443   6.059   2.334 -1.4616 -0.1456 -0.0079
17966TIP3    H275390   6.389   6.148   2.225  0.6723  0.8728 -0.2753
17967TIP3   OH275391   3.390   2.511  17.143  0.0382  0.0681 -0.1635
17967TIP3    H175392   3.455   2.459  17.095 -0.3808  1.2857 -2.1661
17967TIP3    H275393   3.315   2.451  17.154  0.0347 -0.1646 -1.3173
17968TIP3   OH275394   6.445   4.316   2.718  0.5338 -0.5335  0.3442
17968TIP3    H175395   6.527   4.364   2.712 -0.0669  0.4351 -0.7438
17968TIP3    H275396   6.433   4.299   2.811  0.7461  1.5407  0.8013
17969TIP3   OH275397   2.850   2.789   2.171 -0.4140 -0.2280  0.4634
17969TIP3    H175398   2.829   2.875   2.136 -0.4625  0.0964  1.2705
17969TIP3    H275399   2.946   2.785   2.171 -0.3496  0.5607  2.1139
17970TIP3   OH275400   6.029   1.345  12.320 -0.4344 -0.5441 -0.0166
17970TIP3    H175401   5.959   1.349  12.386  0.7691 -0.8943  1.3322
17970TIP3    H275402   6.092   1.411  12.348 -1.3220  1.6208 -2.6483
17971TIP3   OH275403   3.743   3.545   4.326  0.7434 -0.4033 -0.6560
17971TIP3    H175404   3.726   3.583   4.240 -1.3217 -1.6069 -0.8504
17971TIP3    H275405   3.714   3.455   4.318 -2.7208  0.2606  2.1740
17972TIP3   OH275406   0.853   6.584   6.058 -0.5353  0.0341 -0.0983
17972TIP3    H175407   0.895   6.499   6.070  1.2948  0.9479  0.2952
17972TIP3    H275408   0.828   6.611   6.147  2.6337  1.6725  0.4401
17973TIP3   OH275409   4.059   5.992  13.039 -0.0623 -0.0520 -1.0072
17973TIP3    H175410   4.108   5.915  13.067 -0.4165 -0.5104 -1.6171
17973TIP3    H275411   4.062   5.989  12.943  1.7520  1.8826 -1.0738
17974TIP3   OH275412   3.699   1.918   5.203 -0.3704 -0.0978  0.0633
17974TIP3    H175413   3.708   1.873   5.287  0.4114  0.0819  0.0791
17974TIP3    H275414   3.708   1.848   5.138 -1.0934 -0.2553  0.1234
17975TIP3   OH275415   6.663   2.459   0.052  0.4274  0.2085 -0.1302
17975TIP3    H175416   6.627   2.496  -0.029 -0.7380 -0.4167  0.0730
17975TIP3    H275417   6.596   2.397   0.081  1.3915 -0.4818  0.6581
17976TIP3   OH275418   3.925   3.297  10.078  0.3506 -0.0431  0.0891
17976TIP3    H175419   3.913   3.383  10.118  3.2705  0.1653  0.7766
17976TIP3    H275420   3.837   3.263  10.066 -0.8253  1.9220  2.3016
17977TIP3   OH275421   0.390   0.401   2.837 -0.1929 -0.9029 -0.7180
17977TIP3    H175422   0.446   0.323   2.839 -1.1374 -1.5951  0.4677
17977TIP3    H275423   0.373   0.416   2.744 -1.1195 -2.9799 -0.9327
17978TIP3   OH275424   2.764   2.200  11.485  0.8677  0.1022  0.1314
17978TIP3    H175425   2.721   2.269  11.434  1.2054 -0.3395 -0.7763
17978TIP3    H275426   2.800   2.140  11.419  2.0773 -0.0215  0.8671
17979TIP3   OH275427   4.118   1.082   5.298  0.0154  0.3058  0.0816
17979TIP3    H175428   4.135   0.996   5.258 -1.6812  0.8129 -1.9330
17979TIP3    H275429   4.186   1.092   5.364  2.1138 -1.2876 -1.6826
17980TIP3   OH275430   6.129   5.575  14.478 -0.0732  0.3942 -0.0320
17980TIP3    H175431   6.202   5.545  14.533 -1.2769  1.0594  2.0430
17980TIP3    H275432   6.051   5.536  14.518 -0.9592  0.1992 -1.8301
17981TIP3   OH275433   4.904   5.612  13.728  0.0347  0.1828 -0.0912
17981TIP3    H175434   4.903   5.565  13.645 -0.5781  0.5763 -0.3240
17981TIP3    H275435   4.917   5.704  13.703  1.1479  0.1500  0.3482
17982TIP3   OH275436   1.118   6.466   3.059 -0.5174 -0.7666 -0.4021
17982TIP3    H175437   1.179   6.528   3.098 -1.7300  1.5063 -1.8654
17982TIP3    H275438   1.049   6.456   3.124 -0.8040  0.2663 -0.5221
17983TIP3   OH275439   4.931   4.022  14.382  0.3821 -0.8299 -0.0179
17983TIP3    H175440   4.963   4.075  14.309  0.6531 -1.3798 -0.2998
17983TIP3    H275441   4.836   4.029  14.377  0.4076 -0.5980 -0.2155
17984TIP3   OH275442   2.032   4.323  10.532  0.4923 -0.1920  0.1103
17984TIP3    H175443   2.022   4.397  10.472  0.2097  2.2731  2.9450
17984TIP3    H275444   1.942   4.300  10.557  0.6305 -0.6405  0.1983
17985TIP3   OH275445   0.818   5.918  12.451 -0.4978 -0.4431  0.6234
17985TIP3    H175446   0.887   5.974  12.414 -0.6114  1.1581  2.6129
17985TIP3    H275447   0.855   5.830  12.451  0.8993  0.1191  0.1618
17986TIP3   OH275448   6.547   3.003  14.921 -0.4335  0.0735  0.0189
17986TIP3    H175449   6.518   3.060  14.850  0.9828  0.7235 -0.0561
17986TIP3    H275450   6.534   3.054  15.000 -1.5595 -0.4770  0.2226
17987TIP3   OH275451   2.888   6.245   5.411  0.1413  0.3297  0.4089
17987TIP3    H175452   2.819   6.310   5.419  0.2807  0.4653  0.5087
17987TIP3    H275453   2.942   6.256   5.490  0.9176  0.9713 -0.2023
17988TIP3   OH275454   2.915   3.208   6.387 -0.3784  0.3672  0.7005
17988TIP3    H175455   2.971   3.256   6.326 -0.1170  0.7988  1.2691
17988TIP3    H275456   2.963   3.126   6.404 -1.7588 -1.0963 -1.8434
17989TIP3   OH275457   1.001   0.285  16.745  0.6502  0.4686 -0.1515
17989TIP3    H175458   1.042   0.320  16.824 -1.0927  0.4991  0.7796
17989TIP3    H275459   1.022   0.192  16.747 -2.1997 -0.2915  2.3210
17990TIP3   OH275460   6.131   5.803   0.901  0.0049 -0.3288  0.7764
17990TIP3    H175461   6.187   5.787   0.825  0.8139  0.2647  1.2386
17990TIP3    H275462   6.180   5.866   0.954 -0.3984 -0.9978  1.9623
17991TIP3   OH275463   3.268   5.225   3.931  0.0782  0.4571  0.0318
17991TIP3    H175464   3.209   5.155   3.962 -0.0913  0.8845  0.7054
17991TIP3    H275465   3.226   5.306   3.960  1.1527  0.7573  0.8364
17992TIP3   OH275466   1.073   3.172   0.819 -0.3585  0.4605  0.1343
17992TIP3    H175467   1.072   3.255   0.771  1.5099  1.4871  1.7092
17992TIP3    H275468   1.024   3.190   0.899 -1.1501 -0.4210 -0.1321
17993TIP3   OH275469   0.436   1.077   3.737  0.4653 -0.3925 -0.0467
17993TIP3    H175470   0.364   1.107   3.793  0.8463 -0.8008  0.6696
17993TIP3    H275471   0.499   1.149   3.738 -0.6468  0.6873 -2.0296
17994TIP3   OH275472   1.072   3.971   6.150 -0.5362  0.0532 -0.7719
17994TIP3    H175473   0.977   3.973   6.165 -0.4263 -1.5002  0.4155
17994TIP3    H275474   1.109   4.015   6.227 -0.2770  0.6429 -1.2276
17995TIP3   OH275475   4.789   2.604   1.380  0.1452 -0.0677  0.4356
17995TIP3    H175476   4.776   2.573   1.291  0.8742  0.7522  0.0298
17995TIP3    H275477   4.729   2.679   1.388  1.8693  1.4443 -0.2318
17996TIP3   OH275478   5.363   4.658  11.779 -0.5925  0.5552 -0.3084
17996TIP3    H175479   5.280   4.691  11.814 -0.1386  2.5585 -0.9600
17996TIP3    H275480   5.337   4.587  11.720 -1.6967  0.0870  0.6835
17997TIP3   OH275481   6.634   0.052   5.198 -0.4735  0.2050  0.0374
17997TIP3    H175482   6.683   0.010   5.128 -0.0441 -0.1431  0.5371
17997TIP3    H275483   6.550   0.075   5.158 -0.5656 -0.7642 -0.3622
17998TIP3   OH275484   6.570   5.153   4.950 -0.1403  0.4035  0.4377
17998TIP3    H175485   6.646   5.207   4.969 -0.8894  1.7058 -0.1324
17998TIP3    H275486   6.570   5.086   5.018  2.3941 -0.6191 -0.4307
17999TIP3   OH275487   4.884   2.712  16.867 -0.1491  0.0125 -0.0225
17999TIP3    H175488   4.977   2.700  16.885 -0.5647  0.9596  3.6180
17999TIP3    H275489   4.871   2.807  16.870 -1.3224 -0.1376  0.2672
18000TIP3   OH275490   1.563   3.681  15.369  0.1903 -0.3328 -0.1630
18000TIP3    H175491   1.655   3.707  15.370  0.6760 -1.8562 -1.4216
18000TIP3    H275492   1.542   3.667  15.277 -2.3252  3.1997 -0.3188
18001TIP3   OH275493   0.611   1.641  12.153  0.0217  0.1035  0.1763
18001TIP3    H175494   0.595   1.569  12.215  0.7792  0.0578  0.3323
18001TIP3    H275495   0.531   1.693  12.156 -0.1990 -0.2511  0.7267
18002TIP3   OH275496   2.556   2.321  13.591  0.2228 -0.1641 -0.4116
18002TIP3    H175497   2.595   2.260  13.653  2.2706  1.1378 -0.3046
18002TIP3    H275498   2.632   2.362  13.547 -1.1148  0.3909 -2.3432
18003TIP3   OH275499   6.379   0.631   0.142  0.5970  0.6651 -1.1129
18003TIP3    H175500   6.362   0.597   0.230  1.7911 -0.4352 -1.2775
18003TIP3    H275501   6.300   0.609   0.092 -0.0262  1.1573 -0.3864
18004TIP3   OH275502   6.251   6.822   1.752 -0.0005  0.3382 -0.5535
18004TIP3    H175503   6.159   6.834   1.730 -0.4233 -0.1204  0.8342
18004TIP3    H275504   6.277   6.904   1.794 -0.2003 -0.0386  0.3383
18005TIP3   OH275505   1.767   1.955  10.762  0.0926 -0.0279  0.0184
18005TIP3    H175506   1.852   1.995  10.782  0.3032 -1.1365  1.5570
18005TIP3    H275507   1.705   2.005  10.815 -0.1173  0.3408 -0.5735
18006TIP3   OH275508   2.895   0.168  12.990 -0.1477 -0.4287 -0.8304
18006TIP3    H175509   2.815   0.137  13.031  0.5868 -0.8629  0.3208
18006TIP3    H275510   2.930   0.233  13.051 -0.3645  0.8599 -2.0237
18007TIP3   OH275511   6.667   2.967  15.253  0.6280  0.0436 -0.6335
18007TIP3    H175512   6.753   2.970  15.294 -0.8456  0.7390  2.7380
18007TIP3    H275513   6.627   2.886  15.287  0.2574 -0.8619 -3.0145
18008TIP3   OH275514   1.678   3.829   4.515 -0.3701 -0.1669  0.4457
18008TIP3    H175515   1.738   3.886   4.563  0.1743 -0.1240 -0.2678
18008TIP3    H275516   1.663   3.754   4.573 -0.3032  0.2273  0.9764
18009TIP3   OH275517   0.842   1.620   3.921 -0.5114 -0.9267 -0.0979
18009TIP3    H175518   0.771   1.667   3.965 -0.9669  0.2041 -1.9423
18009TIP3    H275519   0.797   1.551   3.872 -0.1638 -1.2109 -0.0172
18010TIP3   OH275520   4.815   0.775   3.551 -0.3485  0.2592  0.0097
18010TIP3    H175521   4.816   0.696   3.605 -0.8599 -0.6116 -1.2156
18010TIP3    H275522   4.907   0.792   3.532 -0.2522 -0.1809  0.0792
18011TIP3   OH275523   3.319   2.854   1.596 -0.3627 -0.0070 -0.4797
18011TIP3    H175524   3.303   2.949   1.592 -0.5217  0.0369  0.7635
18011TIP3    H275525   3.397   2.841   1.541  0.9816  1.1962  1.0243
18012TIP3   OH275526   3.059   3.778   0.909  0.1143  0.6106 -0.1058
18012TIP3    H175527   3.065   3.689   0.943  0.6837  0.0571 -1.5732
18012TIP3    H275528   3.036   3.767   0.817  3.3129  1.7705 -1.1848
18013TIP3   OH275529   2.824   5.027   0.689 -0.2029 -0.5016  0.3583
18013TIP3    H175530   2.732   5.032   0.713 -0.4852 -1.9797 -0.3321
18013TIP3    H275531   2.863   4.972   0.758  0.4782  1.2362  1.4283
18014TIP3   OH275532   3.351   3.471  17.157  0.2579 -0.1910  0.0128
18014TIP3    H175533   3.255   3.468  17.162  0.2367  1.4732  1.1842
18014TIP3    H275534   3.369   3.525  17.080  0.1771  1.9327  1.4178
18015TIP3   OH275535   1.311   1.548   0.289 -0.2978 -0.3855  0.2669
18015TIP3    H175536   1.322   1.453   0.295 -0.8839 -0.8013 -3.0718
18015TIP3    H275537   1.223   1.564   0.321 -0.6820 -1.1681 -0.3628
18016TIP3   OH275538   2.897   3.873  14.388 -0.3835 -0.4185 -0.1191
18016TIP3    H175539   2.902   3.939  14.456 -0.7664  0.0425 -0.5316
18016TIP3    H275540   2.832   3.906  14.326  1.5724  0.3198 -1.9229
18017TIP3   OH275541   2.049   1.871  12.414  0.2639  0.6176 -0.3545
18017TIP3    H175542   1.982   1.914  12.362  1.1956  0.6831 -1.5488
18017TIP3    H275543   2.096   1.942  12.458  0.1167  0.6334 -0.2238
18018TIP3   OH275544   0.288   1.676   0.391  0.8942  0.1991 -0.1040
18018TIP3    H175545   0.355   1.621   0.351  1.9547  0.3592  1.3771
18018TIP3    H275546   0.335   1.753   0.422  0.0407  0.3266  0.9461
18019TIP3   OH275547   2.709   6.294  16.931 -0.0579  0.2886  0.0958
18019TIP3    H175548   2.754   6.370  16.968 -2.5349  3.3074 -2.4966
18019TIP3    H275549   2.616   6.316  16.934 -0.7398 -1.3489 -3.1779
18020TIP3   OH275550   6.699   1.085  16.728 -0.3968 -0.1362  0.5918
18020TIP3    H175551   6.688   1.035  16.647 -0.4051 -0.1567  0.6059
18020TIP3    H275552   6.621   1.140  16.733  0.3697  1.0778 -0.2736
18021TIP3   OH275553   4.319   0.044   5.109 -0.4023  0.2021 -0.4801
18021TIP3    H175554   4.373   0.105   5.158  1.5250 -0.1125 -2.0886
18021TIP3    H275555   4.259   0.100   5.059  1.0397  0.8139 -1.5865
18022TIP3   OH275556   5.521   2.913  15.919  0.3657  0.2552  0.3295
18022TIP3    H175557   5.554   3.002  15.904  1.9308 -0.1947  0.8725
18022TIP3    H275558   5.597   2.857  15.906 -0.8527 -1.1513 -1.1313
18023TIP3   OH275559   2.616   3.214  12.246 -0.1433  0.3383 -0.0467
18023TIP3    H175560   2.631   3.122  12.267  0.4971  0.4735  0.1202
18023TIP3    H275561   2.592   3.214  12.153  0.0277  0.0168 -0.0927
18024TIP3   OH275562   3.350   1.351   2.859  0.0936 -0.7126 -0.3726
18024TIP3    H175563   3.347   1.428   2.916 -0.6816 -1.5038  0.6780
18024TIP3    H275564   3.440   1.349   2.827 -0.0812  1.1458 -1.1657
18025TIP3   OH275565   0.063   6.534   0.055 -0.3687  0.8080 -0.5591
18025TIP3    H175566   0.096   6.444   0.055 -2.3097  0.0279 -1.8588
18025TIP3    H275567   0.111   6.577  -0.017 -0.4960  0.3671 -0.9121
18026TIP3   OH275568   3.312   1.351   5.996 -0.6778 -0.2899  0.4518
18026TIP3    H175569   3.291   1.337   6.088 -2.6492  0.3714  0.1541
18026TIP3    H275570   3.278   1.274   5.951 -0.9610  0.0219  0.1246
18027TIP3   OH275571   3.049   1.599  13.173  0.0696  0.2225  0.2130
18027TIP3    H175572   2.982   1.642  13.226 -0.9352 -0.6829 -0.2630
18027TIP3    H275573   3.117   1.575  13.235 -0.0588  1.1409  0.7208
18028TIP3   OH275574   0.242   1.755   3.257  0.1367 -0.2208 -0.0406
18028TIP3    H175575   0.263   1.736   3.165  0.7036  0.1084  0.0191
18028TIP3    H275576   0.156   1.797   3.253  0.9203  1.4384 -0.6041
18029TIP3   OH275577   2.099   6.723  14.514 -0.0433 -0.5613  0.4294
18029TIP3    H175578   2.033   6.654  14.509 -2.1873  1.2627  1.6984
18029TIP3    H275579   2.118   6.732  14.607  1.7721 -0.7841  0.1240
18030TIP3   OH275580   2.910   2.039   0.677  0.3323  0.0775 -0.0974
18030TIP3    H175581   2.910   1.997   0.591 -3.0060 -1.1864  0.3704
18030TIP3    H275582   2.846   2.109   0.669  1.0145  0.8486  0.9988
18031TIP3   OH275583   3.752   5.871  12.215  0.0859 -0.0583  0.4450
18031TIP3    H175584   3.724   5.959  12.192 -0.4824 -0.5422 -0.8158
18031TIP3    H275585   3.713   5.815  12.147  0.1164 -1.3216  1.4338
18032TIP3   OH275586   3.985   6.377  13.605 -0.4805 -0.0971 -0.0139
18032TIP3    H175587   3.940   6.456  13.573 -0.6485 -0.0283  0.3850
18032TIP3    H275588   3.962   6.309  13.542 -1.0913 -0.0450  0.1458
18033TIP3   OH275589   2.261   6.740   1.651 -0.5990  0.3275  0.0036
18033TIP3    H175590   2.279   6.692   1.571 -2.1868 -2.7301  1.3246
18033TIP3    H275591   2.341   6.734   1.702 -0.9011 -1.3465  0.3107
18034TIP3   OH275592   6.453   1.535  14.631 -0.1557 -0.1142  0.0508
18034TIP3    H175593   6.388   1.555  14.564 -0.1545 -0.2756 -0.0003
18034TIP3    H275594   6.500   1.459  14.596  1.2486  1.0715 -0.7566
18035TIP3   OH275595   5.115   2.221  13.357  0.1484 -0.5198  0.2923
18035TIP3    H175596   5.047   2.246  13.295 -0.3402 -0.6678  0.7604
18035TIP3    H275597   5.195   2.217  13.305 -0.3499 -1.1720 -0.4329
18036TIP3   OH275598   2.676   2.067   1.412 -0.3399 -0.2503  0.0203
18036TIP3    H175599   2.661   2.088   1.320  0.2870 -0.6996 -0.1978
18036TIP3    H275600   2.640   2.141   1.460 -1.3355 -0.3506 -0.5478
18037TIP3   OH275601   1.223   3.776  12.140 -0.2683  0.2075 -0.1202
18037TIP3    H175602   1.206   3.756  12.232 -0.8073  0.9426 -0.0498
18037TIP3    H275603   1.144   3.750  12.094  0.2789 -0.8443 -0.4933
18038TIP3   OH275604   0.944   1.357   2.398 -0.1780  0.2775 -0.0788
18038TIP3    H175605   0.916   1.345   2.489 -0.6731 -0.1591 -0.2823
18038TIP3    H275606   0.912   1.444   2.375 -0.1458  0.3465  0.1275
18039TIP3   OH275607   1.141   0.334  13.579 -0.1455 -0.0147  0.7517
18039TIP3    H175608   1.175   0.247  13.556 -2.5700 -0.9385  0.3406
18039TIP3    H275609   1.052   0.333  13.546 -0.5386  2.3114  1.6272
18040TIP3   OH275610   2.217   6.435   0.528  0.1360  0.2877 -0.5743
18040TIP3    H175611   2.172   6.350   0.531 -1.4454  1.0554 -1.4315
18040TIP3    H275612   2.286   6.422   0.463 -0.6393 -0.1225 -1.3449
18041TIP3   OH275613   1.947   6.689   3.505  0.5577  0.3653 -0.6176
18041TIP3    H175614   1.852   6.703   3.509  0.5979  0.5546  3.1329
18041TIP3    H275615   1.983   6.777   3.493  0.2917  0.2950 -2.0402
18042TIP3   OH275616   4.566   2.037   1.224 -0.4753  0.0052  0.1483
18042TIP3    H175617   4.492   2.076   1.270 -0.3837 -0.4898  0.7398
18042TIP3    H275618   4.625   2.009   1.295 -0.6457 -1.3931 -0.2337
18043TIP3   OH275619   1.620   2.443   0.454  0.0685 -0.8608  0.3687
18043TIP3    H175620   1.603   2.350   0.442  1.3639 -1.2166  1.1644
18043TIP3    H275621   1.565   2.486   0.388  0.3334 -2.2333 -0.7875
18044TIP3   OH275622   2.730   6.395   0.047 -0.4367  0.3147 -0.4991
18044TIP3    H175623   2.801   6.381   0.110 -1.1791  0.3842  0.3789
18044TIP3    H275624   2.765   6.460  -0.014 -0.1630  1.2989  0.6462
18045TIP3   OH275625   0.642   4.182   2.417  0.6649  0.5705 -0.0566
18045TIP3    H175626   0.628   4.168   2.511 -2.4115  1.0048 -0.3570
18045TIP3    H275627   0.658   4.094   2.382 -0.9027  0.0170  0.5405
18046TIP3   OH275628   6.530   6.764  17.074 -0.5733 -0.0073 -0.1034
18046TIP3    H175629   6.576   6.808  17.146  0.3737  0.5937 -1.0399
18046TIP3    H275630   6.446   6.738  17.111  0.5788 -1.3339  1.7354
18047TIP3   OH275631   4.790   0.036  11.733  0.1776 -0.0543 -0.1555
18047TIP3    H175632   4.824   0.118  11.695  3.1531 -1.6595 -1.2900
18047TIP3    H275633   4.816   0.041  11.825 -0.8374  0.7983  0.1103
18048TIP3   OH275634   0.394   4.440   5.168  0.3148 -0.1613  0.4465
18048TIP3    H175635   0.408   4.524   5.212 -1.8475  0.0496  0.8743
18048TIP3    H275636   0.433   4.375   5.227 -0.3292  0.3359  1.4399
18049TIP3   OH275637   5.919   4.600  14.536  1.1855  0.5242 -0.1972
18049TIP3    H175638   5.826   4.603  14.559  0.9753  1.7818 -1.1102
18049TIP3    H275639   5.964   4.581  14.618  0.0740 -1.1609  0.0716
18050TIP3   OH275640   1.538   1.253  14.161 -0.0934 -0.0473 -0.3295
18050TIP3    H175641   1.481   1.264  14.237  0.2616  2.0141 -0.3086
18050TIP3    H275642   1.622   1.288  14.189  0.1315  0.4365 -1.5720
18051TIP3   OH275643   4.455   4.346   4.677 -0.5352 -0.1569  0.1882
18051TIP3    H175644   4.394   4.340   4.603 -1.4457  1.5906  0.7283
18051TIP3    H275645   4.514   4.417   4.654 -0.5292  0.0858  0.9215
18052TIP3   OH275646   4.238   1.802  12.829 -0.2851  0.4700  0.1952
18052TIP3    H175647   4.240   1.870  12.762  0.8898 -0.1723 -0.4506
18052TIP3    H275648   4.259   1.721  12.782 -1.7340 -0.3877  0.9191
18053TIP3   OH275649   2.565   5.689  14.694 -0.0110 -0.6674 -0.1381
18053TIP3    H175650   2.472   5.700  14.677  0.3459 -0.3050 -2.2522
18053TIP3    H275651   2.576   5.710  14.787 -2.3084 -2.8356  0.7123
18054TIP3   OH275652   3.132   3.411  14.626 -0.3024 -0.3546 -0.5083
18054TIP3    H175653   3.150   3.400  14.719 -3.2619  0.2264  0.2145
18054TIP3    H275654   3.214   3.446  14.590  1.1662 -1.3279  1.6774
18055TIP3   OH275655   3.356   2.419  13.745 -0.0184 -0.4351  0.3955
18055TIP3    H175656   3.394   2.369  13.673  0.0399  0.3752 -0.1477
18055TIP3    H275657   3.343   2.354  13.814 -1.0609 -1.4499 -0.6987
18056TIP3   OH275658   6.059   5.814  14.267  0.0522  0.3748  0.1252
18056TIP3    H175659   6.056   5.756  14.343 -0.1592 -0.6733 -0.6584
18056TIP3    H275660   6.034   5.900  14.302 -0.0603 -0.0815  1.2276
18057TIP3   OH275661   0.458   6.430   0.854 -0.1635  0.2297  0.5911
18057TIP3    H175662   0.387   6.447   0.792  0.8411 -1.3057 -1.0769
18057TIP3    H275663   0.415   6.390   0.930 -1.0987 -0.7459 -0.4258
18058TIP3   OH275664   0.948   2.574   4.562 -0.0939 -0.1229  0.0713
18058TIP3    H175665   0.973   2.660   4.596  1.6570 -0.5205 -0.1576
18058TIP3    H275666   1.023   2.546   4.510 -1.9423 -0.2925 -2.7384
18059TIP3   OH275667   4.002   0.988  14.855  0.2815  0.2466 -0.4024
18059TIP3    H175668   4.019   1.079  14.878 -0.7946  0.4352 -0.2950
18059TIP3    H275669   3.915   0.970  14.892 -0.0509 -0.4460 -1.4747
18060TIP3   OH275670   2.007   2.601  16.609  0.2670  0.4865 -0.1672
18060TIP3    H175671   1.935   2.665  16.605  0.1734  0.5541  1.7466
18060TIP3    H275672   2.060   2.630  16.683 -1.0939 -2.9471  2.3982
18061TIP3   OH275673   0.053   1.498   5.300  0.9253 -0.6734 -0.1252
18061TIP3    H175674   0.059   1.478   5.393  1.4798 -0.8612 -0.2039
18061TIP3    H275675   0.106   1.577   5.289 -0.9174  0.6719  0.1135
18062TIP3   OH275676   5.988   0.800  14.744  0.5440  0.6244 -0.2234
18062TIP3    H175677   5.943   0.880  14.720  0.7191  0.3642 -1.4998
18062TIP3    H275678   5.945   0.731  14.692  0.3644 -0.1203  0.8800
18063TIP3   OH275679   4.359   0.104   2.742 -0.1308  0.0236  0.3126
18063TIP3    H175680   4.300   0.164   2.787  1.2512  1.9132 -0.2488
18063TIP3    H275681   4.358   0.134   2.651  0.3878 -0.9969 -0.0479
18064TIP3   OH275682   4.201   6.052   6.338  0.4672 -0.0812  0.2316
18064TIP3    H175683   4.190   6.145   6.357  1.8264  0.4136 -1.1938
18064TIP3    H275684   4.253   6.018   6.410 -0.8362  0.0115  1.2596
18065TIP3   OH275685   6.642   3.080   2.958 -0.0822 -0.2417  0.5292
18065TIP3    H175686   6.623   2.991   2.928 -0.9266  0.1608 -0.1608
18065TIP3    H275687   6.641   3.074   3.054  2.9844 -1.6183  0.5889
18066TIP3   OH275688   1.570   0.872  16.374  0.2323  0.1119  0.3510
18066TIP3    H175689   1.539   0.807  16.311 -0.0730  1.6668 -1.1968
18066TIP3    H275690   1.633   0.826  16.428  0.6103 -1.2687 -1.2079
18067TIP3   OH275691   6.651   4.609  11.975 -0.3651  0.4071 -0.1033
18067TIP3    H175692   6.745   4.605  11.954 -0.2048 -0.0797  0.6868
18067TIP3    H275693   6.633   4.526  12.018 -0.7634  1.2375  1.3787
18068TIP3   OH275694   3.491   4.942  16.283 -0.0365  0.1485  0.1430
18068TIP3    H175695   3.427   4.905  16.222  0.0388  0.1497  0.0632
18068TIP3    H275696   3.476   4.894  16.365  0.7635 -0.8063 -0.2455
18069TIP3   OH275697   5.837   3.255   4.570  0.0137  0.3239 -0.1134
18069TIP3    H175698   5.780   3.318   4.614  1.3649 -0.0562  2.4008
18069TIP3    H275699   5.892   3.307   4.512 -1.0773  1.0026 -0.5645
18070TIP3   OH275700   5.465   4.728  13.326  0.3823  0.4421  0.1701
18070TIP3    H175701   5.451   4.821  13.340  0.2062  0.6687 -1.3667
18070TIP3    H275702   5.478   4.719  13.232  0.9431 -1.0225  0.3531
18071TIP3   OH275703   3.153   6.025  14.733  0.4611 -0.6354  0.1630
18071TIP3    H175704   3.212   6.078  14.680  0.6830  0.7922  1.7686
18071TIP3    H275705   3.201   5.943  14.746  0.9695 -0.4881 -0.6859
18072TIP3   OH275706   5.695   5.962  12.595 -0.9246 -0.2670  0.1828
18072TIP3    H175707   5.617   5.909  12.578 -0.2197 -0.8329 -1.5699
18072TIP3    H275708   5.768   5.900  12.584 -0.0710  1.0366 -1.9862
18073TIP3   OH275709   0.463   1.297  15.698 -0.7405  0.4919  0.4674
18073TIP3    H175710   0.454   1.274  15.790  2.3054  0.9209  0.9587
18073TIP3    H275711   0.510   1.223  15.659  1.6620  2.0127  0.2476
18074TIP3   OH275712   6.167   4.627  15.176 -0.1695 -0.3364  0.3800
18074TIP3    H175713   6.208   4.541  15.169  0.3973 -0.0059 -0.5206
18074TIP3    H275714   6.235   4.689  15.150 -0.3543  0.4545  1.6771
18075TIP3   OH275715   2.786   4.011   0.465  0.1678  0.0509 -0.1408
18075TIP3    H175716   2.808   4.027   0.557 -0.1605  2.9557 -0.4751
18075TIP3    H275717   2.858   4.049   0.415 -1.0896  1.2558 -1.1040
18076TIP3   OH275718   5.259   4.751   4.510 -0.7606 -0.1003 -0.5087
18076TIP3    H175719   5.203   4.690   4.461 -0.0502 -1.2478  0.0522
18076TIP3    H275720   5.232   4.838   4.481 -2.8736 -0.6070 -0.2246
18077TIP3   OH275721   6.691   4.300  11.726  0.0006 -0.5277  0.1975
18077TIP3    H175722   6.640   4.246  11.666 -2.0412 -0.0156  1.3940
18077TIP3    H275723   6.669   4.390  11.702  1.4079 -0.2346 -0.1127
18078TIP3   OH275724   1.102   3.178   6.047 -0.1596  0.1266 -0.5166
18078TIP3    H175725   1.103   3.270   6.073  0.7332  0.2742 -1.0161
18078TIP3    H275726   1.009   3.158   6.032 -0.6767  0.1839  2.0994
18079TIP3   OH275727   4.572   0.851  12.895 -0.0596 -0.4226  0.4759
18079TIP3    H175728   4.629   0.913  12.849  0.1339  0.4052  1.7897
18079TIP3    H275729   4.487   0.859  12.850 -0.0597  0.8585  0.6618
18080TIP3   OH275730   1.968   3.231  13.165 -0.0203  0.1565 -0.8617
18080TIP3    H175731   2.059   3.256  13.148  0.4590 -1.7665 -1.4502
18080TIP3    H275732   1.940   3.289  13.236  2.2584 -0.3053  0.5428
18081TIP3   OH275733   6.041   3.912  14.928  0.4620  0.7880  0.1482
18081TIP3    H175734   5.946   3.910  14.917  0.3689  0.5187  0.8985
18081TIP3    H275735   6.066   3.820  14.940  0.6537  0.9467  1.0974
18082TIP3   OH275736   6.698   4.898  11.525  0.1800  0.1788  0.0471
18082TIP3    H175737   6.670   4.964  11.589  0.3313  0.8589 -0.5763
18082TIP3    H275738   6.625   4.892  11.464 -0.2834 -1.0155  0.6723
18083TIP3   OH275739   3.578   6.846  12.154  0.7234 -0.5611  0.0920
18083TIP3    H175740   3.566   6.821  12.062 -0.2305 -2.7609  0.7558
18083TIP3    H275741   3.525   6.925  12.165  1.9305  0.5543 -1.5302
18084TIP3   OH275742   6.739   3.154  13.215  0.2333 -0.2793  0.2711
18084TIP3    H175743   6.762   3.062  13.213 -1.4564 -0.7371 -0.4299
18084TIP3    H275744   6.643   3.155  13.209  0.2857  1.5525 -2.3225
18085TIP3   OH275745   1.789   4.931  11.580 -0.4084 -0.1643 -0.5056
18085TIP3    H175746   1.740   4.962  11.504 -0.1661  0.3579 -0.4507
18085TIP3    H275747   1.862   4.993  11.589 -0.7871  0.1584  0.5210
18086TIP3   OH275748   6.601   3.687  14.437  0.3122 -0.4656 -0.0291
18086TIP3    H175749   6.587   3.774  14.399  0.3497  0.0166  1.0124
18086TIP3    H275750   6.513   3.654  14.453  0.2563  0.4535  1.8676
18087TIP3   OH275751   6.075   1.939  17.108 -0.2911  0.5655 -0.1091
18087TIP3    H175752   5.990   1.906  17.134  0.2888 -0.9148  0.0120
18087TIP3    H275753   6.095   2.008  17.171 -0.9402  0.2148  0.4859
18088TIP3   OH275754   0.329   2.201  11.474  0.3855  0.3018 -0.4705
18088TIP3    H175755   0.404   2.142  11.485 -1.7956 -2.4891  0.4884
18088TIP3    H275756   0.303   2.190  11.382 -1.5100 -2.3310  0.2801
18089TIP3   OH275757   0.854   4.878   4.252 -0.0754 -0.0018  0.3927
18089TIP3    H175758   0.897   4.942   4.308  0.5498 -0.1077  0.0448
18089TIP3    H275759   0.874   4.794   4.292 -1.2786  0.0264  1.1092
18090TIP3   OH275760   2.531   0.469  15.239 -0.4068 -0.3644 -0.0336
18090TIP3    H175761   2.511   0.562  15.248 -2.1791 -0.6331 -0.7290
18090TIP3    H275762   2.581   0.448  15.318 -1.2791  0.8570  0.8995
18091TIP3   OH275763   4.390   4.598  15.586 -0.0012 -0.4284 -0.4490
18091TIP3    H175764   4.400   4.503  15.589  0.4531 -0.3782 -0.3489
18091TIP3    H275765   4.357   4.615  15.498 -1.8909 -0.8362  0.1235
18092TIP3   OH275766   2.846   5.825   0.225  0.7909  0.3648 -0.6348
18092TIP3    H175767   2.844   5.731   0.244 -0.2011 -0.1313 -2.8434
18092TIP3    H275768   2.766   5.859   0.264  1.3405  0.4203  0.5105
18093TIP3   OH275769   5.492   4.369  15.015  0.1608 -0.1072 -0.0662
18093TIP3    H175770   5.560   4.343  15.078  0.0653  0.7848  0.4178
18093TIP3    H275771   5.468   4.458  15.041  1.2642  0.9332 -2.3322
18094TIP3   OH275772   5.392   0.687  16.247 -0.4544 -0.0271 -0.1101
18094TIP3    H175773   5.457   0.757  16.258 -0.5672 -0.1551  1.5032
18094TIP3    H275774   5.408   0.654  16.159  0.8750  0.7496 -0.1862
18095TIP3   OH275775   1.147   4.240  13.559 -0.0299  0.6287 -0.0061
18095TIP3    H175776   1.060   4.221  13.594  0.1202  0.5904  0.3540
18095TIP3    H275777   1.207   4.218  13.630  0.1154  3.0777  0.7453
18096TIP3   OH275778   1.293   4.098  16.297  0.3993  0.4746 -0.0845
18096TIP3    H175779   1.379   4.101  16.339  1.6522  0.1045 -2.4331
18096TIP3    H275780   1.271   4.190  16.281 -0.1418  0.6267  1.3771
18097TIP3   OH275781   2.012   3.226  11.476  0.6910 -0.3750 -0.4045
18097TIP3    H175782   2.100   3.253  11.502  0.0415 -0.3887  2.0696
18097TIP3    H275783   1.998   3.143  11.522 -0.8867  0.0415 -0.0580
18098TIP3   OH275784   5.361   4.292   1.423  0.4079  0.2316 -0.2822
18098TIP3    H175785   5.368   4.345   1.502 -0.7840  1.4359 -0.9559
18098TIP3    H275786   5.391   4.349   1.353  0.5988 -0.5301 -0.8363
18099TIP3   OH275787   6.164   4.388   0.659  0.0203  0.4729 -0.6965
18099TIP3    H175788   6.155   4.335   0.738 -0.1676  0.5997 -0.6319
18099TIP3    H275789   6.219   4.335   0.601  0.6838  0.6589 -0.2475
18100TIP3   OH275790   3.720   2.657  11.206  0.1816  0.8265  0.1143
18100TIP3    H175791   3.764   2.674  11.289  2.5167  0.9179 -1.0765
18100TIP3    H275792   3.748   2.728  11.149 -0.0036 -0.1696 -1.2641
18101TIP3   OH275793   4.236   5.210   1.749  0.4425  0.9325 -0.4550
18101TIP3    H175794   4.259   5.118   1.764 -1.2603  0.3321 -1.3423
18101TIP3    H275795   4.315   5.247   1.708  1.4268  0.0774  0.6064
18102TIP3   OH275796   6.319   0.405   1.236 -0.0799  0.2899 -0.5029
18102TIP3    H175797   6.312   0.485   1.184  0.1818  0.5306 -0.1720
18102TIP3    H275798   6.384   0.426   1.303  0.1529 -0.2714 -0.5470
18103TIP3   OH275799   0.073   4.822   4.802  0.1802  0.1792  0.2358
18103TIP3    H175800   0.137   4.894   4.805  0.1110  0.3079 -0.8789
18103TIP3    H275801   0.098   4.766   4.876  0.7634  0.9013  0.6166
18104TIP3   OH275802   0.831   5.259   0.358 -0.1381 -0.4868  0.7874
18104TIP3    H175803   0.841   5.354   0.364  1.3445 -0.5454 -0.0313
18104TIP3    H275804   0.770   5.246   0.285  1.4060 -0.1370 -0.6481
18105TIP3   OH275805   0.703   0.458  11.875 -0.2461 -0.0178  0.2527
18105TIP3    H175806   0.766   0.403  11.923 -0.6779 -0.2562  0.5468
18105TIP3    H275807   0.727   0.548  11.900  0.2430 -0.0815  0.0367
18106TIP3   OH275808   2.129   3.336  12.856 -0.0978  0.1951 -0.1563
18106TIP3    H175809   2.062   3.397  12.824 -0.8038 -1.0298 -1.0654
18106TIP3    H275810   2.159   3.375  12.938 -0.2431  1.9676 -0.8898
18107TIP3   OH275811   3.563   0.530   0.456 -0.3064 -0.4982  0.0853
18107TIP3    H175812   3.580   0.622   0.477 -0.4893 -0.3484 -0.4114
18107TIP3    H275813   3.606   0.516   0.371 -2.8749 -0.0129 -1.3932
18108TIP3   OH275814   4.341   2.914  13.944  0.3292  0.1102  0.3185
18108TIP3    H175815   4.257   2.888  13.982 -0.1044 -0.8073 -1.1536
18108TIP3    H275816   4.397   2.838  13.957  0.0784 -0.3454 -1.0683
18109TIP3   OH275817   6.202   6.631  15.381  0.3118 -0.3086  0.0305
18109TIP3    H175818   6.238   6.654  15.467  1.8732  1.5357 -1.0304
18109TIP3    H275819   6.256   6.558  15.351 -0.2929 -1.0161  0.6093
18110TIP3   OH275820   0.663   5.358  13.080 -0.3700 -0.1332  0.3226
18110TIP3    H175821   0.675   5.382  12.989  0.6576 -0.8715  0.2390
18110TIP3    H275822   0.675   5.263  13.081 -2.1313 -0.3837  0.9575
18111TIP3   OH275823   3.805   6.721  12.272 -0.2830  0.3650  0.3839
18111TIP3    H175824   3.874   6.763  12.220  0.3427  0.5535  1.3301
18111TIP3    H275825   3.724   6.763  12.243 -0.3323 -1.2946 -2.2473
18112TIP3   OH275826   5.243   5.467  11.634  0.3844  0.1379  0.1413
18112TIP3    H175827   5.255   5.423  11.718 -0.3610  0.1189  0.2417
18112TIP3    H275828   5.329   5.460  11.591  0.3785 -1.0923  0.3092
18113TIP3   OH275829   2.278   6.056   1.969 -0.4509 -0.1043 -0.1805
18113TIP3    H175830   2.204   6.035   2.026 -0.0133 -0.2555  0.3466
18113TIP3    H275831   2.285   5.980   1.911 -1.4552  0.4415 -1.0490
18114TIP3   OH275832   3.361   1.094  12.756 -0.3607  0.6105  0.4951
18114TIP3    H175833   3.322   1.121  12.673  1.4435 -1.3794 -1.1152
18114TIP3    H275834   3.430   1.159  12.772  4.0030 -2.3939 -3.3777
18115TIP3   OH275835   1.929   2.413  15.317 -0.0965  0.0290  0.1190
18115TIP3    H175836   1.966   2.334  15.358 -1.0491 -0.2301  0.5106
18115TIP3    H275837   1.950   2.483  15.378  0.9823  0.1360 -0.3567
18116TIP3   OH275838   3.565   5.739   1.884 -0.1303 -0.5610 -0.3284
18116TIP3    H175839   3.552   5.818   1.831 -1.0421  0.4341  1.3055
18116TIP3    H275840   3.523   5.669   1.834 -0.6704  0.2790 -1.0763
18117TIP3   OH275841   3.857   3.239   1.170 -0.3857  0.1369 -0.0438
18117TIP3    H175842   3.792   3.308   1.155 -0.6770 -0.1075  0.0970
18117TIP3    H275843   3.811   3.158   1.149 -0.6824 -0.1946  1.7884
18118TIP3   OH275844   3.255   5.999  16.678 -0.1914  0.2111 -0.1426
18118TIP3    H175845   3.216   6.061  16.740 -0.3687 -1.6943  1.7442
18118TIP3    H275846   3.181   5.958  16.634 -0.1563 -0.1487  0.1305
18119TIP3   OH275847   1.671   5.692   0.552  0.0116 -0.0403  0.0331
18119TIP3    H175848   1.632   5.604   0.554 -0.6208  0.1959 -1.0127
18119TIP3    H275849   1.671   5.720   0.644 -2.1752 -0.1230  0.1263
18120TIP3   OH275850   3.958   6.840  11.127  0.6364  0.6873  0.1254
18120TIP3    H175851   3.867   6.867  11.128  0.6865  0.8810 -0.4179
18120TIP3    H275852   3.958   6.757  11.079  0.5310 -0.1277  1.4883
18121TIP3   OH275853   0.104   0.292   1.038 -0.4541  0.3108  0.3004
18121TIP3    H175854   0.078   0.209   1.000 -1.8278  0.4464  0.8584
18121TIP3    H275855   0.186   0.274   1.084 -0.2258 -0.4886 -0.4149
18122TIP3   OH275856   3.470   4.606  12.745 -0.3501 -0.4615  0.4044
18122TIP3    H175857   3.488   4.532  12.803 -1.5256 -0.0049  1.3872
18122TIP3    H275858   3.552   4.619  12.698  0.5030 -1.1369  1.6377
18123TIP3   OH275859   4.266   1.960   5.645  0.1542  0.3073 -0.1529
18123TIP3    H175860   4.191   1.913   5.680  0.9614 -1.1159 -0.2517
18123TIP3    H275861   4.256   2.050   5.677 -0.8603 -0.1808  0.9551
18124TIP3   OH275862   3.054   5.949   1.379 -0.1547 -0.3761 -0.2441
18124TIP3    H175863   3.016   5.877   1.430 -1.0209 -0.0325 -0.4038
18124TIP3    H275864   3.105   5.905   1.311 -0.6104 -0.8351 -0.2920
18125TIP3   OH275865   6.496   4.754  15.978  0.1022 -0.2814  0.3432
18125TIP3    H175866   6.492   4.800  15.894  0.3624 -1.4977 -0.3678
18125TIP3    H275867   6.412   4.709  15.985 -1.9129  3.3586  2.9603
18126TIP3   OH275868   4.558   6.130  13.933  0.1853  0.6166 -0.0719
18126TIP3    H175869   4.653   6.122  13.943 -0.0458 -1.2575  1.0849
18126TIP3    H275870   4.528   6.041  13.914 -1.2910  1.2895 -1.1042
18127TIP3   OH275871   6.746   2.891   1.697 -0.0913  0.5531  0.3773
18127TIP3    H175872   6.801   2.898   1.775 -1.9161 -1.9066  2.0603
18127TIP3    H275873   6.793   2.831   1.639  0.8078  1.6114 -0.0199
18128TIP3   OH275874   6.142   6.494  16.821  0.1812  0.3858  0.3396
18128TIP3    H175875   6.179   6.477  16.908  1.6739  0.3732 -0.2617
18128TIP3    H275876   6.133   6.589  16.817  1.7291  0.5462 -0.0806
18129TIP3   OH275877   0.429   1.390   0.686  0.4604 -0.1584 -0.0105
18129TIP3    H175878   0.427   1.426   0.774  2.2805 -0.3745  0.1691
18129TIP3    H275879   0.394   1.302   0.695  0.3347 -0.0654  0.4351
18130TIP3   OH275880   5.454   3.732  15.960 -0.1967  0.7905  0.3402
18130TIP3    H175881   5.458   3.640  15.986  1.6921  1.1449  1.4613
18130TIP3    H275882   5.441   3.780  16.041  0.1896  1.5927 -0.0620
18131TIP3   OH275883   3.599   2.521   5.936  0.4344  0.1982 -0.4219
18131TIP3    H175884   3.570   2.506   6.026  1.3634 -1.5944 -0.3802
18131TIP3    H275885   3.521   2.553   5.890 -0.0913  0.9905  0.9603
18132TIP3   OH275886   6.597   3.993   2.159 -0.2115  0.0086  0.4077
18132TIP3    H175887   6.554   3.985   2.244  0.9034  0.7153  1.0606
18132TIP3    H275888   6.589   3.906   2.120 -0.7092 -0.3313  1.2430
18133TIP3   OH275889   6.837   1.237  15.116 -0.1493  0.1884 -0.0761
18133TIP3    H175890   6.869   1.281  15.195  0.0179  0.8405 -0.5007
18133TIP3    H275891   6.743   1.232  15.128 -0.0756 -0.1570  0.3856
18134TIP3   OH275892   4.680   2.840  12.355 -0.8352 -0.3662  0.1659
18134TIP3    H175893   4.703   2.892  12.278 -1.3952  0.8247  0.7816
18134TIP3    H275894   4.606   2.787  12.327 -0.1458 -0.9901 -0.5227
18135TIP3   OH275895   5.670   6.417   3.678 -0.1387 -0.3193 -0.0177
18135TIP3    H175896   5.648   6.356   3.749  2.3854 -1.2493  0.0845
18135TIP3    H275897   5.685   6.361   3.602 -1.6467  0.5711 -0.9970
18136TIP3   OH275898   1.739   2.032  12.593  0.0813  0.3870  0.4974
18136TIP3    H175899   1.645   2.014  12.603  0.1857 -0.1079  0.6090
18136TIP3    H275900   1.757   2.017  12.500  0.1260  0.0987  0.5506
18137TIP3   OH275901   1.533   2.328   2.163  1.1421  0.0095  0.0723
18137TIP3    H175902   1.505   2.247   2.208  0.8644  1.2702  2.3421
18137TIP3    H275903   1.628   2.331   2.178  1.6964 -1.2930 -2.5622
18138TIP3   OH275904   0.823   5.369   3.118  0.2931 -0.3310  0.4430
18138TIP3    H175905   0.853   5.441   3.062  0.7397  0.1560  1.2816
18138TIP3    H275906   0.790   5.303   3.057  0.5484  0.2809 -0.3778
18139TIP3   OH275907   3.078   6.623   5.994 -0.3001 -0.1091 -0.4184
18139TIP3    H175908   3.165   6.653   5.965 -0.6224 -0.0591 -1.3744
18139TIP3    H275909   3.090   6.530   6.013  0.1601  0.0891  0.2767
18140TIP3   OH275910   2.404   1.243  10.953 -0.1704  0.0426 -0.3903
18140TIP3    H175911   2.443   1.262  11.038  1.0277  1.9250 -1.2854
18140TIP3    H275912   2.370   1.154  10.961 -0.8469  0.4718  2.2883
18141TIP3   OH275913   2.453   6.577  13.824 -0.5636  0.1910 -0.5244
18141TIP3    H175914   2.480   6.664  13.853 -1.3816 -0.2907  1.9031
18141TIP3    H275915   2.371   6.592  13.777 -0.6819  0.7397 -0.1529
18142TIP3   OH275916   3.473   3.744  16.576  0.0209  0.3172 -0.6262
18142TIP3    H175917   3.483   3.839  16.568 -2.5005  0.8275  0.9897
18142TIP3    H275918   3.535   3.718  16.644  2.2446  0.3625 -2.5108
18143TIP3   OH275919   5.489   0.107   4.613  0.0920 -0.3067 -0.1445
18143TIP3    H175920   5.413   0.160   4.634 -1.7372 -1.0453 -4.0719
18143TIP3    H275921   5.464   0.017   4.637  0.4828 -0.3234  0.2250
18144TIP3   OH275922   4.117   6.317  14.630  0.2479 -0.2626  0.5836
18144TIP3    H175923   4.069   6.311  14.548 -1.0008 -0.1255  1.2829
18144TIP3    H275924   4.111   6.409  14.655  2.0464  0.0452  0.0187
18145TIP3   OH275925   1.897   5.241   1.247  0.0868  0.4752 -0.3857
18145TIP3    H175926   1.825   5.179   1.260 -0.5290  0.9954 -1.2103
18145TIP3    H275927   1.931   5.258   1.335  0.7707 -1.5885 -0.1851
18146TIP3   OH275928   0.277   6.812   2.895 -0.7439  0.1743  0.1398
18146TIP3    H175929   0.270   6.847   2.984  0.3086 -0.7752  0.6108
18146TIP3    H275930   0.240   6.724   2.900  1.0252 -0.6142  0.1023
18147TIP3   OH275931   2.936   3.862  17.181 -0.3187 -0.2959  0.0243
18147TIP3    H175932   3.008   3.918  17.210 -1.4618  1.3710 -0.2046
18147TIP3    H275933   2.913   3.810  17.259  1.2551 -1.0464  0.0265
18148TIP3   OH275934   6.746   5.968  13.420 -0.4497  0.8380 -0.4177
18148TIP3    H175935   6.651   5.979  13.422 -0.3750  1.9127 -1.3514
18148TIP3    H275936   6.780   6.053  13.448  0.2473  0.2528  0.5372
18149TIP3   OH275937   5.709   3.079   1.407 -0.2676  0.4053  0.3222
18149TIP3    H175938   5.725   2.986   1.391 -0.1949  0.3991  0.4319
18149TIP3    H275939   5.703   3.118   1.319 -0.0054  0.3479  0.2798
18150TIP3   OH275940   3.838   5.628  15.801  0.1438 -0.0698  0.3983
18150TIP3    H175941   3.792   5.591  15.726  1.0643  1.4611 -0.9812
18150TIP3    H275942   3.930   5.613  15.782  0.4238  1.0526  0.8321
18151TIP3   OH275943   2.493   6.161  15.121 -0.3199  0.3638  0.1983
18151TIP3    H175944   2.545   6.238  15.099  1.0299 -0.7424 -0.6824
18151TIP3    H275945   2.553   6.107  15.173 -1.3634  0.0608  1.1072
18152TIP3   OH275946   3.435   3.418   4.095 -0.0807  0.8935  0.4463
18152TIP3    H175947   3.482   3.346   4.052  2.2310  2.0749  0.8435
18152TIP3    H275948   3.343   3.394   4.088  0.1499  0.4261 -4.1946
18153TIP3   OH275949   1.215   3.661   2.081 -0.5229 -0.6170  0.2134
18153TIP3    H175950   1.197   3.753   2.101  1.2182 -0.2643  0.3065
18153TIP3    H275951   1.258   3.627   2.159  0.7984 -0.8992 -0.6060
18154TIP3   OH275952   3.945   2.915   3.009  0.3893  0.7980 -0.7728
18154TIP3    H175953   3.955   2.824   2.980  0.6063  0.5674  0.0173
18154TIP3    H275954   3.996   2.966   2.946 -0.8626  0.5379 -2.0621
18155TIP3   OH275955   1.873   5.752   2.559  0.5073 -0.8212  0.2168
18155TIP3    H175956   1.849   5.686   2.625  1.1004 -1.1186  0.1472
18155TIP3    H275957   1.920   5.702   2.492  1.4903 -0.2417  0.4542
18156TIP3   OH275958   0.538   6.750  11.715  0.6098 -0.1791 -0.0635
18156TIP3    H175959   0.586   6.747  11.798  1.5731 -2.6648 -0.6339
18156TIP3    H275960   0.580   6.821  11.666 -0.1261  1.5053  1.5724
18157TIP3   OH275961   2.941   6.047   1.741  0.8161  0.0490 -0.0284
18157TIP3    H175962   2.983   5.978   1.793  0.0252  0.3820  1.0988
18157TIP3    H275963   2.913   6.112   1.806 -0.5317  0.3087 -0.8218
18158TIP3   OH275964   5.565   3.324  16.806  0.3843 -0.0345  0.0332
18158TIP3    H175965   5.501   3.318  16.878  0.0173  1.9816 -0.0542
18158TIP3    H275966   5.513   3.309  16.727  0.6754 -1.6540  0.1205
18159TIP3   OH275967   5.988   5.318  15.147 -0.1805 -0.0321 -0.0235
18159TIP3    H175968   6.078   5.315  15.116  0.3956 -3.0997  1.5741
18159TIP3    H275969   5.990   5.375  15.223  1.0484 -1.9224  1.4585
18160TIP3   OH275970   2.650   5.045  15.298 -0.1807 -0.4718 -0.0991
18160TIP3    H175971   2.661   4.965  15.247 -1.0682  0.4956 -1.9459
18160TIP3    H275972   2.666   5.115  15.234 -0.8395  0.8155  1.0984
18161TIP3   OH275973   1.954   3.827   0.800 -0.3130  0.0662 -0.3169
18161TIP3    H175974   1.986   3.798   0.886 -0.1430 -1.4272 -0.8598
18161TIP3    H275975   1.911   3.910   0.818  1.3065  0.6875  0.9099
18162TIP3   OH275976   1.814   0.837  13.578  0.2467  0.6502  0.4525
18162TIP3    H175977   1.758   0.897  13.627 -0.2013 -0.4959  1.4069
18162TIP3    H275978   1.898   0.840  13.623 -0.0375 -0.0721  1.0699
18163TIP3   OH275979   4.572   4.288  16.943  0.0427  0.2764 -0.0017
18163TIP3    H175980   4.612   4.207  16.914  1.8252  0.9311  0.5075
18163TIP3    H275981   4.505   4.307  16.878  2.4528  0.5793 -2.5524
18164TIP3   OH275982   3.182   3.209  16.002  0.2267  0.4300  0.1538
18164TIP3    H175983   3.191   3.297  16.039  1.8223  0.8007 -0.9571
18164TIP3    H275984   3.103   3.213  15.948 -0.2715  0.8742  0.9129
18165TIP3   OH275985   0.645   5.299  16.285 -0.6888  0.1391 -0.0748
18165TIP3    H175986   0.722   5.345  16.251 -1.8210  2.3085  0.1072
18165TIP3    H275987   0.681   5.227  16.337  1.1640  0.2326 -1.1450
18166TIP3   OH275988   6.531   6.702   3.552 -0.3627 -0.5658  0.4236
18166TIP3    H175989   6.543   6.686   3.458  0.7665  1.1917  0.2324
18166TIP3    H275990   6.476   6.780   3.557  0.8825  0.3190  1.1540
18167TIP3   OH275991   5.436   0.546   3.279 -0.2264 -0.0128 -0.8824
18167TIP3    H175992   5.474   0.479   3.335  0.5295  1.2433  0.1932
18167TIP3    H275993   5.372   0.590   3.335 -0.8038  0.0903 -1.6068
18168TIP3   OH275994   6.473   5.046  15.989  0.3159 -0.5827 -0.1872
18168TIP3    H175995   6.424   5.021  16.067  0.1663 -2.0745 -0.7282
18168TIP3    H275996   6.448   4.982  15.923  0.2462  0.7941 -1.5592
18169TIP3   OH275997   0.822   1.137  16.968  0.1117 -0.0821  0.2251
18169TIP3    H175998   0.883   1.072  16.934 -0.3927 -0.1962 -0.4815
18169TIP3    H275999   0.790   1.099  17.050 -0.6036 -0.9859 -0.4621
18170TIP3   OH276000   2.591   0.300   3.143 -0.2208 -0.5842  0.1187
18170TIP3    H176001   2.614   0.344   3.225 -0.8180 -0.3264  0.1564
18170TIP3    H276002   2.505   0.335   3.121  0.3769  0.1326 -1.1805
18171TIP3   OH276003   1.370   4.389   2.958 -0.6770  0.4983  0.0410
18171TIP3    H176004   1.279   4.360   2.969 -0.3505 -0.1448  1.1161
18171TIP3    H276005   1.396   4.354   2.873 -0.8056 -1.0433  0.6048
18172TIP3   OH276006   0.436   1.949  11.938 -0.1782  0.3217 -0.6703
18172TIP3    H176007   0.512   1.926  11.885 -0.8268 -0.6041 -1.2175
18172TIP3    H276008   0.466   2.023  11.992  1.5607 -0.9227  0.1880
18173TIP3   OH276009   5.157   5.113   6.093 -0.4272  0.4801 -0.6377
18173TIP3    H176010   5.225   5.065   6.047 -0.4536 -0.3812  0.1870
18173TIP3    H276011   5.205   5.176   6.148 -0.3742  1.0793 -1.3587
18174TIP3   OH276012   5.378   2.370  15.638  0.8465  0.0442  0.0275
18174TIP3    H176013   5.459   2.418  15.622  0.9791 -0.2414 -0.1560
18174TIP3    H276014   5.376   2.357  15.733  1.8659 -1.4318 -0.1175
18175TIP3   OH276015   4.305   2.335   2.867  0.1628  0.4861 -0.1804
18175TIP3    H176016   4.365   2.403   2.836 -1.2853  1.2422 -1.4797
18175TIP3    H276017   4.248   2.380   2.929 -0.0016  0.1481 -0.0870
18176TIP3   OH276018   5.646   3.011   0.929  0.0186  0.1121  0.1861
18176TIP3    H176019   5.601   3.082   0.884 -0.1233 -0.3074 -0.3539
18176TIP3    H276020   5.705   2.974   0.863  0.2833 -0.1013  0.5356
18177TIP3   OH276021   2.333   5.907  17.068 -0.1853  0.1384  0.3638
18177TIP3    H176022   2.247   5.949  17.068 -1.7661 -2.7992 -1.3150
18177TIP3    H276023   2.314   5.814  17.084  2.7018 -0.5844  0.0847
18178TIP3   OH276024   0.177   1.521  14.746  0.6806 -0.4232  0.0666
18178TIP3    H176025   0.164   1.548  14.837  0.2577 -2.2355  0.5843
18178TIP3    H276026   0.119   1.446  14.734  0.9916 -0.4428 -1.6051
18179TIP3   OH276027   3.172   4.779  10.996 -0.0429  0.1467  0.1504
18179TIP3    H176028   3.168   4.691  11.032  3.7363 -0.4000 -0.3422
18179TIP3    H276029   3.225   4.770  10.916  1.8970  2.9999  0.9387
18180TIP3   OH276030   3.148   3.501   0.297 -0.3844  0.0920  0.1046
18180TIP3    H176031   3.101   3.512   0.214 -0.4097 -1.2828 -0.0875
18180TIP3    H276032   3.217   3.438   0.277  0.4166  0.7206  0.8354
18181TIP3   OH276033   0.337   2.161   3.229 -0.4403  0.5210 -0.5099
18181TIP3    H176034   0.368   2.195   3.313 -3.0518 -1.9809  1.6787
18181TIP3    H276035   0.417   2.129   3.186  0.9283  1.4472  1.1764
18182TIP3   OH276036   0.524   4.299   2.697 -0.3014  0.1319 -0.0953
18182TIP3    H176037   0.437   4.301   2.657 -0.7797 -0.7954  0.8632
18182TIP3    H276038   0.516   4.237   2.770  1.1785 -0.0153 -0.0291
18183TIP3   OH276039   4.570   1.538  13.662  0.1462 -0.3292  0.0407
18183TIP3    H176040   4.534   1.450  13.651 -0.7586  0.0107  0.1535
18183TIP3    H276041   4.493   1.592  13.681  0.8191  0.2849  1.1023
18184TIP3   OH276042   4.588   0.824  14.245  0.3434 -0.6205  0.0918
18184TIP3    H176043   4.582   0.730  14.230 -0.4635 -0.6056  0.2853
18184TIP3    H276044   4.542   0.864  14.171 -0.2402 -0.4234  0.5479
18185TIP3   OH276045   0.051   1.338   3.733 -0.2192  0.2137  0.2549
18185TIP3    H176046   0.026   1.403   3.667  0.3276  1.5252  1.2904
18185TIP3    H276047  -0.022   1.338   3.795 -1.1744 -1.7148 -0.8015
18186TIP3   OH276048   5.894   2.313  11.632 -0.6874 -0.1273 -0.0036
18186TIP3    H176049   5.884   2.408  11.640  1.0896 -0.0357  2.0190
18186TIP3    H276050   5.924   2.300  11.542  1.1695  1.5188  0.2963
18187TIP3   OH276051   0.177   6.336   3.659 -0.3718 -0.3776  0.1749
18187TIP3    H176052   0.222   6.288   3.590 -0.9650 -0.5141 -0.1315
18187TIP3    H276053   0.106   6.278   3.686 -0.8968  0.1797  0.0294
18188TIP3   OH276054   1.999   1.120  10.371 -0.4434  0.4204  1.1518
18188TIP3    H176055   1.993   1.025  10.370  0.2830  0.1816  4.9307
18188TIP3    H276056   2.093   1.138  10.375 -0.6074  1.1883  1.8798
18189TIP3   OH276057   5.214   4.511   1.734 -0.1654 -0.8004  0.3194
18189TIP3    H176058   5.280   4.451   1.698 -0.5474 -1.2879  0.4230
18189TIP3    H276059   5.230   4.510   1.828  0.3182 -0.1427  0.2516
18190TIP3   OH276060   2.646   5.323   4.915  0.2542 -0.0774 -0.7866
18190TIP3    H176061   2.660   5.393   4.979 -1.6629  1.1599 -1.6378
18190TIP3    H276062   2.680   5.359   4.833 -2.6500  0.8094 -1.6949
18191TIP3   OH276063   6.480   0.025  11.668 -0.2581 -0.0129  0.5727
18191TIP3    H176064   6.454  -0.066  11.682  0.9053 -0.0443  3.2319
18191TIP3    H276065   6.406   0.077  11.699 -0.0185 -0.0792  1.2683
18192TIP3   OH276066   2.588   2.660  10.533  0.1077 -0.4598 -0.7325
18192TIP3    H176067   2.566   2.752  10.550 -0.1241 -0.7567  0.7679
18192TIP3    H276068   2.683   2.660  10.526  0.0477  0.0255 -1.6952
18193TIP3   OH276069   3.081   5.006  14.131 -0.1484 -0.1359  0.4002
18193TIP3    H176070   3.011   5.049  14.082 -0.6721  0.6514  1.7954
18193TIP3    H276071   3.161   5.049  14.102 -0.3497 -0.2845 -0.3992
18194TIP3   OH276072   3.628   2.180   2.070  0.8674 -0.0292 -0.2365
18194TIP3    H176073   3.641   2.098   2.022  0.8319  0.9272 -1.9651
18194TIP3    H276074   3.618   2.153   2.161 -0.5256 -2.0691 -0.9186
18195TIP3   OH276075   4.818   1.999  15.086 -0.5431  0.1523  0.1897
18195TIP3    H176076   4.865   2.035  15.161 -0.4342  2.1291 -0.7690
18195TIP3    H276077   4.883   1.999  15.015 -1.3520  0.7397 -0.5573
18196TIP3   OH276078   1.391   5.757   1.156 -0.3472 -0.5638  0.4496
18196TIP3    H176079   1.381   5.840   1.109  2.0891  0.9921  2.3935
18196TIP3    H276080   1.339   5.694   1.106 -1.6564  1.9414 -1.5660
18197TIP3   OH276081   0.031   0.104  15.051 -0.0780 -0.4659 -0.0930
18197TIP3    H176082  -0.044   0.135  15.101  0.1649 -1.4982  0.9441
18197TIP3    H276083   0.024   0.009  15.054  0.1697 -0.5559 -1.7022
18198TIP3   OH276084   2.210   0.913  13.463  0.4462 -0.1363 -0.5398
18198TIP3    H176085   2.220   0.857  13.540  0.1804  0.8253  0.2071
18198TIP3    H276086   2.285   0.971  13.465  0.3549  0.0003 -0.9271
18199TIP3   OH276087   6.072   4.956  16.514  0.2321 -0.3639 -0.5160
18199TIP3    H176088   6.159   4.979  16.547 -0.4035  1.2985  0.0936
18199TIP3    H276089   6.064   5.006  16.432 -0.2170 -0.3856 -0.4853
18200TIP3   OH276090   6.566   4.445  11.417 -0.5424  0.7051  0.2708
18200TIP3    H176091   6.644   4.483  11.378 -0.5270  1.4329  0.9917
18200TIP3    H276092   6.570   4.470  11.509 -1.9007  1.2305  0.2218
18201TIP3   OH276093   3.520   2.545  13.193 -0.5059  0.1502  0.2190
18201TIP3    H176094   3.550   2.607  13.126 -0.4571  2.2073  2.0222
18201TIP3    H276095   3.544   2.459  13.158 -0.5563  1.1048 -2.4009
18202TIP3   OH276096   0.215   0.965   4.471  0.1765 -0.3275  0.1937
18202TIP3    H176097   0.137   0.934   4.425 -0.1059 -0.9149  1.0430
18202TIP3    H276098   0.282   0.900   4.452  0.0755 -0.5405  0.5439
18203TIP3   OH276099   2.674   2.821   5.214 -0.0165  0.3395  0.1770
18203TIP3    H176100   2.684   2.916   5.219  2.6521  0.1019  0.9534
18203TIP3    H276101   2.657   2.804   5.121 -0.8017  1.5664  0.0687
18204TIP3   OH276102   6.642   0.469  14.194  0.2262 -0.5074 -0.3586
18204TIP3    H176103   6.709   0.403  14.208  1.4647  0.6281 -0.6755
18204TIP3    H276104   6.650   0.528  14.269  0.4572  0.3271 -1.0121
18205TIP3   OH276105   6.541   6.466   0.935 -0.5399  0.2288  0.0239
18205TIP3    H176106   6.547   6.427   0.848  0.4559  0.6581 -0.1129
18205TIP3    H276107   6.526   6.392   0.993 -1.9957  0.0081 -0.5739
18206TIP3   OH276108   2.235   4.921   1.169 -0.3116 -0.3695  0.3039
18206TIP3    H176109   2.216   5.015   1.167 -0.2194 -0.3471  0.4525
18206TIP3    H276110   2.302   4.908   1.102 -0.3899 -0.3434  0.2212
18207TIP3   OH276111   3.215   5.097   2.036  0.0630  0.0267  0.1932
18207TIP3    H176112   3.269   5.073   1.961  0.5155 -0.6925  0.7402
18207TIP3    H276113   3.208   5.193   2.030  1.0395  0.0874 -0.1238
18208TIP3   OH276114   2.862   3.801  12.983 -0.1790 -0.2059  0.0756
18208TIP3    H176115   2.794   3.755  12.935  1.0890 -1.2082 -0.8243
18208TIP3    H276116   2.861   3.762  13.071 -0.4005 -0.6014 -0.1018
18209TIP3   OH276117   4.351   0.246   4.905 -0.3149  0.1029 -0.4346
18209TIP3    H176118   4.353   0.340   4.886 -0.0500  0.0340 -0.7557
18209TIP3    H276119   4.429   0.230   4.958  0.2236 -0.1235 -1.2835
18210TIP3   OH276120   0.287   2.253   5.179 -0.2322 -0.5363 -0.0544
18210TIP3    H176121   0.219   2.238   5.114  2.0793  2.2508 -3.5255
18210TIP3    H276122   0.348   2.179   5.168  0.1150 -0.1117 -1.1162
18211TIP3   OH276123   6.704   2.746   3.515 -0.0050  1.0721 -0.0050
18211TIP3    H176124   6.674   2.659   3.541  0.6578  1.2103  1.2741
18211TIP3    H276125   6.799   2.736   3.504 -0.1414  1.2214 -1.6269
18212TIP3   OH276126   1.822   3.897  12.540 -0.3490 -0.4871  0.5376
18212TIP3    H176127   1.848   3.927  12.627  2.9631 -3.3832  0.7839
18212TIP3    H276128   1.892   3.927  12.482 -0.9342 -1.1403 -0.5358
18213TIP3   OH276129   3.982   4.705  15.636  0.1186  0.2793  0.0480
18213TIP3    H176130   4.073   4.733  15.633  0.7213 -1.6525 -1.1812
18213TIP3    H276131   3.984   4.612  15.614 -1.8334 -0.7540  3.5171
18214TIP3   OH276132   6.430   4.336   0.846  0.2317  0.1238 -0.3617
18214TIP3    H176133   6.521   4.305   0.850  0.2253  0.2343  1.6576
18214TIP3    H276134   6.377   4.260   0.869 -0.2696 -0.1200 -2.1920
18215TIP3   OH276135   0.109   6.178   4.764 -0.3523  0.3612  0.5032
18215TIP3    H176136   0.165   6.104   4.739 -0.1174 -0.7424  3.7843
18215TIP3    H276137   0.170   6.248   4.787 -0.5324  0.9269 -0.6410
18216TIP3   OH276138   2.203   2.048   6.184 -0.4807 -0.0845  0.1853
18216TIP3    H176139   2.139   1.977   6.181 -0.1259 -0.3843 -0.5280
18216TIP3    H276140   2.208   2.073   6.276 -1.5715 -0.1031  0.2601
18217TIP3   OH276141   3.626   4.119  16.762 -0.1517 -0.3376 -0.1020
18217TIP3    H176142   3.554   4.061  16.786 -0.0249 -0.2471  0.5148
18217TIP3    H276143   3.630   4.183  16.833 -2.6462  2.7076 -2.4342
18218TIP3   OH276144   3.254   0.322   1.586 -0.3911  0.1256  0.4216
18218TIP3    H176145   3.160   0.320   1.604 -1.2997  0.8491 -3.2979
18218TIP3    H276146   3.282   0.407   1.618 -1.7758  1.2128 -1.0328
18219TIP3   OH276147   3.248   0.051   0.940  0.8834  0.3049  0.1828
18219TIP3    H176148   3.328   0.063   0.890  1.0089  0.1822  0.3538
18219TIP3    H276149   3.203  -0.022   0.898  1.6214 -0.6700  1.0488
18220TIP3   OH276150   5.527   0.337   3.442  0.5770 -0.4204 -0.1127
18220TIP3    H176151   5.518   0.303   3.353 -1.1154  1.2823 -0.6763
18220TIP3    H276152   5.614   0.310   3.470  0.1978 -3.1903 -1.2963
18221TIP3   OH276153   6.532   4.748  16.723  0.5863 -0.1165 -0.4686
18221TIP3    H176154   6.491   4.662  16.718  2.6300 -1.1218 -1.2143
18221TIP3    H276155   6.501   4.794  16.645 -2.7525  1.0037  1.3226
18222TIP3   OH276156   4.904   1.671   1.145 -0.4248  0.1188  0.1128
18222TIP3    H176157   4.827   1.722   1.172  1.0116  3.3377 -1.2657
18222TIP3    H276158   4.966   1.682   1.217  0.2121  1.2345 -0.5597
18223TIP3   OH276159   2.734   5.798   3.314 -0.2177 -0.1474 -0.5467
18223TIP3    H176160   2.795   5.862   3.277  0.6417 -1.1720 -0.9286
18223TIP3    H276161   2.739   5.723   3.256 -0.9235 -0.7346  0.1249
18224TIP3   OH276162   5.308   4.098   0.450 -0.0147  0.3013 -0.2111
18224TIP3    H176163   5.260   4.034   0.503  0.5835  0.1796  0.1879
18224TIP3    H276164   5.372   4.045   0.402 -2.4745 -0.0901 -3.4671
18225TIP3   OH276165   6.161   1.700  14.016 -0.2156 -0.2912  0.4362
18225TIP3    H176166   6.236   1.641  14.024 -1.1228 -1.4632  0.5426
18225TIP3    H276167   6.167   1.734  13.927  0.6224 -0.1035  0.5555
18226TIP3   OH276168   2.494   0.640   2.452 -0.0902  0.1559  0.0089
18226TIP3    H176169   2.573   0.634   2.505 -1.2283  2.3857  2.1202
18226TIP3    H276170   2.471   0.733   2.453 -1.3046  0.0034 -2.8059
18227TIP3   OH276171   0.783   4.727   3.714  0.4271  0.3085  0.2161
18227TIP3    H176172   0.785   4.656   3.779  2.5437 -0.5422 -0.6870
18227TIP3    H276173   0.690   4.740   3.696 -0.0907 -1.2027  1.5176
18228TIP3   OH276174   4.214   6.043  14.564  0.1500 -0.0734  0.1440
18228TIP3    H176175   4.177   6.127  14.591 -1.9916 -0.9881  0.2469
18228TIP3    H276176   4.158   6.014  14.492  0.0936 -1.9440  0.8757
18229TIP3   OH276177   5.729   4.243  14.315 -0.4074  0.6266  0.7129
18229TIP3    H176178   5.780   4.262  14.394  1.1355 -0.4601  0.0180
18229TIP3    H276179   5.794   4.231  14.246 -1.6929  0.8640 -0.6005
18230TIP3   OH276180   3.766   5.184   5.321  0.7580  0.2221 -0.3841
18230TIP3    H176181   3.720   5.102   5.305 -0.6495  0.2127  2.9019
18230TIP3    H276182   3.697   5.249   5.330  1.7742  1.4876 -1.3527
18231TIP3   OH276183   0.501   0.928  15.419  0.3799 -0.1096  0.0127
18231TIP3    H176184   0.534   0.851  15.374 -0.2775  0.7776 -2.0851
18231TIP3    H276185   0.448   0.974  15.354  1.4142  2.5461  0.8885
18232TIP3   OH276186   1.341   1.297   4.899 -0.1151 -0.0731 -0.4465
18232TIP3    H176187   1.305   1.216   4.934  0.6841  0.3300  1.4102
18232TIP3    H276188   1.345   1.283   4.805 -2.1155 -1.3211 -0.4043
18233TIP3   OH276189   3.600   2.440  11.081  0.3414 -0.2970  0.1960
18233TIP3    H176190   3.523   2.494  11.064  1.1875  0.9454  0.1768
18233TIP3    H276191   3.668   2.502  11.106  1.9478 -1.1067 -1.8546
18234TIP3   OH276192   2.953   6.161  16.352  0.3920  0.3946  0.4440
18234TIP3    H176193   2.979   6.234  16.408 -0.7332  0.2425  1.2090
18234TIP3    H276194   3.005   6.171  16.273  1.9001  0.7226  1.4372
18235TIP3   OH276195   4.562   5.001  16.458  0.1262 -0.0555  0.3388
18235TIP3    H176196   4.628   5.032  16.397 -0.5762 -0.7946 -0.8535
18235TIP3    H276197   4.518   5.080  16.490 -0.9090  0.3031 -1.7839
18236TIP3   OH276198   4.650   0.405  16.301 -0.2004  0.0906 -0.0582
18236TIP3    H176199   4.598   0.340  16.349 -0.1203 -0.0897 -0.2143
18236TIP3    H276200   4.625   0.391  16.209 -0.5620  0.6184 -0.0444
18237TIP3   OH276201   0.619   6.844  11.456  0.2136 -0.2786 -0.3733
18237TIP3    H176202   0.548   6.895  11.417 -1.5037 -1.7951  0.6594
18237TIP3    H276203   0.620   6.763  11.405  0.7107 -0.5759  0.1070
18238TIP3   OH276204   4.391   6.290   6.120 -0.3189 -0.1152 -0.0167
18238TIP3    H176205   4.408   6.327   6.033  0.8234  0.6127  0.4843
18238TIP3    H276206   4.298   6.267   6.119  0.0755 -1.9563 -2.0877
18239TIP3   OH276207   5.028   3.397  10.416  0.3981 -0.3348  0.3504
18239TIP3    H176208   5.106   3.397  10.360  0.6791 -0.0696  0.7369
18239TIP3    H276209   4.976   3.323  10.384  0.3145  0.1158 -0.5860
18240TIP3   OH276210   2.535   2.174  17.039  0.1476  0.0947 -0.3318
18240TIP3    H176211   2.625   2.189  17.010  0.4902  0.1511  0.7418
18240TIP3    H276212   2.539   2.093  17.090 -0.8879 -1.3433 -2.3947
18241TIP3   OH276213   3.254   3.978   4.692  0.5869 -0.6189 -0.3008
18241TIP3    H176214   3.284   3.896   4.653  1.7911 -0.5038  0.3227
18241TIP3    H276215   3.315   4.044   4.658  0.8123 -0.3043  0.6871
18242TIP3   OH276216   4.183   6.609   5.237 -0.1491 -0.1265  0.7669
18242TIP3    H176217   4.112   6.656   5.280 -0.4852  2.0502 -1.9019
18242TIP3    H276218   4.142   6.571   5.159  0.8559 -2.1415  1.1614
18243TIP3   OH276219   1.055   1.312   1.406 -0.8919 -0.2617  0.2199
18243TIP3    H176220   0.967   1.332   1.373 -0.8168  0.3364  0.3724
18243TIP3    H276221   1.108   1.301   1.327 -1.0515 -0.3918  0.1291
18244TIP3   OH276222   3.920   4.110   1.575  0.1279 -0.1270 -0.7390
18244TIP3    H176223   3.859   4.100   1.648  0.7153 -0.4670 -0.2818
18244TIP3    H276224   3.883   4.181   1.523 -0.8356 -0.5483 -0.6629
18245TIP3   OH276225   4.974   2.035  15.349  0.0527 -0.2736  0.0965
18245TIP3    H176226   5.037   2.000  15.411  0.0350 -1.8492 -0.7205
18245TIP3    H276227   4.986   2.130  15.353 -1.4008 -0.1043  3.9840
18246TIP3   OH276228   6.776   2.704  17.078 -0.1649  0.0084 -0.6594
18246TIP3    H176229   6.739   2.765  17.142 -0.7744 -3.2346  2.3848
18246TIP3    H276230   6.701   2.653  17.047  0.5797 -0.5978 -1.5142
18247TIP3   OH276231   0.039   3.941  16.016 -0.8391 -0.0071  0.1708
18247TIP3    H176232   0.039   4.032  15.984  0.4753  0.6598  1.9108
18247TIP3    H276233   0.038   3.888  15.936 -3.7564  1.4422 -0.9080
18248TIP3   OH276234   0.228   0.980   2.113  0.7406 -0.0051  0.1363
18248TIP3    H176235   0.133   0.991   2.112  0.6819 -0.4961  0.2200
18248TIP3    H276236   0.261   1.062   2.150  0.2840 -0.2868  1.2227
18249TIP3   OH276237   4.259   6.703  14.241  0.1405  0.0002  0.4317
18249TIP3    H176238   4.267   6.725  14.148  1.0856  0.8899  0.7001
18249TIP3    H276239   4.224   6.782  14.282 -1.4042 -0.7736  0.6909
18250TIP3   OH276240   3.036   4.344  11.218  0.0752  0.2109 -0.1489
18250TIP3    H176241   2.943   4.365  11.225  0.4265  1.4890  1.0837
18250TIP3    H276242   3.050   4.275  11.284 -0.3123 -1.2887 -1.5630
18251TIP3   OH276243   2.420   5.529   4.752 -0.2546 -0.1570 -0.2621
18251TIP3    H176244   2.326   5.542   4.765 -0.6078  0.5804 -2.9992
18251TIP3    H276245   2.431   5.434   4.747 -0.9328 -0.2317 -0.3734
18252TIP3   OH276246   5.148   2.782   4.753  0.1393  0.0868  0.1083
18252TIP3    H176247   5.238   2.796   4.783  0.0962  0.3913  0.1022
18252TIP3    H276248   5.097   2.847   4.801  0.0401  0.4434 -0.4695
18253TIP3   OH276249   3.363   1.016   3.499 -0.5114  0.2373 -0.1742
18253TIP3    H176250   3.442   0.965   3.518 -1.1947 -0.7298  0.1111
18253TIP3    H276251   3.380   1.101   3.540 -0.0465 -0.3074  0.8084
18254TIP3   OH276252   5.387   6.793  12.705  0.1759  0.1611 -0.3262
18254TIP3    H176253   5.326   6.839  12.764  1.1944 -0.7539  1.5425
18254TIP3    H276254   5.332   6.737  12.651 -0.8805  1.7543 -0.9822
18255TIP3   OH276255   4.699   5.784  10.960  0.2962  0.5412 -0.0970
18255TIP3    H176256   4.758   5.770  11.034 -1.3344  0.2955  1.2111
18255TIP3    H276257   4.649   5.703  10.953 -0.1008  0.8456 -1.0150
18256TIP3   OH276258   6.171   3.133   1.012  0.0437  0.1138  0.1578
18256TIP3    H176259   6.179   3.103   0.922  0.9098 -3.4457  1.2722
18256TIP3    H276260   6.261   3.149   1.040 -0.0895 -0.2502  0.8113
18257TIP3   OH276261   4.635   3.528   4.706 -0.4228 -0.0079 -0.1397
18257TIP3    H176262   4.607   3.436   4.709 -0.3099 -0.0455 -0.2331
18257TIP3    H276263   4.612   3.557   4.618 -0.0795 -0.0658 -0.2474
18258TIP3   OH276264   4.725   1.841  10.818  0.2112 -0.0209  0.4965
18258TIP3    H176265   4.768   1.778  10.760 -1.0173  0.8644 -1.5220
18258TIP3    H276266   4.635   1.844  10.785  0.0306  2.1329  1.0928
18259TIP3   OH276267   0.431   4.417  14.869  0.4562  0.2034  0.1918
18259TIP3    H176268   0.392   4.410  14.782 -0.4100  2.6874  0.2949
18259TIP3    H276269   0.524   4.395  14.856  0.6347  1.7985 -1.6708
18260TIP3   OH276270   3.484   6.321   4.500 -0.7646  0.1422 -0.6927
18260TIP3    H176271   3.475   6.336   4.406  0.1116  0.6533 -0.7040
18260TIP3    H276272   3.506   6.228   4.507  0.4360  0.3762 -1.0995
18261TIP3   OH276273   5.144   2.421  16.094  0.3137 -0.4154 -0.0203
18261TIP3    H176274   5.171   2.489  16.033  1.6530 -1.8773 -1.1631
18261TIP3    H276275   5.094   2.359  16.040  3.1826 -2.7621 -0.2557
18262TIP3   OH276276   4.121   0.616   1.135 -0.8281  0.4273 -0.3327
18262TIP3    H176277   4.105   0.709   1.149  0.5825  0.5242  0.8019
18262TIP3    H276278   4.118   0.577   1.222  2.1154  0.0364 -0.3121
18263TIP3   OH276279   1.773   4.268  10.609 -0.0368 -0.4861 -0.0236
18263TIP3    H176280   1.710   4.335  10.635  1.1271  0.4403  0.4994
18263TIP3    H276281   1.728   4.185  10.626 -1.4496  0.1381 -0.5543
18264TIP3   OH276282   1.563   6.805  10.526  0.1510  0.0279  0.0745
18264TIP3    H176283   1.650   6.820  10.562 -0.3429  1.5730  0.7189
18264TIP3    H276284   1.569   6.835  10.435  0.2135  0.4117  0.2049
18265TIP3   OH276285   1.957   3.540  12.738 -0.3048 -0.1633  0.1028
18265TIP3    H176286   1.873   3.573  12.768 -0.2212 -0.6972  0.9692
18265TIP3    H276287   1.939   3.504  12.651 -0.7272  0.7110 -0.1764
18266TIP3   OH276288   5.934   2.951   4.366 -0.1299  0.2216 -0.6312
18266TIP3    H176289   5.939   2.860   4.394  0.2855 -0.0940 -1.6591
18266TIP3    H276290   6.024   2.983   4.374 -0.1001  0.2690 -1.1090
18267TIP3   OH276291   0.722   2.499   5.302  0.3433 -0.6425 -0.1001
18267TIP3    H176292   0.673   2.570   5.262  1.9144  1.3279  1.2391
18267TIP3    H276293   0.811   2.533   5.311  0.9025 -2.3443  1.6283
18268TIP3   OH276294   1.280   2.191   4.318  0.3240 -0.7316 -0.1107
18268TIP3    H176295   1.347   2.184   4.249  0.2502  0.0134 -0.2665
18268TIP3    H276296   1.264   2.100   4.344  0.4424 -1.0213 -0.9895
18269TIP3   OH276297   0.931   0.705  12.905 -0.6797  0.0394 -0.0912
18269TIP3    H176298   0.897   0.667  12.987 -1.3889 -0.1436 -0.4610
18269TIP3    H276299   1.023   0.678  12.903 -1.3383 -2.4538 -0.7667
18270TIP3   OH276300   2.192   2.143  13.657  0.1456 -0.2883 -0.2802
18270TIP3    H176301   2.160   2.227  13.691 -0.4840 -0.7623  0.3028
18270TIP3    H276302   2.232   2.100  13.732 -1.2425 -1.3365 -0.1232
18271TIP3   OH276303   1.339   0.919  12.606  0.3210 -0.4356 -0.3172
18271TIP3    H176304   1.332   0.824  12.604 -1.7887 -0.3772  1.2105
18271TIP3    H276305   1.249   0.950  12.617  0.9502  1.7516 -0.7660
18272TIP3   OH276306   2.612   2.988   2.971  0.0473  0.1101 -0.6392
18272TIP3    H176307   2.633   2.944   2.888  1.9426 -0.7969  0.2520
18272TIP3    H276308   2.521   2.965   2.988  0.0465 -0.8432 -1.7959
18273TIP3   OH276309   6.218   0.347   0.891  0.3215 -0.3237  0.1110
18273TIP3    H176310   6.226   0.429   0.940 -0.3800 -1.2643  1.9312
18273TIP3    H276311   6.303   0.305   0.900  1.1456  0.7688 -2.0160
18274TIP3   OH276312   6.590   1.690   0.478  0.2396 -0.2297 -0.6382
18274TIP3    H176313   6.600   1.695   0.383 -2.8570 -1.0049 -1.1109
18274TIP3    H276314   6.551   1.604   0.494  3.2403 -1.3203  1.6971
18275TIP3   OH276315   4.743   6.062  11.027  0.1668  0.2769  0.2496
18275TIP3    H176316   4.762   6.138  10.973 -0.3438  0.1859 -0.0678
18275TIP3    H276317   4.738   5.989  10.965 -0.2663  0.1440  0.4317
18276TIP3   OH276318   1.883   1.188  11.598 -0.3080  0.1007  0.3681
18276TIP3    H176319   1.864   1.198  11.691 -0.9139  0.2229  0.2338
18276TIP3    H276320   1.811   1.233  11.554  1.8570  3.4309 -0.1492
18277TIP3   OH276321   0.847   0.074   1.950 -0.4292  0.3218  0.1978
18277TIP3    H176322   0.830   0.147   1.891  0.5487  0.3227 -0.0962
18277TIP3    H276323   0.787   0.006   1.921  0.0570  0.3105 -0.8224
18278TIP3   OH276324   2.442   1.837  14.945 -0.2564  0.5640  0.1040
18278TIP3    H176325   2.461   1.888  15.024 -1.4712  1.6520 -0.2673
18278TIP3    H276326   2.356   1.800  14.960 -0.0009 -0.1890 -0.2493
18279TIP3   OH276327   4.698   4.185   3.089 -0.2527 -0.3447 -0.0066
18279TIP3    H176328   4.736   4.119   3.031  0.1345 -0.1024 -0.0312
18279TIP3    H276329   4.769   4.247   3.105 -0.9985  0.8201 -1.0883
18280TIP3   OH276330   0.331   6.796   4.791  0.0859 -0.3332 -0.5097
18280TIP3    H176331   0.409   6.775   4.739  0.0768  1.0454 -1.0971
18280TIP3    H276332   0.264   6.819   4.727 -0.1550  0.6373  0.0750
18281TIP3   OH276333   6.329   3.621  14.358  0.3950 -0.3868 -0.1614
18281TIP3    H176334   6.234   3.625  14.369  0.2679  0.2577 -1.2823
18281TIP3    H276335   6.342   3.560  14.285  0.7574  0.3948 -0.7698
18282TIP3   OH276336   3.137   1.137  15.060 -0.0362 -0.7763  0.0919
18282TIP3    H176337   3.183   1.054  15.070  3.0912  0.7252 -0.8127
18282TIP3    H276338   3.062   1.117  15.004 -0.7567 -3.3756  1.8208
18283TIP3   OH276339   0.701   0.195   3.594  0.1502  0.1972  0.9321
18283TIP3    H176340   0.654   0.252   3.533  0.5016  0.3153  0.7709
18283TIP3    H276341   0.735   0.255   3.661 -0.0987  0.0873  1.1596
18284TIP3   OH276342   3.313   2.967   3.279  0.2998 -0.4855  0.0495
18284TIP3    H176343   3.375   3.038   3.298  0.1021 -0.1510 -0.5250
18284TIP3    H276344   3.280   2.987   3.192 -0.7576 -0.5669  0.4245
18285TIP3   OH276345   1.306   5.831  16.103 -0.2804  0.4931 -0.4250
18285TIP3    H176346   1.393   5.868  16.095  0.4223 -0.3623  2.2494
18285TIP3    H276347   1.248   5.895  16.061  1.5035  1.5105 -1.4352
18286TIP3   OH276348   5.673   3.140   3.844  0.0730 -0.8571  0.0271
18286TIP3    H176349   5.594   3.141   3.790  0.2538 -3.3176 -0.4265
18286TIP3    H276350   5.742   3.174   3.787 -0.3494 -0.2038 -0.1060
18287TIP3   OH276351   3.782   5.001   4.676  0.1517  0.0606  0.1425
18287TIP3    H176352   3.790   4.939   4.604  1.4201  1.1303 -0.6879
18287TIP3    H276353   3.843   5.071   4.654  0.1939  0.6656  2.0087
18288TIP3   OH276354   2.561   2.950   0.195  0.5566 -0.4043 -0.4645
18288TIP3    H176355   2.641   3.001   0.213 -0.2268  0.7365 -0.0819
18288TIP3    H276356   2.490   3.008   0.222 -0.5696 -0.1503 -3.5662
18289TIP3   OH276357   3.800   4.378   6.068 -0.0868 -0.2639  0.7674
18289TIP3    H176358   3.859   4.366   5.993  0.3822  2.9302  0.4546
18289TIP3    H276359   3.853   4.426   6.132 -2.1580  2.6213  0.5249
18290TIP3   OH276360   2.033   2.986   5.596 -0.2814 -0.0904  0.7855
18290TIP3    H176361   1.998   3.020   5.678 -0.5576 -2.0669  1.5393
18290TIP3    H276362   1.956   2.971   5.542 -0.1116  1.0358  0.1972
18291TIP3   OH276363   5.288   4.588  16.159  0.3079 -0.5190  0.3411
18291TIP3    H176364   5.243   4.505  16.142 -0.5953  0.2464 -1.1902
18291TIP3    H276365   5.221   4.655  16.147  1.5622  0.5797 -0.8406
18292TIP3   OH276366   3.864   5.492  16.492 -0.4362  0.1135 -0.1866
18292TIP3    H176367   3.797   5.543  16.537 -0.8228  0.8115 -1.5021
18292TIP3    H276368   3.815   5.428  16.441 -0.0184 -0.4905  0.1661
18293TIP3   OH276369   1.103   3.654  15.091  0.1379  0.1096 -0.3177
18293TIP3    H176370   1.068   3.737  15.057  0.6526  0.1651 -0.7376
18293TIP3    H276371   1.137   3.676  15.177  0.9163  0.5120 -0.7121
18294TIP3   OH276372   5.496   0.150   6.358 -0.4327 -0.0035  0.5680
18294TIP3    H176373   5.561   0.102   6.307  1.3239  0.4546  2.2630
18294TIP3    H276374   5.414   0.138   6.310  0.7247 -1.2965 -1.2000
18295TIP3   OH276375   5.693   3.246   6.371  0.0156 -0.1561 -0.6712
18295TIP3    H176376   5.697   3.169   6.314 -2.0533 -0.6225 -0.2838
18295TIP3    H276377   5.602   3.249   6.401  0.4204  1.5612  0.5707
18296TIP3   OH276378   4.320   3.162   3.079  0.0885 -0.0423  0.0449
18296TIP3    H176379   4.252   3.120   3.131 -0.7061  0.6177 -0.4428
18296TIP3    H276380   4.277   3.187   2.998  0.9402  0.2900 -0.3223
18297TIP3   OH276381   0.435   6.291  15.980 -0.3756 -0.1920  0.4080
18297TIP3    H176382   0.402   6.201  15.970  1.0051 -0.6072 -0.7742
18297TIP3    H276383   0.394   6.339  15.908 -3.0239  0.7861  2.4296
18298TIP3   OH276384   5.999   3.097  14.730  0.0620  0.1104 -0.3664
18298TIP3    H176385   5.906   3.119  14.726  0.0282  0.4444  1.6319
18298TIP3    H276386   6.003   3.015  14.780  0.7128 -1.1064 -2.2737
18299TIP3   OH276387   2.851   4.287   4.715  0.3752  0.6456 -0.2318
18299TIP3    H176388   2.934   4.269   4.671  0.2073 -1.7546  0.3174
18299TIP3    H276389   2.832   4.207   4.764 -1.1733  1.9532  1.4213
18300TIP3   OH276390   4.358   3.327  13.467 -0.6149  0.1396  0.1029
18300TIP3    H176391   4.330   3.418  13.467  1.0890  0.6952  0.5101
18300TIP3    H276392   4.431   3.324  13.406 -0.6498 -0.9636  0.0914
18301TIP3   OH276393   0.310   6.723  16.399  0.5783  0.0520  0.2712
18301TIP3    H176394   0.386   6.732  16.455 -0.2349 -0.4933  1.4949
18301TIP3    H276395   0.328   6.645  16.346  0.5683 -0.4842  1.0490
18302TIP3   OH276396   0.846   2.605  12.767 -0.0172  0.6445  0.0753
18302TIP3    H176397   0.852   2.571  12.678  1.3655 -2.3956  1.1985
18302TIP3    H276398   0.892   2.540  12.821  0.5354  3.0998  2.8351
18303TIP3   OH276399   6.629   5.967   6.439  0.5881  0.0101  0.3014
18303TIP3    H176400   6.718   5.993   6.414 -0.7043  2.4867 -2.4579
18303TIP3    H276401   6.572   6.015   6.377 -2.6654 -1.6314  1.7626
18304TIP3   OH276402   2.723   5.525   0.947  0.3910 -0.5944 -0.2732
18304TIP3    H176403   2.748   5.454   0.888 -0.1291 -1.1299  0.1334
18304TIP3    H276404   2.735   5.489   1.035  0.3005 -0.1127 -0.0577
18305TIP3   OH276405   6.518   4.572   2.059  0.0944  0.7172 -0.2407
18305TIP3    H176406   6.512   4.480   2.035  1.9797  0.7425 -0.9763
18305TIP3    H276407   6.586   4.576   2.127  1.3846  1.7393 -1.5209
18306TIP3   OH276408   3.530   2.727   2.280 -0.5335  0.3326  0.0360
18306TIP3    H176409   3.591   2.724   2.354 -1.4501  1.1611  0.8595
18306TIP3    H276410   3.444   2.736   2.321 -1.1022  0.3517 -1.1310
18307TIP3   OH276411   6.665   4.682   5.792  0.2468  0.1779 -0.7132
18307TIP3    H176412   6.647   4.759   5.847 -0.0518  0.2906 -0.9674
18307TIP3    H276413   6.734   4.712   5.732  1.2091 -0.2131  0.1694
18308TIP3   OH276414   0.330   3.568  14.619  0.2829  0.3211  0.1558
18308TIP3    H176415   0.278   3.648  14.610  0.7284  0.4683 -1.2319
18308TIP3    H276416   0.265   3.498  14.614 -0.1907  0.5618  1.9866
18309TIP3   OH276417   6.132   2.976  16.439  0.8281  0.3052  0.4626
18309TIP3    H176418   6.090   3.034  16.503 -1.2957 -0.6010  0.0036
18309TIP3    H276419   6.107   3.012  16.354 -0.5422 -1.1969  0.1695
18310TIP3   OH276420   5.911   6.116  13.448  0.5548 -0.4281 -0.1490
18310TIP3    H176421   5.932   6.052  13.516  3.3255  0.6193  0.1199
18310TIP3    H276422   5.974   6.099  13.379 -0.6049  0.1399 -1.3907
18311TIP3   OH276423   4.988   1.369   5.607  0.0466  0.2694 -0.1213
18311TIP3    H176424   5.010   1.457   5.576  0.9152  0.3044  0.5518
18311TIP3    H276425   5.047   1.312   5.558  1.1104  0.2866  1.0879
18312TIP3   OH276426   4.319   4.422  12.357  0.1490 -0.4851 -0.5521
18312TIP3    H176427   4.277   4.372  12.287 -0.6787  2.5374 -2.4044
18312TIP3    H276428   4.246   4.456  12.409  0.6277 -0.4237  0.0902
18313TIP3   OH276429   5.899   1.337   5.095 -0.2666  0.2321 -0.4944
18313TIP3    H176430   5.829   1.387   5.138  0.1403  0.1584  0.2759
18313TIP3    H276431   5.859   1.306   5.014 -1.1361  0.1937 -0.0745
18314TIP3   OH276432   3.434   3.444  10.673 -0.2693  0.1985  0.0146
18314TIP3    H176433   3.349   3.470  10.708  0.3648  2.5590  0.0206
18314TIP3    H276434   3.470   3.385  10.739 -2.3613 -1.9096 -0.6012
18315TIP3   OH276435   2.087   1.684   4.438  0.4898 -0.2852  0.0732
18315TIP3    H176436   2.021   1.753   4.434  0.8984  0.4262  3.4044
18315TIP3    H276437   2.064   1.626   4.365 -2.3083  1.2090 -0.3863
18316TIP3   OH276438   4.117   1.115  12.943 -0.4032  0.3594  0.7241
18316TIP3    H176439   4.130   1.164  12.862 -1.3827  1.5928  1.2694
18316TIP3    H276440   4.155   1.171  13.011 -2.3496  0.8890  1.4750
18317TIP3   OH276441   3.256   5.410   1.691 -0.0503  0.2738 -0.1825
18317TIP3    H176442   3.279   5.473   1.623  3.1112 -0.8240 -0.3231
18317TIP3    H276443   3.196   5.349   1.649  0.6524  0.4867 -1.5327
18318TIP3   OH276444   6.505   3.489   1.723 -0.4776 -0.1894  0.4583
18318TIP3    H176445   6.453   3.452   1.794 -0.7627 -0.5378  0.0722
18318TIP3    H276446   6.493   3.428   1.650  0.3932 -0.2201  0.3338
18319TIP3   OH276447   3.249   6.631   0.826 -0.0774  0.3488 -0.4890
18319TIP3    H176448   3.272   6.575   0.900 -3.1214 -1.5100 -0.7826
18319TIP3    H276449   3.287   6.587   0.749 -0.6255 -0.1328 -0.4868
18320TIP3   OH276450   6.581   4.108  15.689  0.1344 -0.0360  0.8942
18320TIP3    H176451   6.605   4.153  15.608  1.1321 -1.2785  0.4630
18320TIP3    H276452   6.485   4.116  15.693  0.1179  0.4378 -0.1790
18321TIP3   OH276453   6.741   1.962   5.190 -0.4461  0.1284 -0.1272
18321TIP3    H176454   6.654   1.934   5.162 -0.4691  0.2005 -0.1304
18321TIP3    H276455   6.740   1.952   5.286 -0.6546  0.6652 -0.0696
18322TIP3   OH276456   2.393   5.920   1.372  0.5573  0.2602  0.1046
18322TIP3    H176457   2.335   5.995   1.374  0.3291  0.0874 -0.0654
18322TIP3    H276458   2.436   5.921   1.458  0.4512  0.4988  0.1555
18323TIP3   OH276459   3.752   6.471   0.032  0.1294  0.4528 -0.5203
18323TIP3    H176460   3.809   6.428   0.095 -0.4126  1.5549  0.7953
18323TIP3    H276461   3.775   6.433  -0.052  1.2087 -0.7414  0.2784
18324TIP3   OH276462   3.515   1.743   4.804  0.5356  0.7238  0.7308
18324TIP3    H176463   3.517   1.648   4.812 -1.0287  0.6284  0.3948
18324TIP3    H276464   3.498   1.774   4.893 -2.5872  0.4322  0.3659
18325TIP3   OH276465   5.179   6.078   1.446  0.8402 -0.2959 -0.0378
18325TIP3    H176466   5.149   6.166   1.423  2.5085  0.3663  0.1893
18325TIP3    H276467   5.124   6.052   1.519 -0.4595  0.0502 -0.8534
18326TIP3   OH276468   5.067   5.743   5.717 -0.9247 -0.0287 -0.2704
18326TIP3    H176469   5.140   5.804   5.728  0.2316 -1.2565 -0.9195
18326TIP3    H276470   5.055   5.703   5.803  0.1951 -0.9286 -0.5133
18327TIP3   OH276471   1.279   3.013   5.289 -0.1165  0.2328 -0.1267
18327TIP3    H176472   1.226   2.943   5.326  1.5197 -0.8376  0.2743
18327TIP3    H276473   1.294   3.073   5.362 -2.0578  1.4268 -0.6183
18328TIP3   OH276474   4.026   2.612  13.878  0.4591 -0.0932 -0.0795
18328TIP3    H176475   4.025   2.697  13.921 -0.4323 -0.4334  0.6261
18328TIP3    H276476   4.045   2.550  13.949  3.9026 -0.3065 -1.0316
18329TIP3   OH276477   4.196   2.336  11.077 -0.1855  0.2076 -0.2366
18329TIP3    H176478   4.132   2.304  11.140  1.8886 -1.6542  1.0914
18329TIP3    H276479   4.147   2.347  10.996 -1.7443 -3.4539  0.0418
18330TIP3   OH276480   4.075   2.591   2.785 -0.1013 -0.2729  0.1614
18330TIP3    H176481   4.018   2.652   2.738 -0.8996 -1.4482 -0.4352
18330TIP3    H276482   4.160   2.602   2.743 -0.0917  0.8303  0.4365
18331TIP3   OH276483   2.229   6.687   4.715  0.2944  0.4008  0.3989
18331TIP3    H176484   2.179   6.752   4.666  1.1410  0.9463  0.2297
18331TIP3    H276485   2.315   6.687   4.673  0.7156  0.1486  1.2447
18332TIP3   OH276486   6.526   4.265  13.391  0.0002 -0.0196  0.2248
18332TIP3    H176487   6.621   4.258  13.402  0.0822  0.4203 -0.1446
18332TIP3    H276488   6.490   4.210  13.460  0.5301 -0.9579 -0.2221
18333TIP3   OH276489   2.294   2.958   4.261  0.6422 -0.0292  0.2671
18333TIP3    H176490   2.261   2.873   4.234  1.8053 -0.4030 -0.0100
18333TIP3    H276491   2.221   2.997   4.310 -1.2958  0.3977 -2.6890
18334TIP3   OH276492   0.013   2.802  15.535  0.1344  0.3504  0.0690
18334TIP3    H176493  -0.013   2.744  15.463 -0.1469 -1.1629  1.3294
18334TIP3    H276494  -0.066   2.853  15.555  0.1553  0.6260 -0.5494
18335TIP3   OH276495   5.972   1.478   2.974 -0.0460  0.0030 -0.5150
18335TIP3    H176496   5.903   1.544   2.974  0.6536  0.8129 -2.3862
18335TIP3    H276497   6.036   1.511   3.037 -0.2835  0.4590 -0.5078
18336TIP3   OH276498   4.714   3.313  10.461 -0.6977 -0.4789 -0.0230
18336TIP3    H176499   4.698   3.396  10.416  0.9810 -0.8046 -1.2974
18336TIP3    H276500   4.787   3.331  10.520 -0.6534 -0.9178  0.0618
18337TIP3   OH276501   2.523   6.117   2.058 -1.4894 -0.1959  0.1637
18337TIP3    H176502   2.514   6.166   2.140 -1.1296 -0.6116  0.4589
18337TIP3    H276503   2.438   6.126   2.015 -1.2893  1.0484 -0.0000
18338TIP3   OH276504   3.758   5.792   4.568 -0.1938  0.0364  0.3352
18338TIP3    H176505   3.701   5.777   4.493  1.2527 -0.2667 -0.7492
18338TIP3    H276506   3.821   5.720   4.565 -0.4088 -0.2981  2.1759
18339TIP3   OH276507   2.086   3.892   1.916  0.0172 -0.7855  0.0953
18339TIP3    H176508   2.135   3.820   1.955  0.1909 -0.1122  1.1793
18339TIP3    H276509   2.087   3.961   1.983 -0.2734  0.1697 -0.8488
18340TIP3   OH276510   2.772   5.597  15.145  0.0912  0.5888  0.2790
18340TIP3    H176511   2.759   5.542  15.222  0.1674 -1.7867 -1.3016
18340TIP3    H276512   2.851   5.647  15.164 -0.7639  1.2399  2.3510
18341TIP3   OH276513   4.566   1.205   5.238 -0.6588 -0.0798 -0.2724
18341TIP3    H176514   4.628   1.155   5.292  0.2082  0.2717 -0.9156
18341TIP3    H276515   4.493   1.145   5.224 -1.8555  0.4419  2.8750
18342TIP3   OH276516   1.864   3.509   5.381 -0.2658 -0.2996 -0.0766
18342TIP3    H176517   1.836   3.419   5.395 -2.2818  0.2771 -0.1517
18342TIP3    H276518   1.806   3.542   5.312  0.5331  1.0247 -0.1528
18343TIP3   OH276519   0.692   4.275   4.558 -0.1446  0.5819  0.5934
18343TIP3    H176520   0.647   4.323   4.627 -2.0888 -0.0197 -0.1767
18343TIP3    H276521   0.633   4.280   4.482 -0.6594 -3.1650  0.5409
18344TIP3   OH276522   0.231   2.235   6.400  0.2950 -0.1758  0.4649
18344TIP3    H176523   0.187   2.314   6.369 -0.1505 -0.4971  0.2736
18344TIP3    H276524   0.324   2.257   6.398  0.1169  0.7932  1.6592
18345TIP3   OH276525   3.715   4.822   6.133 -0.5093 -0.0515  0.7623
18345TIP3    H176526   3.735   4.769   6.209 -0.2462 -1.3001 -0.1465
18345TIP3    H276527   3.623   4.848   6.145 -0.2703  0.3334  1.8123
18346TIP3   OH276528   3.696   4.372   3.366 -0.1336  0.8774 -0.1176
18346TIP3    H176529   3.754   4.356   3.440  1.4679  0.6293 -1.3605
18346TIP3    H276530   3.744   4.337   3.290 -2.0462  0.3825 -1.1776
18347TIP3   OH276531   5.967   6.338  15.160 -0.5716 -0.1031  0.3842
18347TIP3    H176532   5.954   6.365  15.251 -0.1325  1.9518 -0.1127
18347TIP3    H276533   5.951   6.418  15.109 -0.1928 -1.0595 -1.3000
18348TIP3   OH276534   5.801   4.777   6.632 -0.1048  0.2909  0.2559
18348TIP3    H176535   5.819   4.764   6.725 -0.7321  1.4775  0.5582
18348TIP3    H276536   5.729   4.717   6.613  0.9134 -0.9568  0.1851
18349TIP3   OH276537   2.692   2.676  13.319 -0.2852 -0.4358  0.1609
18349TIP3    H176538   2.727   2.624  13.247 -1.1924  0.6701 -1.1063
18349TIP3    H276539   2.604   2.641  13.333 -0.1121 -0.6496  0.7614
18350TIP3   OH276540   0.490   5.774  15.609 -0.5448  0.4316  0.2717
18350TIP3    H176541   0.493   5.866  15.634  0.2560  0.6047 -0.4317
18350TIP3    H276542   0.426   5.770  15.537  0.0043  0.5746 -0.2289
18351TIP3   OH276543   6.505   1.974  12.511 -0.2174 -0.0672 -0.0944
18351TIP3    H176544   6.548   1.912  12.452 -0.3548  0.0056 -0.2721
18351TIP3    H276545   6.527   2.060  12.476  1.0957  0.0469  0.9202
18352TIP3   OH276546   3.637   6.668  14.922  0.1001 -0.0205 -0.2245
18352TIP3    H176547   3.608   6.746  14.874 -0.5665  0.1269  0.4071
18352TIP3    H276548   3.649   6.698  15.012 -2.8326 -1.1989  0.6767
18353TIP3   OH276549   6.543   3.421  14.689 -0.5979 -0.0659 -0.4906
18353TIP3    H176550   6.585   3.469  14.761 -0.1217 -1.2127  0.0216
18353TIP3    H276551   6.462   3.469  14.672 -0.3747  0.6327  0.3362
18354TIP3   OH276552   0.467   0.157  15.894  0.5744 -0.0713 -0.1207
18354TIP3    H176553   0.477   0.199  15.808  0.0615 -0.7606 -0.5298
18354TIP3    H276554   0.487   0.226  15.957 -0.3184  0.8117 -0.7715
18355TIP3   OH276555   5.599   1.078   2.799 -0.4814  0.0526 -0.2110
18355TIP3    H176556   5.668   1.012   2.805  0.3781  0.9051 -0.4584
18355TIP3    H276557   5.636   1.156   2.840 -1.8325  0.1234  0.9489
18356TIP3   OH276558   6.061   3.639  15.999 -0.5394  0.4960 -0.5244
18356TIP3    H176559   6.037   3.559  15.951 -0.9069  0.5486 -0.4308
18356TIP3    H276560   6.024   3.710  15.947 -0.1244  0.6136 -0.6602
18357TIP3   OH276561   1.525   3.410   3.825 -0.3615 -0.2165  0.4096
18357TIP3    H176562   1.543   3.497   3.789 -0.7900  0.1385  1.0286
18357TIP3    H276563   1.612   3.375   3.845 -0.2271  0.9347  2.0930
18358TIP3   OH276564   5.617   6.722  15.168 -0.0742  0.0167 -0.1411
18358TIP3    H176565   5.625   6.805  15.122 -1.0922  0.0656 -0.2456
18358TIP3    H276566   5.607   6.746  15.260  1.3907 -0.0634  0.0648
18359TIP3   OH276567   1.771   0.729   3.841  0.4299 -0.2256 -0.2685
18359TIP3    H176568   1.706   0.684   3.895  0.5472  0.0764  0.1239
18359TIP3    H276569   1.738   0.819   3.834  0.0347 -0.4329 -1.3039
18360TIP3   OH276570   2.969   3.896  15.983 -0.3561  0.2540  0.4398
18360TIP3    H176571   2.902   3.958  15.954 -0.1584  0.9444  1.4142
18360TIP3    H276572   2.933   3.810  15.961 -0.6083  0.6930 -0.9956
18361TIP3   OH276573   0.621   2.750   5.227  0.6424 -0.3008 -0.5836
18361TIP3    H176574   0.532   2.728   5.256  1.0354  0.1713  1.0823
18361TIP3    H276575   0.608   2.815   5.157 -0.3208  1.9272  1.5287
18362TIP3   OH276576   4.112   6.417  15.189  0.4208  0.2066  0.1663
18362TIP3    H176577   4.179   6.461  15.136  1.5248  0.5882  1.8079
18362TIP3    H276578   4.116   6.326  15.161  0.0933  0.5962 -1.2670
18363TIP3   OH276579   6.001   0.649   5.226  0.4074 -0.9180 -0.1392
18363TIP3    H176580   5.950   0.584   5.274  0.4317 -1.0129 -0.2418
18363TIP3    H276581   5.968   0.733   5.257  0.0783 -0.9772 -0.3187
18364TIP3   OH276582   5.330   2.313  11.869 -0.4588 -0.6453  0.7749
18364TIP3    H176583   5.254   2.356  11.908 -1.6450 -1.3998 -0.5780
18364TIP3    H276584   5.296   2.227  11.841  0.4931 -0.4276 -1.1840
18365TIP3   OH276585   3.982   1.377   4.901 -0.0838  0.6938  0.5369
18365TIP3    H176586   4.028   1.376   4.816 -1.0376  3.4310 -0.0923
18365TIP3    H276587   4.033   1.317   4.955  1.1770 -0.3646 -1.6439
18366TIP3   OH276588   4.528   5.076  14.301 -0.4760  0.4190 -0.5853
18366TIP3    H176589   4.539   5.171  14.299  1.0960  0.2982  0.3079
18366TIP3    H276590   4.449   5.062  14.352  0.5873  1.2186  1.3904
18367TIP3   OH276591   3.424   4.637   5.477 -0.2407 -0.4932 -0.6233
18367TIP3    H176592   3.376   4.706   5.432  0.8015  1.3892  0.9931
18367TIP3    H276593   3.375   4.557   5.458 -0.4436  0.3246 -4.0872
18368TIP3   OH276594   4.079   3.685   4.257  0.2985 -0.0680  0.6066
18368TIP3    H176595   4.002   3.634   4.281 -0.4018  1.5825  2.1215
18368TIP3    H276596   4.141   3.621   4.222 -1.4320 -1.5606  0.1016
18369TIP3   OH276597   2.119   2.381   3.288  0.0053  1.1916  0.4071
18369TIP3    H176598   2.113   2.476   3.292  0.4056  1.4143 -2.2301
18369TIP3    H276599   2.173   2.364   3.210 -1.5997 -1.1864 -0.2999
18370TIP3   OH276600   6.623   3.345   5.108 -0.2285 -0.2399  0.4014
18370TIP3    H176601   6.710   3.309   5.090 -0.0372  0.2225  0.4045
18370TIP3    H276602   6.574   3.331   5.028 -0.1048 -0.3634  0.3474
18371TIP3   OH276603   1.940   6.039   4.816  0.4846  0.1663 -1.1627
18371TIP3    H176604   1.991   6.073   4.889  0.4039  0.1179 -1.0838
18371TIP3    H276605   1.901   6.116   4.776  1.6532  0.3481 -2.0197
18372TIP3   OH276606   2.298   4.459   2.047 -0.1178  0.3714  0.0284
18372TIP3    H176607   2.207   4.481   2.068 -0.5110 -1.9719  1.0777
18372TIP3    H276608   2.299   4.452   1.951 -0.5371  2.2355 -0.1533
18373TIP3   OH276609   5.036   5.849  17.162 -0.4767  0.0414 -0.6679
18373TIP3    H176610   5.115   5.797  17.168  0.0708  0.9876  1.4764
18373TIP3    H276611   5.058   5.932  17.205 -2.3371  0.7032 -0.8617
18374TIP3   OH276612   3.918   2.566   3.814 -0.5510 -0.4306  0.0606
18374TIP3    H176613   3.967   2.484   3.821 -0.3185 -0.4287 -1.3016
18374TIP3    H276614   3.863   2.555   3.736  0.1567  1.0317 -0.6942
18375TIP3   OH276615   1.696   4.669   3.384  0.0355 -0.2702 -0.0184
18375TIP3    H176616   1.648   4.595   3.349  1.9033 -0.3274 -2.7091
18375TIP3    H276617   1.744   4.633   3.459  0.8025 -1.7938 -1.1867
18376TIP3   OH276618   6.158   5.798  12.220 -0.3182 -0.0918 -0.7251
18376TIP3    H176619   6.214   5.729  12.183  0.0690 -1.4823  2.1496
18376TIP3    H276620   6.219   5.863  12.254 -0.5710 -0.0861 -0.2849
18377TIP3   OH276621   5.745   3.792  16.711  0.0665 -0.4885 -0.1779
18377TIP3    H176622   5.753   3.739  16.790  0.9859 -1.9455 -1.1924
18377TIP3    H276623   5.739   3.882  16.742 -2.0982 -1.1624  1.6428
18378TIP3   OH276624   6.460   1.174  16.874  0.2006 -0.2504  0.0612
18378TIP3    H176625   6.418   1.090  16.893  0.0657 -0.1300  0.2904
18378TIP3    H276626   6.439   1.229  16.949  0.6480 -0.1457  0.1114
18379TIP3   OH276627   4.161   4.733   1.732 -0.1999  0.0564 -0.2842
18379TIP3    H176628   4.201   4.653   1.697 -0.5940 -0.1961 -0.1689
18379TIP3    H276629   4.082   4.745   1.680 -0.0098  0.5129 -0.4642
18380TIP3   OH276630   0.364   0.518  11.133 -0.2268 -0.2174  0.2070
18380TIP3    H176631   0.457   0.498  11.120 -0.3924 -1.9760  1.4083
18380TIP3    H276632   0.354   0.608  11.102  1.8173 -0.0861 -0.1839
18381TIP3   OH276633   5.555   5.122   6.082 -0.0877 -0.0723 -0.2224
18381TIP3    H176634   5.620   5.072   6.131  0.2017 -0.5096 -1.0418
18381TIP3    H276635   5.571   5.213   6.108 -0.2698 -0.3362  0.8649
18382TIP3   OH276636   5.368   6.317   4.150 -0.8677 -0.6406  0.5259
18382TIP3    H176637   5.413   6.295   4.232 -0.5840  0.0091  0.5541
18382TIP3    H276638   5.333   6.405   4.165  1.2784  0.5574 -0.8658
18383TIP3   OH276639   5.456   0.743   4.445 -0.1910 -0.0360 -0.3987
18383TIP3    H176640   5.539   0.770   4.405  0.0534 -0.7757 -0.4111
18383TIP3    H276641   5.415   0.686   4.380  0.6608 -2.0521  0.7169
18384TIP3   OH276642   5.797   2.028   0.319  0.0928 -0.4574 -0.4652
18384TIP3    H176643   5.858   2.099   0.300  1.2247 -1.5038 -0.8330
18384TIP3    H276644   5.711   2.071   0.324  1.0131  1.3512  1.7975
18385TIP3   OH276645   6.683   6.662  12.579  0.6240 -0.0787 -0.3764
18385TIP3    H176646   6.742   6.716  12.631 -0.7138 -0.7325  2.0027
18385TIP3    H276647   6.713   6.572  12.593 -0.5376 -0.3698  0.4169
18386TIP3   OH276648   5.405   3.928  11.029  0.2463  0.2996 -0.8655
18386TIP3    H176649   5.384   4.008  11.077 -1.2590 -0.3478 -0.3706
18386TIP3    H276650   5.380   3.947  10.939 -0.3584  0.3066 -0.6999
18387TIP3   OH276651   4.388   1.954   1.003 -0.0221 -0.1220 -0.4700
18387TIP3    H176652   4.302   1.930   1.037 -0.5602  0.1074 -1.6362
18387TIP3    H276653   4.444   1.959   1.081 -1.5701  1.9866  0.5963
18388TIP3   OH276654   0.087   4.576   4.399 -0.1242  0.8094 -0.0398
18388TIP3    H176655   0.132   4.656   4.426 -0.8796  0.5150  2.3313
18388TIP3    H276656  -0.000   4.604   4.373 -0.3970  0.7907  0.8153
18389TIP3   OH276657   6.261   5.743  12.877  0.3716 -0.2336  0.2224
18389TIP3    H176658   6.250   5.648  12.877  1.0214 -0.3608  1.9968
18389TIP3    H276659   6.242   5.769  12.968  1.1395  1.1971  0.0039
18390TIP3   OH276660   5.950   6.505  12.048  0.3373  0.5791 -0.2488
18390TIP3    H176661   5.875   6.468  12.095  0.1039  1.8363  0.3931
18390TIP3    H276662   6.025   6.453  12.078 -0.1508 -0.2061 -0.3435
18391TIP3   OH276663   4.155   0.058  11.961 -0.0869 -0.3743 -0.5184
18391TIP3    H176664   4.211  -0.008  11.922 -0.2503  0.2875 -1.9307
18391TIP3    H276665   4.187   0.142  11.927 -2.0336  0.0099 -1.5992
18392TIP3   OH276666   2.245   5.072  13.904  0.1527  0.6440  0.1319
18392TIP3    H176667   2.316   5.083  13.967  0.7653  0.1394 -0.4625
18392TIP3    H276668   2.262   5.138  13.837  0.8605 -0.3695 -0.7219
18393TIP3   OH276669   0.704   4.230  13.108  0.0149 -0.0513  0.4370
18393TIP3    H176670   0.636   4.269  13.163 -0.8085  0.7312 -1.0730
18393TIP3    H276671   0.666   4.228  13.020  0.8039 -2.4415  0.0790
18394TIP3   OH276672   4.159   2.776   3.822  0.1351  0.2117 -0.1636
18394TIP3    H176673   4.196   2.781   3.734  0.1387  1.1099 -0.1215
18394TIP3    H276674   4.090   2.710   3.816  0.6954 -0.3416 -0.6289
18395TIP3   OH276675   2.692   3.575  13.966 -0.5657 -0.2548 -0.5215
18395TIP3    H176676   2.719   3.490  14.001  1.7656  0.3486 -0.6699
18395TIP3    H276677   2.696   3.634  14.041 -0.8368 -0.0155 -0.6965
18396TIP3   OH276678   3.267   2.265   1.684  0.0943  0.2040 -0.0564
18396TIP3    H176679   3.267   2.358   1.709  0.1356  0.7158 -1.7652
18396TIP3    H276680   3.358   2.246   1.663  0.0007 -0.0518 -0.2435
18397TIP3   OH276681   6.640   5.484   1.073 -0.4467 -0.6209  0.6111
18397TIP3    H176682   6.571   5.447   1.127 -0.0130 -0.4752  1.2720
18397TIP3    H276683   6.678   5.554   1.126  1.0083 -1.4864  0.7709
18398TIP3   OH276684   2.806   0.067   1.443  0.2502  0.1072  0.5061
18398TIP3    H176685   2.797   0.064   1.347  0.2664  0.4812  0.4937
18398TIP3    H276686   2.844   0.153   1.461 -1.2416  0.6940  0.9666
18399TIP3   OH276687   1.111   5.370  11.614 -0.3243 -0.3664 -0.6731
18399TIP3    H176688   1.182   5.311  11.589  0.0112 -0.0832 -0.4162
18399TIP3    H276689   1.032   5.331  11.577 -0.6711 -2.7773  2.2024
18400TIP3   OH276690   6.772   3.111   4.725  0.2349  0.5296 -0.1826
18400TIP3    H176691   6.823   3.058   4.664 -0.1335  0.1638 -0.1800
18400TIP3    H276692   6.696   3.139   4.674 -0.4108 -0.3208  0.2751
18401TIP3   OH276693   2.282   6.475  15.974 -0.2502 -0.2008  0.0710
18401TIP3    H176694   2.300   6.534  15.900 -0.8511  1.8098  1.4426
18401TIP3    H276695   2.321   6.392  15.948  0.5528  0.7516 -2.0202
18402TIP3   OH276696   3.228   2.541   0.264 -0.6031  0.0688 -0.4144
18402TIP3    H176697   3.304   2.596   0.284 -0.3141 -0.0011 -1.2772
18402TIP3    H276698   3.180   2.590   0.197 -2.1233  0.8111  1.1214
18403TIP3   OH276699   1.737   4.696  15.980  0.3009  0.3936 -0.4446
18403TIP3    H176700   1.648   4.730  15.994  0.1226 -0.4626  0.6255
18403TIP3    H276701   1.785   4.724  16.058  0.8333  0.4097 -0.7792
18404TIP3   OH276702   3.105   0.816  11.507 -0.0496  0.0557 -0.3385
18404TIP3    H176703   3.053   0.740  11.533 -2.7200  1.4268 -1.2670
18404TIP3    H276704   3.081   0.832  11.416  2.1048  0.7767 -0.8359
18405TIP3   OH276705   1.732   0.284   4.348 -0.2698 -0.2742  0.0823
18405TIP3    H176706   1.684   0.264   4.268  0.7514 -0.8205 -0.4132
18405TIP3    H276707   1.716   0.377   4.364  0.3746  0.0982 -1.3425
18406TIP3   OH276708   1.315   3.746  11.852  0.6958  0.0859 -0.2495
18406TIP3    H176709   1.320   3.827  11.800  1.5994  0.3180  0.1725
18406TIP3    H276710   1.270   3.684  11.795 -0.6586  1.0800 -0.3164
18407TIP3   OH276711   3.960   5.159   4.926 -0.6117 -0.0680  0.4669
18407TIP3    H176712   3.994   5.245   4.902  1.9691 -1.1562 -0.0373
18407TIP3    H276713   3.954   5.111   4.843 -1.3079 -0.6434  0.8310
18408TIP3   OH276714   5.676   3.068   2.848  0.4369  0.0548  0.3526
18408TIP3    H176715   5.605   3.008   2.824  2.2090 -3.0884  2.3819
18408TIP3    H276716   5.631   3.148   2.874 -1.9671  0.9947 -5.1267
18409TIP3   OH276717   2.342   6.410  14.759  0.2359  0.1716 -0.2687
18409TIP3    H176718   2.390   6.328  14.745  0.4883  0.3680 -0.5831
18409TIP3    H276719   2.302   6.428  14.674 -3.2846 -1.7699  0.7882
18410TIP3   OH276720   0.850   1.882   2.173  0.9258 -0.7954 -0.2080
18410TIP3    H176721   0.852   1.957   2.233  0.3840 -1.1332  0.2394
18410TIP3    H276722   0.942   1.863   2.155  1.0723  0.6574 -1.1868
18411TIP3   OH276723   2.953   5.176  13.955  0.2005 -0.4772  0.0590
18411TIP3    H176724   2.862   5.171  13.927  0.1739  0.5442 -0.0608
18411TIP3    H276725   2.989   5.251  13.908  1.0555 -0.7548  0.2521
18412TIP3   OH276726   6.606   2.622   0.294  0.1573 -0.9096 -0.3751
18412TIP3    H176727   6.620   2.572   0.213  3.5785 -0.8824  0.0559
18412TIP3    H276728   6.563   2.560   0.353  1.4418 -2.3636 -0.8890
18413TIP3   OH276729   4.762   3.174  12.678  0.1348 -0.0127 -0.1845
18413TIP3    H176730   4.787   3.262  12.650 -2.7875  0.5578 -1.3409
18413TIP3    H276731   4.673   3.184  12.711 -0.1852 -2.5114 -0.1467
18414TIP3   OH276732   3.804   6.368   2.456 -0.5910 -0.3388  0.1216
18414TIP3    H176733   3.718   6.396   2.425  0.6411  1.2927 -2.1052
18414TIP3    H276734   3.813   6.279   2.424 -1.4828 -0.5887  0.5238
18415TIP3   OH276735   5.180   0.630  12.145  0.1337  0.2329  0.1134
18415TIP3    H176736   5.226   0.649  12.063 -1.0967  1.5146 -0.3406
18415TIP3    H276737   5.249   0.619  12.210  1.1157 -0.1176 -0.9545
18416TIP3   OH276738   6.691   0.142   4.524 -0.5306  0.1928  0.2417
18416TIP3    H176739   6.692   0.092   4.606 -0.4915  1.1940  0.8802
18416TIP3    H276740   6.776   0.187   4.523  0.0497 -0.8664 -1.0523
18417TIP3   OH276741   3.604   0.513   6.346  0.3145  0.3216 -0.4892
18417TIP3    H176742   3.615   0.577   6.416 -0.0229  2.3140 -2.1621
18417TIP3    H276743   3.528   0.460   6.373  0.6716  0.5348  0.9866
18418TIP3   OH276744   5.621   6.169  14.345 -0.1339  0.4920  0.5377
18418TIP3    H176745   5.544   6.152  14.399 -1.6951  0.9596 -1.4387
18418TIP3    H276746   5.671   6.233  14.396 -0.7396 -0.2268  2.1092
18419TIP3   OH276747   5.271   2.415  14.686 -0.3733 -0.3173  0.0760
18419TIP3    H176748   5.221   2.351  14.739 -0.1649 -0.4094  0.1621
18419TIP3    H276749   5.325   2.361  14.628  0.1350 -0.2218  0.4581
18420TIP3   OH276750   2.588   1.490   2.963  0.0644  0.3411 -0.3122
18420TIP3    H176751   2.626   1.487   2.876  0.7986  0.5993 -0.0141
18420TIP3    H276752   2.648   1.438   3.017 -1.5611 -1.6939 -0.3662
18421TIP3   OH276753   4.121   6.813   2.929  0.4744  0.3074  0.2311
18421TIP3    H176754   4.077   6.797   2.846 -0.5946 -1.2367  1.0519
18421TIP3    H276755   4.135   6.907   2.931  0.7323  0.3493 -1.7883
18422TIP3   OH276756   4.243   3.624  16.956  0.1865 -0.0821  0.2124
18422TIP3    H176757   4.315   3.575  16.917 -0.2101 -0.3272 -0.2192
18422TIP3    H276758   4.236   3.703  16.902  0.8367  0.4748  0.9159
18423TIP3   OH276759   2.565   4.202  10.024 -0.6173 -0.2548 -0.4285
18423TIP3    H176760   2.506   4.193  10.098 -0.3926  3.1541  0.3116
18423TIP3    H276761   2.636   4.141  10.042 -0.9314 -0.0403  1.8295
18424TIP3   OH276762   1.085   2.857  15.939  0.5266 -0.2078 -0.0254
18424TIP3    H176763   1.017   2.876  16.003  0.0694 -0.4779 -0.4228
18424TIP3    H276764   1.098   2.940  15.892  0.5853 -0.1147  0.1535
18425TIP3   OH276765   2.325   4.588  13.197  0.3306 -0.0352  0.0285
18425TIP3    H176766   2.249   4.534  13.218  0.7564 -0.4196  0.5876
18425TIP3    H276767   2.376   4.535  13.135  0.3483  0.0616 -0.0408
18426TIP3   OH276768   5.786   1.284  15.504 -0.2649 -0.2741  0.2643
18426TIP3    H176769   5.718   1.346  15.476  1.2125  1.0648 -0.4855
18426TIP3    H276770   5.752   1.246  15.585 -0.9254  2.0304  1.1321
18427TIP3   OH276771   1.264   4.734  12.176 -0.6987  0.4405 -0.3267
18427TIP3    H176772   1.311   4.766  12.098  1.9883  1.1611  1.4559
18427TIP3    H276773   1.223   4.653  12.147  2.3635 -0.7153 -1.9129
18428TIP3   OH276774   0.891   4.029  15.204 -0.2645  0.6487  1.2485
18428TIP3    H176775   0.982   4.031  15.233  0.1635 -1.0649  0.1705
18428TIP3    H276776   0.851   3.959  15.256 -1.1552  1.7509  2.1110
18429TIP3   OH276777   2.637   5.053   1.326 -0.0231 -0.4838  0.3339
18429TIP3    H176778   2.562   5.096   1.285 -0.6729 -0.3000  1.6699
18429TIP3    H276779   2.630   4.962   1.300  1.9954  0.2230 -3.4881
18430TIP3   OH276780   0.725   5.575   0.759 -0.0764  0.3491 -0.1253
18430TIP3    H176781   0.740   5.495   0.710 -0.0704  0.0150  0.4136
18430TIP3    H276782   0.789   5.637   0.724  1.8839 -0.7183  1.3550
18431TIP3   OH276783   5.358   2.957   4.913 -0.0185  0.3376  0.2262
18431TIP3    H176784   5.451   2.937   4.908  0.1529  1.3385 -1.0508
18431TIP3    H276785   5.354   3.053   4.918 -0.9240  0.2577  2.4288
18432TIP3   OH276786   6.460   4.422   1.659  0.4160  0.0335 -0.0005
18432TIP3    H176787   6.373   4.415   1.621  0.1856  2.1645  0.0491
18432TIP3    H276788   6.452   4.382   1.745 -0.1914 -0.8475 -0.4534
18433TIP3   OH276789   2.295   5.212   4.745 -0.1243  0.4526  0.3300
18433TIP3    H176790   2.293   5.274   4.672 -0.3890 -0.2830 -0.2959
18433TIP3    H276791   2.204   5.210   4.776 -0.3775 -0.5481 -0.4486
18434TIP3   OH276792   6.447   6.511  11.050 -0.2587  0.4541  0.1805
18434TIP3    H176793   6.443   6.430  10.999 -0.0246 -0.5609  1.7180
18434TIP3    H276794   6.539   6.538  11.046 -0.6034  1.6006 -1.6731
18435TIP3   OH276795   1.600   3.771  15.926 -0.0039 -0.3417  0.2376
18435TIP3    H176796   1.615   3.718  15.848 -1.2228 -0.9089  0.3719
18435TIP3    H276797   1.534   3.723  15.976 -0.2961  0.7320  0.9283
18436TIP3   OH276798   1.051   5.778  13.582  0.1916  0.3267  0.0663
18436TIP3    H176799   0.958   5.790  13.568  0.1288 -0.8176 -0.5883
18436TIP3    H276800   1.059   5.760  13.676 -0.1822  0.8757  0.2079
18437TIP3   OH276801   5.034   3.112   1.660 -0.0762 -0.7331  0.8592
18437TIP3    H176802   5.068   3.047   1.721 -0.2050  1.4256  3.4326
18437TIP3    H276803   4.939   3.099   1.661  0.0524 -2.0612 -0.6283
18438TIP3   OH276804   5.920   2.837   0.229 -0.1779 -0.2085  0.1639
18438TIP3    H176805   5.902   2.855   0.137  1.7842  2.5506  0.1884
18438TIP3    H276806   5.854   2.888   0.277 -0.6097 -0.9007  0.3337
18439TIP3   OH276807   5.281   1.707   6.284 -0.2375 -0.0074 -0.4296
18439TIP3    H176808   5.269   1.613   6.268 -1.3861  0.0403  0.0402
18439TIP3    H276809   5.205   1.732   6.337 -0.2340  1.3087 -1.0092
18440TIP3   OH276810   1.762   2.277  14.452  0.1486  0.0571  0.0338
18440TIP3    H176811   1.720   2.210  14.399  1.1151 -0.8648  0.4111
18440TIP3    H276812   1.832   2.232  14.498  0.4773  1.2124  0.7201
18441TIP3   OH276813   5.155   2.532  15.274 -0.8229 -0.4347 -0.5564
18441TIP3    H176814   5.074   2.578  15.293 -0.2950  0.7756 -1.1155
18441TIP3    H276815   5.197   2.519  15.359  0.5258  3.0209 -0.5674
18442TIP3   OH276816   4.151   4.273   3.517 -0.2984  0.7431 -0.3518
18442TIP3    H176817   4.109   4.333   3.457 -0.2590  2.2371  1.0340
18442TIP3    H276818   4.083   4.209   3.539 -0.4289  0.4199 -1.6234
18443TIP3   OH276819   4.457   0.955   5.174  0.5758  0.6222 -0.1102
18443TIP3    H176820   4.526   0.890   5.162  1.1609  1.3806 -1.0304
18443TIP3    H276821   4.383   0.906   5.209  0.5172 -0.8360 -2.1039
18444TIP3   OH276822   5.943   1.273   0.552 -0.2478  0.3449  0.5401
18444TIP3    H176823   5.875   1.238   0.494 -0.5958 -0.5865  1.4816
18444TIP3    H276824   5.975   1.197   0.600  1.7284  0.7029 -0.1006
18445TIP3   OH276825   0.397   6.145   0.205  0.6229  0.5511 -0.1528
18445TIP3    H176826   0.440   6.060   0.207 -0.5749 -0.0659  0.3240
18445TIP3    H276827   0.435   6.193   0.279  0.1782 -0.1574  0.5539
18446TIP3   OH276828   2.132   3.127  10.991 -0.1694  0.3942  0.3593
18446TIP3    H176829   2.129   3.118  10.896 -0.9533  2.1211  0.1854
18446TIP3    H276830   2.041   3.144  11.016  0.2609  1.4860  1.2298
18447TIP3   OH276831   0.208   2.340  13.794 -0.3260 -0.1904 -0.2076
18447TIP3    H176832   0.298   2.308  13.784 -1.2776 -3.2122 -0.3576
18447TIP3    H276833   0.203   2.370  13.884 -0.0153 -3.5419  1.0734
18448TIP3   OH276834   5.861   4.387   0.029  0.5399  0.2293 -0.8100
18448TIP3    H176835   5.945   4.427   0.009  0.2266  1.2030 -0.2460
18448TIP3    H276836   5.860   4.380   0.124  0.3979 -0.7203 -0.8754
18449TIP3   OH276837   4.096   1.929  15.421  0.0187  0.2522  0.6071
18449TIP3    H176838   4.114   2.020  15.399 -3.4576  0.5984 -1.6779
18449TIP3    H276839   4.054   1.933  15.507 -0.2158  0.8298  0.4729
18450TIP3   OH276840   6.420   5.120   3.713  0.2305 -0.1433 -0.2331
18450TIP3    H176841   6.401   5.056   3.644 -2.1308 -1.3486  1.3787
18450TIP3    H276842   6.335   5.135   3.756  1.5309  0.6958  2.2653
18451TIP3   OH276843   6.820   5.017  16.488  0.6605  0.3940 -0.2473
18451TIP3    H176844   6.911   5.010  16.459  1.0733 -0.3334  1.1751
18451TIP3    H276845   6.808   5.110  16.505  1.6101  0.3204  0.9627
18452TIP3   OH276846   0.008   5.848  15.079  0.1691  0.1077  0.7383
18452TIP3    H176847   0.065   5.791  15.131 -0.3112  0.8455  2.1383
18452TIP3    H276848   0.068   5.898  15.024  0.7391 -0.3398  0.9393
18453TIP3   OH276849   3.739   1.135   3.787 -0.3624  0.2184 -0.3444
18453TIP3    H176850   3.785   1.132   3.871 -1.6029 -1.0954  0.3281
18453TIP3    H276851   3.777   1.211   3.742  1.4218  0.0400  0.7462
18454TIP3   OH276852   5.662   5.463   3.980  0.6161 -0.4006  0.0716
18454TIP3    H176853   5.698   5.551   3.987 -0.3586  0.2050 -1.9312
18454TIP3    H276854   5.674   5.425   4.067  3.2201  0.8314  0.3447
18455TIP3   OH276855   5.640   4.892  12.357  0.8005 -1.1687 -0.7164
18455TIP3    H176856   5.702   4.859  12.292 -1.6222 -0.4740 -3.6409
18455TIP3    H276857   5.560   4.843  12.341  0.0938 -1.0411  1.9280
18456TIP3   OH276858   1.619   5.247   4.474 -0.4727  0.0849 -0.1796
18456TIP3    H176859   1.665   5.168   4.503 -0.7915 -0.3126 -0.7259
18456TIP3    H276860   1.666   5.319   4.515 -0.6215 -0.4224  0.9421
18457TIP3   OH276861   0.932   4.961   1.789  0.2963  0.4384  0.2289
18457TIP3    H176862   0.841   4.990   1.786 -0.4578 -1.8200 -0.5054
18457TIP3    H276863   0.976   5.029   1.840 -1.6711  1.8668  0.1615
18458TIP3   OH276864   3.459   4.393   0.765 -0.1226 -0.0909 -0.5537
18458TIP3    H176865   3.450   4.372   0.672 -0.0365 -1.2238 -0.3218
18458TIP3    H276866   3.548   4.427   0.774 -0.1153 -0.0231 -0.8726
18459TIP3   OH276867   4.722   2.834   4.926 -0.5492  0.4411 -0.2980
18459TIP3    H176868   4.745   2.741   4.922 -1.8177  0.1340 -1.2567
18459TIP3    H276869   4.806   2.880   4.929  0.0882 -0.7363  0.5151
18460TIP3   OH276870   4.039   2.302   2.106 -0.1844 -0.1075 -0.0436
18460TIP3    H176871   3.961   2.342   2.145  0.4156 -0.2973  1.4474
18460TIP3    H276872   4.037   2.211   2.137  1.3724  0.2525  1.2926
18461TIP3   OH276873   5.675   2.246   0.921 -0.2256 -0.3954  0.1624
18461TIP3    H176874   5.648   2.289   0.840 -0.7840 -0.2165  0.4427
18461TIP3    H276875   5.763   2.279   0.938 -0.2681 -0.1227 -0.1468
18462TIP3   OH276876   3.347   1.120  11.481  0.7720  0.4250 -0.6817
18462TIP3    H176877   3.341   1.186  11.550  0.4215  0.3324 -0.6215
18462TIP3    H276878   3.273   1.139  11.423  0.0077 -0.5758 -0.0753
18463TIP3   OH276879   6.285   4.174  10.911 -0.1984 -0.4317  0.3958
18463TIP3    H176880   6.232   4.254  10.918 -1.4428 -1.1900  0.0698
18463TIP3    H276881   6.321   4.178  10.822  1.9835  1.0521  1.2585
18464TIP3   OH276882   3.622   2.581   6.498  0.2536 -0.4127  0.0678
18464TIP3    H176883   3.697   2.542   6.543  0.1649  0.6338  1.1911
18464TIP3    H276884   3.661   2.641   6.435  0.3722 -1.2657 -0.6818
18465TIP3   OH276885   0.047   0.830  16.575  0.3647  0.1475  0.1138
18465TIP3    H176886   0.084   0.747  16.543 -1.0996 -0.3402 -0.4061
18465TIP3    H276887   0.091   0.897  16.523 -0.4190 -0.4975 -1.4526
18466TIP3   OH276888   2.399   2.213  16.463  0.2299 -0.0877 -0.3711
18466TIP3    H176889   2.452   2.276  16.413  0.3123  0.6372  0.5916
18466TIP3    H276890   2.330   2.266  16.503 -0.8102 -0.9138 -1.0265
18467TIP3   OH276891   1.365   1.333  15.938  0.0303  0.3927 -0.6790
18467TIP3    H176892   1.390   1.364  16.025  0.9209 -1.4016 -0.2492
18467TIP3    H276893   1.284   1.285  15.952  0.7887 -0.9048 -0.6014
18468TIP3   OH276894   3.101   1.702  16.982  0.3168  0.1155 -0.0981
18468TIP3    H176895   3.114   1.768  16.914  1.0370 -2.6506 -2.9259
18468TIP3    H276896   3.118   1.619  16.937 -1.6924 -2.1127  2.8922
18469TIP3   OH276897   5.398   5.008  16.523 -0.6920  0.0081 -0.3657
18469TIP3    H176898   5.412   4.967  16.608  0.9542 -0.1227 -0.6670
18469TIP3    H276899   5.473   4.981  16.470 -1.3939  0.5351 -1.6960
18470TIP3   OH276900   4.812   6.562  15.819 -0.2038 -0.3316 -0.4512
18470TIP3    H176901   4.838   6.472  15.803  0.3337 -0.3535  0.5035
18470TIP3    H276902   4.891   6.605  15.851 -0.9259 -0.0190  1.0158
18471TIP3   OH276903   0.677   1.704  12.990  0.2039 -0.4350  0.1162
18471TIP3    H176904   0.734   1.674  13.061  0.9060  1.1464  0.2737
18471TIP3    H276905   0.730   1.768  12.942 -1.0745  0.2999 -0.3667
18472TIP3   OH276906   3.476   3.439   0.823 -0.4364 -0.8430 -0.4058
18472TIP3    H176907   3.446   3.397   0.904  0.8317 -0.9776  0.0193
18472TIP3    H276908   3.435   3.526   0.825 -1.6276 -1.3871 -0.3888
18473TIP3   OH276909   0.945   4.047  12.005 -0.4152  0.1689 -0.1819
18473TIP3    H176910   0.972   3.955  12.001  1.2916  0.6259 -0.0401
18473TIP3    H276911   0.867   4.047  12.060  0.1242 -1.1006  0.6248
18474TIP3   OH276912   2.383   1.924  12.566 -0.6715 -0.1501  0.6364
18474TIP3    H176913   2.301   1.927  12.515 -1.1659  1.6916  1.4543
18474TIP3    H276914   2.452   1.915  12.500 -1.4993 -1.3168 -0.0996
18475TIP3   OH276915   1.702   5.308   2.660  0.3870 -0.0743  0.0652
18475TIP3    H176916   1.737   5.221   2.680 -0.4910 -0.0638  1.9268
18475TIP3    H276917   1.611   5.293   2.635 -0.0250  0.3482  1.2402
18476TIP3   OH276918   3.908   0.711   4.397  0.0707 -0.4372  0.1432
18476TIP3    H176919   3.943   0.798   4.416 -0.8664  0.0694 -0.3519
18476TIP3    H276920   3.858   0.723   4.316  1.4527 -1.8564 -0.9634
18477TIP3   OH276921   5.394   5.064  15.498  0.0668  0.1759  0.1364
18477TIP3    H176922   5.321   5.122  15.520 -0.2096 -0.0226 -0.2335
18477TIP3    H276923   5.357   5.004  15.433  0.2922 -0.5538  0.6785
18478TIP3   OH276924   5.876   6.706   2.196  0.6335 -0.2936 -0.3579
18478TIP3    H176925   5.944   6.772   2.211  1.0504 -0.6922 -0.4580
18478TIP3    H276926   5.924   6.624   2.184  0.0416 -1.0912  2.0896
18479TIP3   OH276927   0.240   4.963  13.412 -0.3235  0.4797 -0.3347
18479TIP3    H176928   0.241   4.885  13.356 -1.1031  0.5273 -0.4264
18479TIP3    H276929   0.332   4.984  13.426 -0.0380 -1.6393  1.3717
18480TIP3   OH276930   4.288   4.110  15.588 -0.1298  0.1466 -0.2266
18480TIP3    H176931   4.287   4.148  15.500 -0.5753 -1.3186 -0.8852
18480TIP3    H276932   4.248   4.024  15.577  0.5540 -0.3903  1.2686
18481TIP3   OH276933   4.900   3.124  16.378 -0.6400 -0.7555  0.2502
18481TIP3    H176934   4.985   3.140  16.336  1.5028 -1.4829  3.9030
18481TIP3    H276935   4.848   3.201  16.356  1.9977  1.1611  0.2689
18482TIP3   OH276936   6.808   5.016  14.580  0.3081  0.2317  0.1598
18482TIP3    H176937   6.718   5.034  14.610  0.9547  2.1856  1.1123
18482TIP3    H276938   6.833   5.096  14.534  1.7207 -0.1104  0.3029
18483TIP3   OH276939   6.454   6.497  15.961 -0.4124  0.1730 -0.2734
18483TIP3    H176940   6.425   6.579  15.923 -0.6919  0.1627 -0.0812
18483TIP3    H276941   6.499   6.522  16.042 -0.9342  0.1060  0.0444
18484TIP3   OH276942   0.975   6.651  17.167 -0.1078  0.8326  0.0064
18484TIP3    H176943   0.892   6.673  17.209  0.2177 -0.4470  1.4185
18484TIP3    H276944   1.041   6.666  17.235  0.5235 -0.6411 -0.2485
18485TIP3   OH276945   1.393   5.033  16.244  0.4454  0.5081  0.3794
18485TIP3    H176946   1.411   5.103  16.181 -0.5791 -0.8708 -1.5705
18485TIP3    H276947   1.324   5.068  16.301  1.0437  1.6127  0.4458
18486TIP3   OH276948   2.041   5.510   2.382 -0.6580  0.7071 -0.6058
18486TIP3    H176949   2.049   5.417   2.401  1.2231  1.4283  2.8029
18486TIP3    H276950   2.130   5.545   2.392 -1.6969  3.2377  0.6969
18487TIP3   OH276951   1.150   6.100  16.302 -0.0098 -0.3485 -0.4028
18487TIP3    H176952   1.085   6.163  16.334 -2.4147 -2.8993  0.0577
18487TIP3    H276953   1.100   6.039  16.248  2.1938 -1.9168 -0.8145
18488TIP3   OH276954   5.144   0.961   3.870 -0.2829 -0.1387 -0.2007
18488TIP3    H176955   5.092   0.958   3.790 -0.9598  0.6112  0.1922
18488TIP3    H276956   5.121   1.045   3.910  0.1397 -0.4448  0.7111
18489TIP3   OH276957   3.576   1.320   2.526 -0.4856 -0.0979  0.3634
18489TIP3    H176958   3.532   1.318   2.441 -3.8783  1.1498  1.8972
18489TIP3    H276959   3.536   1.249   2.576  2.4758 -1.7428  0.6044
18490TIP3   OH276960   3.102   0.878  13.983  0.6455  0.7952 -0.5481
18490TIP3    H176961   3.022   0.825  13.987  1.1924  0.0287  0.8230
18490TIP3    H276962   3.087   0.937  13.909  0.1566 -1.4810 -2.3809
18491TIP3   OH276963   4.853   5.654   1.260  0.0328 -0.0782  0.3448
18491TIP3    H176964   4.923   5.657   1.195  1.0749 -1.2063  1.3592
18491TIP3    H276965   4.840   5.561   1.278 -1.1142  0.1521  0.8438
18492TIP3   OH276966   6.064   0.762  11.496 -0.4894 -0.6253 -0.0656
18492TIP3    H176967   6.006   0.686  11.491 -1.3998  0.0769 -0.4759
18492TIP3    H276968   6.010   0.831  11.535 -0.3880  0.4454 -1.7079
18493TIP3   OH276969   6.201   2.518   2.550  0.0877  0.2685 -0.1366
18493TIP3    H176970   6.123   2.569   2.528 -0.1470 -0.5116 -1.1956
18493TIP3    H276971   6.264   2.583   2.582 -1.0890  0.8753  1.0604
18494TIP3   OH276972   0.923   6.153  11.161 -0.2449 -0.1962 -0.1073
18494TIP3    H176973   1.015   6.152  11.134 -0.6866  3.1417 -2.4105
18494TIP3    H276974   0.922   6.208  11.240 -0.5075  3.0223 -2.1870
18495TIP3   OH276975   5.242   3.781  11.957  0.3363  0.8039  0.8270
18495TIP3    H176976   5.245   3.737  11.873  1.5369 -1.5948  2.0364
18495TIP3    H276977   5.327   3.824  11.965 -0.3107  2.2923  0.2685
18496TIP3   OH276978   0.920   0.571   2.941 -0.1961  0.0014 -0.3589
18496TIP3    H176979   0.943   0.582   3.033 -1.0928  0.1936 -0.1446
18496TIP3    H276980   0.825   0.559   2.941 -0.1138 -0.7738 -1.1934
18497TIP3   OH276981   2.163   1.492  13.710 -0.1328 -0.7118 -0.2430
18497TIP3    H176982   2.125   1.441  13.782 -2.6920 -0.6221 -1.4265
18497TIP3    H276983   2.159   1.583  13.741 -1.3006 -0.6649 -0.4982
18498TIP3   OH276984   2.139   4.014   2.295  0.3943  0.8590 -0.5094
18498TIP3    H176985   2.197   4.077   2.253 -0.1612  1.7876  0.0721
18498TIP3    H276986   2.170   3.929   2.265  2.5976  1.2519  0.4541
18499TIP3   OH276987   4.607   1.846  16.950  0.1420 -0.3799  0.3893
18499TIP3    H176988   4.524   1.818  16.989 -1.0654 -0.6277 -2.1544
18499TIP3    H276989   4.637   1.770  16.901  1.4758 -0.0219  0.6099
18500TIP3   OH276990   6.474   0.257  12.651  0.4523  0.0472 -0.6272
18500TIP3    H176991   6.568   0.248  12.669  0.2646 -1.1164 -0.1694
18500TIP3    H276992   6.454   0.185  12.592 -0.3561 -0.3166  0.0795
18501TIP3   OH276993   5.218   3.909   3.491 -0.0122  0.4332  0.1066
18501TIP3    H176994   5.180   3.986   3.534  0.8854 -0.2573  2.2876
18501TIP3    H276995   5.310   3.934   3.475  0.0044  0.1919 -0.1819
18502TIP3   OH276996   6.089   0.719  13.365 -0.1972  0.0352  0.0608
18502TIP3    H176997   6.117   0.629  13.378 -0.9707 -0.2894 -0.4546
18502TIP3    H276998   5.995   0.718  13.383  0.1594  1.2516  2.5731
18503TIP3   OH276999   5.418   2.285  12.158  0.6792  0.5860  0.3961
18503TIP3    H177000   5.468   2.335  12.222  0.3011  2.1369 -0.4789
18503TIP3    H277001   5.447   2.319  12.073  1.5095 -1.7330 -0.3238
18504TIP3   OH277002   3.421   2.778   0.030  0.6168 -0.4039  0.0025
18504TIP3    H177003   3.410   2.693  -0.012 -0.5705 -0.1211 -0.3010
18504TIP3    H277004   3.333   2.804   0.056  0.9811  0.6607  0.2491
18505TIP3   OH277005   4.881   4.690  16.471  0.2298  0.0122 -0.5032
18505TIP3    H177006   4.936   4.621  16.509  0.8151  0.5483 -0.3590
18505TIP3    H277007   4.927   4.771  16.492 -0.7120  0.4920 -0.2345
18506TIP3   OH277008   4.701   0.176  14.994  0.2841  0.1222  0.3222
18506TIP3    H177009   4.684   0.269  14.979 -0.9643 -0.0892  0.3208
18506TIP3    H277010   4.707   0.138  14.906  2.9415  0.5150  0.2484
18507TIP3   OH277011   1.294   4.754   1.866  0.0476  0.1292 -0.1328
18507TIP3    H177012   1.296   4.658   1.859  0.5792  0.2002 -1.0419
18507TIP3    H277013   1.385   4.781   1.865 -0.1228  0.7319 -1.3451
18508TIP3   OH277014   6.240   6.464  11.878 -0.4943  0.1049 -0.1446
18508TIP3    H177015   6.333   6.439  11.878 -0.4531  0.1259  1.6931
18508TIP3    H277016   6.230   6.520  11.801  1.2724  0.9604  0.2022
18509TIP3   OH277017   0.895   6.296  16.088 -0.6382 -0.1165 -0.0985
18509TIP3    H177018   0.816   6.311  16.140 -1.8439  0.0340 -1.8723
18509TIP3    H277019   0.883   6.208  16.053 -1.2414  0.7862 -2.3022
18510TIP3   OH277020   4.266   1.743  15.302  0.2032 -0.2362 -0.5223
18510TIP3    H177021   4.219   1.660  15.314 -1.0312  0.2432 -1.7510
18510TIP3    H277022   4.203   1.810  15.328  0.1281  0.4264 -2.3029
18511TIP3   OH277023   5.150   3.926  11.134 -0.3218  0.2767  0.1459
18511TIP3    H177024   5.206   3.873  11.078  0.2477  1.1224 -0.1074
18511TIP3    H277025   5.106   3.987  11.073 -0.7730  0.2624  0.4540
18512TIP3   OH277026   4.760   6.153   0.299  0.0733  0.2790  0.3959
18512TIP3    H177027   4.854   6.168   0.303  0.2190 -0.0480 -1.2342
18512TIP3    H277028   4.728   6.213   0.232 -0.9623  0.6984  1.2321
18513TIP3   OH277029   2.892   5.274  15.933 -0.6515 -0.0402 -0.3909
18513TIP3    H177030   2.973   5.279  15.984  0.5117 -0.3506 -2.1261
18513TIP3    H277031   2.896   5.349  15.874 -1.9703  0.3103 -0.0640
18514TIP3   OH277032   6.397   0.547   2.915 -0.1384  0.3870 -0.0921
18514TIP3    H177033   6.378   0.626   2.865 -0.5955  0.0182 -0.5081
18514TIP3    H277034   6.403   0.478   2.850 -2.3007 -0.3926  0.4493
18515TIP3   OH277035   6.456   5.987  15.332 -0.1626 -0.6588 -0.2177
18515TIP3    H177036   6.378   6.041  15.345  0.5411  0.4205 -0.2654
18515TIP3    H277037   6.513   6.009  15.406  0.1825 -1.2553 -0.3003
18516TIP3   OH277038   3.260   2.112  13.052 -0.0670  0.9837  0.3942
18516TIP3    H177039   3.238   2.097  12.960 -0.5862 -2.1555  0.9166
18516TIP3    H277040   3.290   2.028  13.084 -0.2472  1.8729  3.2237
18517TIP3   OH277041   4.164   0.923  16.930  0.2852 -0.6251  0.3720
18517TIP3    H177042   4.142   0.837  16.965  0.3516  0.4006  3.1131
18517TIP3    H277043   4.082   0.972  16.933  0.5665 -0.1337  0.2132
18518TIP3   OH277044   1.708   2.692  15.071  0.9094  0.0177 -0.0133
18518TIP3    H177045   1.714   2.788  15.072 -0.8815  0.1842 -1.2098
18518TIP3    H277046   1.777   2.665  15.010 -0.1132  0.7604 -1.5926
18519TIP3   OH277047   2.969   6.014   4.258  0.0793 -0.0171 -0.2113
18519TIP3    H177048   2.962   5.947   4.326  0.1579 -0.2201 -0.4034
18519TIP3    H277049   3.062   6.037   4.256  0.3350 -1.0522 -1.2438
18520TIP3   OH277050   2.908   6.177  15.159  0.3441 -0.4348 -0.2754
18520TIP3    H177051   2.929   6.235  15.086 -0.1326  0.3494  0.1960
18520TIP3    H277052   2.833   6.218  15.202  0.4079 -1.0551  0.4630
18521TIP3   OH277053   4.681   2.016  11.038  0.6188 -0.0682 -0.3341
18521TIP3    H177054   4.630   1.975  10.968 -0.2497  0.4612 -0.0283
18521TIP3    H277055   4.749   1.952  11.059 -0.4674 -1.1880 -0.1251
18522TIP3   OH277056   4.831   3.340  13.760 -0.1438  0.6819  0.3312
18522TIP3    H177057   4.774   3.291  13.701 -0.9672  2.8315 -0.7839
18522TIP3    H277058   4.920   3.312  13.738 -0.5919 -0.3753 -0.1691
18523TIP3   OH277059   0.943   5.772  16.261 -0.6278  0.1576  0.2264
18523TIP3    H177060   0.903   5.726  16.336  0.8500 -2.2524 -0.3710
18523TIP3    H277061   1.019   5.816  16.298  0.0756 -0.9940  0.1856
18524TIP3   OH277062   2.777   5.341  11.401 -0.2223 -0.0081 -0.2802
18524TIP3    H177063   2.734   5.401  11.462 -0.2196  2.5825 -2.6289
18524TIP3    H277064   2.706   5.291  11.362 -0.3191 -0.9170  0.9888
18525TIP3   OH277065   3.901   4.890  13.824  0.2420 -0.3824 -0.7177
18525TIP3    H177066   3.812   4.899  13.858  0.2824 -1.1592 -0.3916
18525TIP3    H277067   3.936   4.979  13.824 -0.0364 -0.2653  0.4984
18526TIP3   OH277068   4.066   5.931  11.276 -0.0660  0.2508 -0.1163
18526TIP3    H177069   3.983   5.884  11.283 -0.8990  1.5511 -0.6566
18526TIP3    H277070   4.107   5.896  11.197 -0.8423  0.6337 -0.7179
18527TIP3   OH277071   1.922   2.631   1.741 -0.1277 -0.3146 -0.3959
18527TIP3    H177072   1.946   2.580   1.664  0.2897  0.0470 -0.5098
18527TIP3    H277073   2.004   2.671   1.770 -0.1288 -1.0509  0.6952
18528TIP3   OH277074   2.575   0.143   2.774 -0.4937  0.7871  0.4776
18528TIP3    H177075   2.607   0.089   2.847 -1.9691  0.4963  0.9529
18528TIP3    H277076   2.491   0.176   2.805 -1.5061  0.0761 -1.3616
18529TIP3   OH277077   1.155   0.742   0.165  0.1294 -0.7261  0.5193
18529TIP3    H177078   1.243   0.775   0.179  0.1696 -1.7391  3.2785
18529TIP3    H277079   1.100   0.791   0.227 -1.1204 -0.6953 -0.5587
18530TIP3   OH277080   6.614   2.163   0.983  0.2117  0.2810  0.2147
18530TIP3    H177081   6.581   2.080   0.946 -0.0966  1.0724 -1.3954
18530TIP3    H277082   6.686   2.137   1.040 -1.5169 -1.3064  1.8123
18531TIP3   OH277083   0.033   6.723   5.765 -1.3395  0.3619 -0.5635
18531TIP3    H177084  -0.049   6.744   5.808 -2.1126  1.5398 -2.4836
18531TIP3    H277085   0.008   6.675   5.686 -0.0420 -0.9680 -0.2177
18532TIP3   OH277086   5.041   3.394  11.809  0.3405  0.1076 -0.1506
18532TIP3    H177087   5.031   3.326  11.742  0.6455 -0.7576  0.6610
18532TIP3    H277088   5.119   3.368  11.858  0.4459  1.0396  0.1942
18533TIP3   OH277089   3.895   2.245  12.334  0.2492 -0.7203  0.2935
18533TIP3    H177090   3.924   2.221  12.246  0.6840  1.1299 -0.1159
18533TIP3    H277091   3.841   2.322  12.322  1.1850  0.2192  1.7244
18534TIP3   OH277092   1.262   4.069  12.133 -0.0362  0.4127 -0.0352
18534TIP3    H177093   1.310   4.060  12.051 -1.2266 -0.9282 -0.6294
18534TIP3    H277094   1.219   3.984  12.145  0.1017  0.5868  1.9818
18535TIP3   OH277095   0.152   1.627  15.505 -0.5011  0.1566 -0.0791
18535TIP3    H177096   0.082   1.563  15.499  1.4391 -2.0114 -1.1197
18535TIP3    H277097   0.220   1.583  15.556  1.1047  1.1759 -1.2553
18536TIP3   OH277098   6.704   1.511   4.821  0.1690 -0.3585  0.1761
18536TIP3    H177099   6.669   1.427   4.791 -1.6166  0.7233 -0.9550
18536TIP3    H277100   6.763   1.488   4.893 -2.0231 -2.4310  1.4655
18537TIP3   OH277101   2.780   2.471   5.338 -0.2938 -0.0618  0.4479
18537TIP3    H177102   2.711   2.425   5.291  0.5114  0.4826 -1.3507
18537TIP3    H277103   2.810   2.408   5.403  0.8710 -2.2587 -2.0223
18538TIP3   OH277104   2.977   2.546  15.409 -0.0004 -0.0389 -0.6949
18538TIP3    H177105   3.006   2.636  15.424  0.3757 -0.1603 -0.6668
18538TIP3    H277106   3.013   2.524  15.323 -0.4334 -0.0280 -0.8803
18539TIP3   OH277107   3.452   6.028   4.506 -0.0479 -0.0286  0.3439
18539TIP3    H177108   3.451   5.985   4.421  0.0923 -0.1713  0.4130
18539TIP3    H277109   3.360   6.035   4.531 -0.1060  0.3442  0.0166
18540TIP3   OH277110   2.462   1.698   4.339  0.6901  0.4163 -0.1586
18540TIP3    H177111   2.419   1.702   4.424 -1.2952 -1.0632 -1.0072
18540TIP3    H277112   2.518   1.620   4.345  0.3409  0.1523 -0.2753
18541TIP3   OH277113   2.933   6.515   3.990  0.6042 -0.0449  0.4508
18541TIP3    H177114   3.022   6.529   3.957  0.3515 -0.3003 -0.3762
18541TIP3    H277115   2.939   6.435   4.043  0.4618 -1.3613 -1.4081
18542TIP3   OH277116   4.402   0.553  13.871  0.1420  0.0711 -0.0089
18542TIP3    H177117   4.447   0.487  13.818 -0.5755 -0.4626  0.0182
18542TIP3    H277118   4.309   0.533  13.858 -0.0625  0.5890  0.6321
18543TIP3   OH277119   6.039   5.164   2.453  0.2079  0.2724  0.4170
18543TIP3    H177120   6.038   5.088   2.511  0.4237 -0.1763 -0.1601
18543TIP3    H277121   6.131   5.177   2.431  0.3076  1.3759  1.3663
18544TIP3   OH277122   2.246   4.454   4.822  0.2075  0.3635 -0.8710
18544TIP3    H177123   2.185   4.474   4.893  1.0809  1.4970 -0.4109
18544TIP3    H277124   2.320   4.411   4.866 -0.4449 -1.4941 -1.4905
18545TIP3   OH277125   0.655   6.025  13.827 -0.6743  0.2203  0.0868
18545TIP3    H177126   0.628   6.020  13.919 -1.7932 -0.0087 -0.2465
18545TIP3    H277127   0.739   5.979  13.825 -1.2303 -0.8822  0.7736
18546TIP3   OH277128   0.627   3.775  10.611 -0.4735  0.3641  0.1514
18546TIP3    H177129   0.549   3.721  10.626 -0.0313 -0.0986  0.9017
18546TIP3    H277130   0.699   3.712  10.608 -0.0606  0.8355  0.0349
18547TIP3   OH277131   6.229   2.207  15.374 -0.8318 -0.4101 -0.0654
18547TIP3    H177132   6.236   2.298  15.344 -1.6760 -0.2773  0.1217
18547TIP3    H277133   6.316   2.170  15.358 -0.8902  0.0114 -1.5072
18548TIP3   OH277134   1.620   3.597  11.936  0.0945 -0.1244  0.1535
18548TIP3    H177135   1.638   3.585  11.842  0.9515 -0.4969  0.3567
18548TIP3    H277136   1.706   3.609  11.976 -0.1651 -1.0053  1.0300
18549TIP3   OH277137   5.294   1.525   2.825  0.5779  0.1441 -0.0270
18549TIP3    H177138   5.389   1.513   2.830  0.6589 -0.2289 -1.6985
18549TIP3    H277139   5.260   1.438   2.806 -0.2780 -0.0209  2.0409
18550TIP3   OH277140   6.575   6.461   1.708  0.0070  0.2364  0.3053
18550TIP3    H177141   6.665   6.429   1.712  0.2580  1.0408  2.5834
18550TIP3    H277142   6.534   6.408   1.640  1.7649 -1.2392  0.3157
18551TIP3   OH277143   4.855   5.600  15.223  0.0659 -0.2171  0.4475
18551TIP3    H177144   4.823   5.511  15.238 -0.4374 -0.3303 -1.1018
18551TIP3    H277145   4.950   5.593  15.231  0.0219 -0.8536  0.4871
18552TIP3   OH277146   1.782   1.746   0.081  0.9025  0.0863  0.0206
18552TIP3    H177147   1.698   1.791   0.075  1.1806  0.5107 -0.9859
18552TIP3    H277148   1.762   1.664   0.126 -0.4400 -0.6946 -1.8607
18553TIP3   OH277149   1.153   5.405   4.349 -0.4505  0.3009 -0.0550
18553TIP3    H177150   1.211   5.411   4.425  0.6581  1.1568 -0.9484
18553TIP3    H277151   1.174   5.321   4.309 -1.0184 -0.1411  0.5541
18554TIP3   OH277152   5.620   2.004   0.767  0.2007 -0.6493 -0.2865
18554TIP3    H177153   5.588   2.046   0.687  0.3375 -0.2962 -0.1600
18554TIP3    H277154   5.634   2.077   0.828 -0.4382 -0.9660  0.2499
18555TIP3   OH277155   4.285   4.426  16.663 -0.5878 -0.2693 -0.5137
18555TIP3    H177156   4.310   4.334  16.674 -1.3933 -0.5816 -1.1807
18555TIP3    H277157   4.217   4.424  16.596 -0.5251  0.8324 -0.6264
18556TIP3   OH277158   5.401   2.278   1.038 -0.1067  0.6969 -0.2680
18556TIP3    H177159   5.432   2.317   1.120  0.2282  2.0957 -1.0344
18556TIP3    H277160   5.479   2.273   0.983 -0.4499  0.3614 -0.7315
18557TIP3   OH277161   6.000   3.384  15.934 -0.1888 -0.1849 -0.2251
18557TIP3    H177162   5.914   3.343  15.946 -0.3797  0.1203 -0.5310
18557TIP3    H277163   6.043   3.376  16.019 -0.9020  0.5374  0.2194
18558TIP3   OH277164   6.028   2.873   2.934  0.0964  0.7733  0.0030
18558TIP3    H177165   6.043   2.789   2.889 -1.4319  0.0213  0.8220
18558TIP3    H277166   6.086   2.869   3.010  0.0622  0.4703  0.0169
18559TIP3   OH277167   0.684   4.323   4.890 -0.4757 -0.2630 -0.4868
18559TIP3    H177168   0.658   4.375   4.966 -1.6727 -1.3061 -0.1581
18559TIP3    H277169   0.740   4.382   4.839 -2.1950  1.5346 -0.3980
18560TIP3   OH277170   5.302   5.210  11.730  0.4671 -0.2597  0.5869
18560TIP3    H177171   5.262   5.127  11.757  1.6352 -1.3269 -0.8059
18560TIP3    H277172   5.253   5.235  11.652 -0.0763  0.5442  1.1731
18561TIP3   OH277173   6.457   2.456   0.523 -0.7438  0.3058  0.2457
18561TIP3    H177174   6.471   2.392   0.593 -0.3289  0.4179  0.2656
18561TIP3    H277175   6.393   2.414   0.465 -1.7257  0.5571  1.1286
18562TIP3   OH277176   3.339   1.215  14.059 -0.0304 -0.8188  0.1284
18562TIP3    H177177   3.245   1.219  14.040 -0.2646 -0.3029  1.3053
18562TIP3    H277178   3.380   1.203  13.973 -1.1919 -1.5365 -0.3600
18563TIP3   OH277179   3.434   2.956   2.490  0.1158 -0.3934 -0.1324
18563TIP3    H177180   3.393   3.030   2.446 -0.9627 -0.9117 -0.0282
18563TIP3    H277181   3.444   2.986   2.581  0.0282 -0.2360 -0.1727
18564TIP3   OH277182   2.877   3.541  11.927 -0.0663  0.3960  0.0992
18564TIP3    H177183   2.873   3.636  11.935 -0.4632  0.2825  1.4422
18564TIP3    H277184   2.823   3.508  11.999  0.6207 -0.8560  0.0714
18565TIP3   OH277185   4.724   1.823  14.088  0.1772  0.0355  0.5273
18565TIP3    H177186   4.652   1.796  14.145  0.5284  0.1156  1.0139
18565TIP3    H277187   4.690   1.811  13.999  0.3345 -2.0490  0.7117
18566TIP3   OH277188   0.271   6.729  16.101 -0.0963  0.1022 -0.3816
18566TIP3    H177189   0.241   6.730  16.192  0.6316  0.1533 -0.1353
18566TIP3    H277190   0.363   6.700  16.106  0.0189  0.3238 -1.0748
18567TIP3   OH277191   1.845   1.453   3.015 -0.0462  0.2426  0.2236
18567TIP3    H177192   1.819   1.440   3.106  2.3391 -3.1418  0.5960
18567TIP3    H277193   1.793   1.389   2.966  1.4033 -0.6807 -0.1692
18568TIP3   OH277194   1.121   6.171  13.163 -0.2620 -0.3554  0.2289
18568TIP3    H177195   1.116   6.257  13.122  0.7333 -0.6160 -0.4954
18568TIP3    H277196   1.132   6.189  13.256 -0.4323  0.2934  0.1259
18569TIP3   OH277197   1.040   1.087  12.969  0.6877 -0.5474  0.0628
18569TIP3    H177198   0.990   1.168  12.976 -1.1007 -1.5501 -0.2666
18569TIP3    H277199   1.029   1.059  12.878 -0.2373 -2.0271  0.5831
18570TIP3   OH277200   2.130   3.055   5.948  0.0403 -1.0873 -0.2997
18570TIP3    H177201   2.133   3.090   6.038 -2.1448  2.4435 -1.3955
18570TIP3    H277202   2.079   2.974   5.956 -1.0805 -0.2720  1.5474
18571TIP3   OH277203   1.739   4.324   4.381 -0.2548 -0.2685 -0.6560
18571TIP3    H177204   1.808   4.337   4.317 -0.6052 -3.8256 -1.9446
18571TIP3    H277205   1.784   4.318   4.466  0.8663 -1.0854 -1.2922
18572TIP3   OH277206   3.605   3.735  15.815  0.3357  0.2824  0.2913
18572TIP3    H177207   3.518   3.763  15.788  0.9886  0.4292 -1.8959
18572TIP3    H277208   3.633   3.801  15.879 -0.0767  1.8814 -1.1148
18573TIP3   OH277209   0.844   6.784   0.197  0.2165  0.6453  0.6888
18573TIP3    H177210   0.769   6.816   0.146 -1.3831 -0.0061  2.5202
18573TIP3    H277211   0.920   6.824   0.155 -0.9419  0.0239 -2.3029
18574TIP3   OH277212   1.640   3.806   4.999 -0.7491  0.3519  0.8583
18574TIP3    H177213   1.618   3.872   4.933  1.4252  1.1319  0.8273
18574TIP3    H277214   1.595   3.727   4.970 -0.5611  0.9130 -1.1055
18575TIP3   OH277215   0.160   5.794   0.068  0.0692 -0.2623 -0.1406
18575TIP3    H177216   0.182   5.706   0.099  0.0512 -0.2932 -0.2149
18575TIP3    H277217   0.158   5.786  -0.027  0.3981 -0.1021 -0.1645
18576TIP3   OH277218   0.508   3.192   4.551  0.1362  0.1959  0.1049
18576TIP3    H177219   0.414   3.177   4.558 -0.0530  1.2670  0.0017
18576TIP3    H277220   0.521   3.229   4.464  0.5478  0.8053  0.4208
18577TIP3   OH277221   3.710   6.702  15.209  0.3733 -0.0649 -0.1886
18577TIP3    H177222   3.804   6.712  15.223  0.6048 -0.4708 -1.3600
18577TIP3    H277223   3.671   6.781  15.246  1.1749  0.1369  0.2401
18578TIP3   OH277224   6.687   1.053  13.942 -0.6081  0.6079 -0.7115
18578TIP3    H177225   6.777   1.075  13.967 -0.1469  0.2528 -1.9363
18578TIP3    H277226   6.678   0.960  13.962 -1.0983  0.8932  0.4568
18579TIP3   OH277227   2.276   6.224   3.927 -0.1121 -0.3533  0.0258
18579TIP3    H177228   2.191   6.197   3.964 -0.3720  1.8284  1.2053
18579TIP3    H277229   2.253   6.290   3.862  0.5869 -1.4715 -1.3976
18580TIP3   OH277230   1.431   3.135  15.270 -0.2913 -0.0085  0.0190
18580TIP3    H177231   1.491   3.098  15.206 -0.2380  0.0932  0.0105
18580TIP3    H277232   1.469   3.219  15.294 -0.5071  0.1245 -0.0989
18581TIP3   OH277233   4.099   3.919  15.520 -0.2685 -0.1675 -0.0194
18581TIP3    H177234   4.098   3.947  15.429  1.3749 -1.2943 -0.4360
18581TIP3    H277235   4.020   3.866  15.530 -1.0477  0.8970 -0.4505
18582TIP3   OH277236   1.193   0.200   3.855 -0.2119  0.1581 -0.0484
18582TIP3    H177237   1.197   0.271   3.919 -0.0498  2.3302 -2.3037
18582TIP3    H277238   1.103   0.169   3.859 -0.7896  1.7281 -0.2036
18583TIP3   OH277239   1.384   5.006  14.458  0.2365  0.1899 -0.1976
18583TIP3    H177240   1.334   4.931  14.489 -1.3403  0.9126 -0.8887
18583TIP3    H277241   1.413   5.050  14.538  1.9221 -1.5735  0.2242
18584TIP3   OH277242   5.012   5.110   0.135 -0.7428  0.5603 -0.1033
18584TIP3    H177243   4.946   5.041   0.131 -0.4663  0.2859  0.0250
18584TIP3    H277244   5.095   5.064   0.125 -0.4909  0.7436  1.0094
18585TIP3   OH277245   0.636   0.949   2.685  0.5579  1.0632 -0.7070
18585TIP3    H177246   0.725   0.925   2.711 -0.4671 -3.9339 -0.8975
18585TIP3    H277247   0.632   0.929   2.592 -0.7125  1.4275 -0.7449
18586TIP3   OH277248   4.869   0.271  16.550  0.2285 -0.1758 -0.0593
18586TIP3    H177249   4.956   0.297  16.580  0.8581 -2.0147 -0.1867
18586TIP3    H277250   4.883   0.228  16.466 -0.7251 -1.0008  0.1789
18587TIP3   OH277251   0.693   5.865   5.002 -0.2695  0.5464  0.1679
18587TIP3    H177252   0.782   5.890   4.978 -0.1742 -0.2731 -0.3780
18587TIP3    H277253   0.694   5.769   5.001 -0.6805  0.4838  1.9273
18588TIP3   OH277254   5.399   6.341  16.405  0.0807  0.6745 -0.3682
18588TIP3    H177255   5.404   6.421  16.457  1.2849  2.2511 -2.7500
18588TIP3    H277256   5.309   6.339  16.373  0.4433  1.9487 -1.5351
18589TIP3   OH277257   0.757   5.722   6.321 -0.3486 -0.0429  0.5209
18589TIP3    H177258   0.693   5.792   6.337 -0.5559  0.3256 -1.5791
18589TIP3    H277259   0.716   5.668   6.253  1.0719 -0.4811 -0.0272
18590TIP3   OH277260   4.687   4.747   5.313 -0.0216  0.0589  0.0751
18590TIP3    H177261   4.602   4.730   5.272  0.3754  1.4015 -1.4238
18590TIP3    H277262   4.671   4.736   5.407 -1.6303 -0.5403 -0.2333
18591TIP3   OH277263   0.374   1.811   4.944 -0.3686 -0.0043  0.4951
18591TIP3    H177264   0.398   1.725   4.979  0.6820  0.2688  0.4874
18591TIP3    H277265   0.280   1.805   4.926 -0.2623 -1.2020  0.3131
18592TIP3   OH277266   2.726   3.042   1.455 -0.2904 -0.6633 -0.5697
18592TIP3    H177267   2.713   2.947   1.465 -2.3286 -0.3066  0.8564
18592TIP3    H277268   2.733   3.056   1.361  2.3063 -2.4419 -0.7448
18593TIP3   OH277269   0.156   0.227   4.980 -0.1022  0.0906 -0.3223
18593TIP3    H177270   0.133   0.135   4.993  0.6065 -0.0305  0.1240
18593TIP3    H277271   0.245   0.235   5.015 -0.5729  1.1931  0.7070
18594TIP3   OH277272   4.492   1.390  13.295 -0.1607 -0.0228  0.2862
18594TIP3    H177273   4.514   1.313  13.347  0.0779 -0.4551 -0.4485
18594TIP3    H277274   4.561   1.453  13.316  1.6040 -1.2045 -1.6421
18595TIP3   OH277275   3.665   2.901  15.976 -0.2240  0.1376 -0.1945
18595TIP3    H177276   3.582   2.874  16.016 -0.3149  0.6594 -0.0129
18595TIP3    H277277   3.694   2.975  16.029  0.3249  0.0070 -0.3038
18596TIP3   OH277278   1.053   1.140   2.125  0.0121 -0.0727 -0.1303
18596TIP3    H177279   0.964   1.177   2.126  0.2570  0.5235  0.2137
18596TIP3    H277280   1.067   1.116   2.034 -0.8580 -1.0638 -0.0278
18597TIP3   OH277281   0.507   3.877   4.926  0.2466 -0.7216 -0.0799
18597TIP3    H177282   0.414   3.857   4.922 -0.6548  1.6676  3.5918
18597TIP3    H277283   0.542   3.816   4.991  0.4934  0.4304  0.9038
18598TIP3   OH277284   5.307   4.093   6.099  0.1958 -0.2636 -0.4119
18598TIP3    H177285   5.213   4.077   6.108  0.1218  1.2026  2.4635
18598TIP3    H277286   5.317   4.126   6.009 -2.4126  1.5084 -0.1658
18599TIP3   OH277287   4.821   6.193  11.625  0.1917 -0.0613  0.3616
18599TIP3    H177288   4.823   6.257  11.697  0.5020 -0.5971  0.8392
18599TIP3    H277289   4.806   6.246  11.547 -0.4008  0.5067  0.8451
18600TIP3   OH277290   1.482   2.246   4.149 -0.2670 -0.0176  0.5423
18600TIP3    H177291   1.503   2.323   4.201 -0.0803 -1.0033  1.9737
18600TIP3    H277292   1.553   2.240   4.085 -1.7577  2.6219 -1.5893
18601TIP3   OH277293   3.837   1.202  16.074  0.4735  0.1412  0.6379
18601TIP3    H177294   3.876   1.277  16.118 -0.6623  1.2482 -0.1822
18601TIP3    H277295   3.745   1.203  16.100  0.3382 -0.7089  0.2504
18602TIP3   OH277296   0.859   4.907  16.513 -0.2585 -0.0618 -0.3322
18602TIP3    H177297   0.898   4.828  16.477  0.0412  0.0121 -0.1650
18602TIP3    H277298   0.775   4.878  16.549 -0.4943 -0.1692 -0.9395
18603TIP3   OH277299   2.400   2.404   3.394  0.3111 -0.1060  0.2076
18603TIP3    H177300   2.341   2.416   3.468  0.6894  1.2007  0.3162
18603TIP3    H277301   2.474   2.355   3.430 -0.8490 -2.1570 -0.0280
18604TIP3   OH277302   1.568   6.099   3.467 -0.0786 -0.4781 -0.1513
18604TIP3    H177303   1.520   6.073   3.388  0.8229  0.6366 -1.0950
18604TIP3    H277304   1.501   6.099   3.536 -1.0170 -0.8766 -1.0293
18605TIP3   OH277305   3.886   3.641   6.361  0.8015  0.0887 -0.1303
18605TIP3    H177306   3.814   3.625   6.299  1.0200  0.1799 -0.4097
18605TIP3    H277307   3.909   3.554   6.394 -1.7696  0.3058  2.6415
18606TIP3   OH277308   6.202   5.466  14.917 -0.2967 -0.0606 -0.0794
18606TIP3    H177309   6.292   5.470  14.951 -0.4024 -1.7890  0.4784
18606TIP3    H277310   6.171   5.557  14.922  1.2706  0.4997  0.0942
18607TIP3   OH277311   2.541   4.839   4.668 -0.4517  0.1832  0.2563
18607TIP3    H177312   2.565   4.891   4.746  1.9485 -0.0384 -0.2362
18607TIP3    H277313   2.523   4.751   4.702 -2.8255  0.8438  0.8927
18608TIP3   OH277314   3.327   1.929   3.051  0.4073  0.1153  0.0042
18608TIP3    H177315   3.409   1.879   3.060  0.2769 -0.2493 -0.7540
18608TIP3    H277316   3.327   1.988   3.126 -0.1991 -2.1161  1.8604
18609TIP3   OH277317   3.619   2.689  12.901 -0.0178 -0.0638 -0.0969
18609TIP3    H177318   3.665   2.753  12.847 -0.4820  0.2154 -0.1658
18609TIP3    H277319   3.652   2.604  12.871  1.4958  0.1634  0.8029
18610TIP3   OH277320   3.747   1.451   6.015  0.5501 -0.3752  0.3501
18610TIP3    H177321   3.819   1.512   5.998  0.5130  0.1399  1.8611
18610TIP3    H277322   3.710   1.432   5.929  2.5042 -0.6796 -0.4586
18611TIP3   OH277323   3.296   4.623  13.572 -0.9740  0.3404  0.0057
18611TIP3    H177324   3.324   4.710  13.598 -1.8065  0.3341  0.9602
18611TIP3    H277325   3.208   4.635  13.537 -0.7479  0.0042 -0.7150
18612TIP3   OH277326   6.740   6.488   1.308  0.7751 -0.7369 -0.3190
18612TIP3    H177327   6.831   6.513   1.293 -0.2041  3.6954 -0.2579
18612TIP3    H277328   6.733   6.483   1.403  0.4401  2.1215 -0.0921
18613TIP3   OH277329   0.197   1.094   3.339 -0.5160 -0.7488  0.2474
18613TIP3    H177330   0.237   1.039   3.406  1.6952  0.4836  0.0235
18613TIP3    H277331   0.214   1.047   3.257  3.1345  0.9874 -0.1915
18614TIP3   OH277332   0.632   5.168   2.202 -0.1792 -0.3178 -0.2908
18614TIP3    H177333   0.544   5.167   2.241 -0.4419  0.4910 -0.8403
18614TIP3    H277334   0.633   5.246   2.146  0.8191 -0.4384 -0.4615
18615TIP3   OH277335   0.943   3.429   6.391 -0.1487  0.3394  0.2936
18615TIP3    H177336   1.007   3.489   6.354  0.6489 -0.0231  1.0504
18615TIP3    H277337   0.859   3.473   6.379  0.3172  1.1455 -0.0721
18616TIP3   OH277338   0.583   0.461  11.634  0.4110 -0.0360  0.0263
18616TIP3    H177339   0.625   0.383  11.598  1.2335  0.4019  0.0026
18616TIP3    H277340   0.628   0.476  11.717  0.0286  0.2221  0.1885
18617TIP3   OH277341   0.492   0.415   5.566  0.4940  0.0478  0.3587
18617TIP3    H177342   0.399   0.406   5.544  0.4077 -0.3106  0.8513
18617TIP3    H277343   0.493   0.426   5.661  0.9876 -0.4202  0.4078
18618TIP3   OH277344   3.551   2.082  12.940 -0.0749  0.3941  0.0323
18618TIP3    H177345   3.469   2.073  12.892 -1.1908 -0.8096  1.9785
18618TIP3    H277346   3.556   2.001  12.992  2.1932  0.5980  0.2106
18619TIP3   OH277347   4.488   0.543  14.321 -0.0310  0.2470  0.1220
18619TIP3    H177348   4.420   0.608  14.338  1.5900  2.8411 -2.3119
18619TIP3    H277349   4.442   0.469  14.281 -1.7006  0.7823  0.9535
18620TIP3   OH277350   0.533   2.377  14.149 -0.1642 -0.0885 -0.0856
18620TIP3    H177351   0.460   2.317  14.162  0.3750 -1.1136 -1.5082
18620TIP3    H277352   0.491   2.462  14.132 -0.9186  0.3724  3.3545
18621TIP3   OH277353   6.035   2.623   2.808 -0.5815  0.1084  0.1783
18621TIP3    H177354   6.091   2.574   2.747 -1.2316  0.8637 -1.0799
18621TIP3    H277355   5.969   2.559   2.837  0.3330 -0.5230  0.8994
18622TIP3   OH277356   6.164   3.385   4.591  0.2580 -0.5579  0.2125
18622TIP3    H177357   6.122   3.356   4.510 -0.6162  0.6937  0.1895
18622TIP3    H277358   6.170   3.480   4.582  0.3381 -0.4227  1.5334
18623TIP3   OH277359   3.006   1.765   2.497 -0.9448  0.2401 -0.2371
18623TIP3    H177360   3.030   1.850   2.535 -0.7632  1.1809 -2.3398
18623TIP3    H277361   3.089   1.723   2.478 -0.9984  0.4438 -0.9663
18624TIP3   OH277362   2.896   6.820   6.077  0.1807  0.2314 -0.6400
18624TIP3    H177363   2.957   6.750   6.052 -1.3741 -1.5128  0.2097
18624TIP3    H277364   2.876   6.865   5.995 -0.9310 -2.1546 -1.7856
18625TIP3   OH277365   2.499   6.390   3.544  1.0242  0.1192 -0.0160
18625TIP3    H177366   2.519   6.319   3.483 -2.5052 -2.0465  1.0760
18625TIP3    H277367   2.424   6.436   3.505  1.0786  1.0781  0.9517
18626TIP3   OH277368   2.802   2.037  11.262  0.2716 -0.2234  0.0792
18626TIP3    H177369   2.783   1.958  11.212  0.5639 -0.8479  0.9321
18626TIP3    H277370   2.852   2.092  11.202 -1.7972  0.2935 -1.2775
18627TIP3   OH277371   3.518   4.119  12.149 -0.2266  0.0186 -0.7259
18627TIP3    H177372   3.438   4.120  12.202 -0.0084  0.3549 -0.4013
18627TIP3    H277373   3.572   4.050  12.189 -0.0585  0.2782 -0.5062
18628TIP3   OH277374   3.755   2.410   2.127  0.1075 -0.5890  0.2966
18628TIP3    H177375   3.756   2.471   2.053  2.7873 -0.6249  0.2107
18628TIP3    H277376   3.709   2.332   2.093 -0.7556  0.2503 -0.5336
18629TIP3   OH277377   0.606   4.085  13.949  0.2684 -0.3381  0.2330
18629TIP3    H177378   0.697   4.059  13.964 -0.0885 -0.1877  3.0852
18629TIP3    H277379   0.596   4.167  13.998 -1.8386 -1.2428  1.4003
18630TIP3   OH277380   0.681   6.725  11.938 -0.0422 -0.2017 -0.0374
18630TIP3    H177381   0.678   6.806  11.989  1.4642 -0.1100 -0.0279
18630TIP3    H277382   0.770   6.691  11.953 -0.6996 -1.9632  0.1251
18631TIP3   OH277383   0.278   6.605   2.229  0.1743 -0.1326 -0.5384
18631TIP3    H177384   0.265   6.681   2.171 -1.4484 -0.5852 -0.8237
18631TIP3    H277385   0.339   6.549   2.181  1.1682  0.8406 -0.4561
18632TIP3   OH277386   1.182   1.265  13.559 -0.3130  0.4556  0.5029
18632TIP3    H177387   1.203   1.172  13.568  1.0554  0.7067  0.1547
18632TIP3    H277388   1.158   1.275  13.467 -1.5688  0.2532  0.7970
18633TIP3   OH277389   2.004   6.765   3.041 -0.0404 -0.3008 -0.3622
18633TIP3    H177390   2.044   6.702   3.102  0.0549 -0.8266 -0.9562
18633TIP3    H277391   1.952   6.710   2.982 -1.8210  0.3701  0.5001
18634TIP3   OH277392   4.347   3.278  10.378 -0.1240 -0.3411  0.3593
18634TIP3    H177393   4.255   3.287  10.352  0.2821 -0.8819 -1.4058
18634TIP3    H277394   4.389   3.358  10.347  0.5462 -1.3878 -1.6804
18635TIP3   OH277395   0.921   6.740   3.627  0.4458  0.4250 -0.0611
18635TIP3    H177396   0.926   6.805   3.697  1.4602 -0.9200  1.1853
18635TIP3    H277397   1.010   6.706   3.619  0.5296  1.0037 -2.5390
18636TIP3   OH277398   0.281   3.081  12.673  0.0852  0.2924 -0.5333
18636TIP3    H177399   0.244   3.053  12.756 -1.0715  0.1836 -1.0653
18636TIP3    H277400   0.206   3.093  12.615  0.7121  2.0374 -1.0716
18637TIP3   OH277401   0.690   5.367   4.608 -0.3806 -0.5597 -0.0428
18637TIP3    H177402   0.781   5.370   4.637  0.3654  1.5891 -2.2782
18637TIP3    H277403   0.640   5.404   4.682  1.0768  1.9378 -0.1780
18638TIP3   OH277404   1.992   5.968   6.378 -0.2775 -0.9014 -0.0447
18638TIP3    H177405   2.001   5.942   6.470 -1.5377 -0.3900  0.2306
18638TIP3    H277406   2.082   5.970   6.345  0.1931 -1.0028  1.1955
18639TIP3   OH277407   4.527   6.710   2.563 -0.5787 -0.3370  0.1796
18639TIP3    H177408   4.523   6.729   2.470 -1.4119  0.4543  0.3673
18639TIP3    H277409   4.615   6.737   2.590 -0.4959 -0.1555 -0.2770
18640TIP3   OH277410   5.283   1.272  12.795 -0.3422  0.2275 -0.1533
18640TIP3    H177411   5.373   1.240  12.794 -0.5356 -0.3230 -1.2060
18640TIP3    H277412   5.287   1.352  12.846  1.1968  1.4722 -2.0757
18641TIP3   OH277413   3.068   2.386  13.987 -0.3927 -0.1072 -0.4998
18641TIP3    H177414   3.111   2.375  13.902 -1.5407  2.1473 -1.4505
18641TIP3    H277415   2.999   2.320  13.987 -0.8638  0.3475 -1.6785
18642TIP3   OH277416   0.723   1.348   2.999 -0.5052 -0.6240 -0.4855
18642TIP3    H177417   0.667   1.272   2.984  0.4644 -1.3851 -0.2885
18642TIP3    H277418   0.767   1.330   3.082 -1.6521  1.0170  0.5559
18643TIP3   OH277419   2.221   4.877  14.615 -0.0472 -0.2408  0.7318
18643TIP3    H177420   2.214   4.972  14.615  0.9120 -0.1360 -0.7873
18643TIP3    H277421   2.141   4.847  14.659 -0.8526  1.2269  0.3234
18644TIP3   OH277422   1.362   3.621  15.995  0.4827  0.0874  0.3610
18644TIP3    H177423   1.310   3.692  16.033 -1.3890 -1.8724  1.6909
18644TIP3    H277424   1.321   3.605  15.910  0.1879 -0.1335  0.5439
18645TIP3   OH277425   2.143   2.410  14.123  0.0167 -0.4584  0.2556
18645TIP3    H177426   2.144   2.475  14.053  1.8705 -0.1106  0.5350
18645TIP3    H277427   2.063   2.427  14.171  0.1480  1.2361 -0.0494
18646TIP3   OH277428   1.841   4.553   3.055 -0.1292  0.3531  0.2725
18646TIP3    H177429   1.787   4.501   3.115  1.6657  0.1085  1.7546
18646TIP3    H277430   1.778   4.609   3.009 -1.9523 -1.8653 -0.1499
18647TIP3   OH277431   1.946   0.532   0.203 -0.0746 -0.6029  0.2035
18647TIP3    H177432   1.969   0.458   0.259  0.5661 -1.7440 -1.4872
18647TIP3    H277433   1.879   0.579   0.252  0.8991 -1.1815  2.1764
18648TIP3   OH277434   2.844   4.941   6.192 -0.1772  0.3771  0.1288
18648TIP3    H177435   2.752   4.925   6.171  0.2851  0.7259 -2.6342
18648TIP3    H277436   2.877   4.855   6.219 -0.5200 -0.7502 -2.6195
18649TIP3   OH277437   3.964   5.366  13.078 -0.0464  0.0933  0.1031
18649TIP3    H177438   4.008   5.400  13.000  0.1862 -0.2755  0.0729
18649TIP3    H277439   3.950   5.444  13.133  0.8951  0.1803  0.2356
18650TIP3   OH277440   3.960   5.159  16.722 -0.2409  0.2148 -0.3339
18650TIP3    H177441   3.867   5.181  16.727 -0.2058  0.6402 -1.2922
18650TIP3    H277442   3.967   5.100  16.648 -0.0749 -1.8074  1.2068
18651TIP3   OH277443   0.174   0.133   2.676  0.0301  0.7418  0.0772
18651TIP3    H177444   0.222   0.095   2.750  0.4526  0.2308 -0.4518
18651TIP3    H277445   0.131   0.210   2.713 -0.3187  0.1186  1.0275
18652TIP3   OH277446   5.156   1.728   1.519 -0.0845  0.6381  0.8408
18652TIP3    H177447   5.163   1.660   1.586 -0.1921 -0.0715  0.1438
18652TIP3    H277448   5.222   1.793   1.543  1.3236 -0.6120  0.4828
18653TIP3   OH277449   5.994   1.552   3.336  0.0988  0.4022 -0.0468
18653TIP3    H177450   5.907   1.582   3.308 -1.1885 -0.8521  2.3153
18653TIP3    H277451   5.985   1.456   3.340  1.7113  0.2333 -0.0388
18654TIP3   OH277452   4.992   0.028   2.650  0.0236  0.6462 -0.1833
18654TIP3    H177453   5.002   0.009   2.556 -0.4502  1.1231 -0.3326
18654TIP3    H277454   4.989  -0.058   2.691 -0.5425  0.4148 -0.6878
18655TIP3   OH277455   0.161   6.301   1.292 -0.2584  0.0613  0.4014
18655TIP3    H177456   0.197   6.301   1.381  1.0066  1.2256 -0.0712
18655TIP3    H277457   0.106   6.223   1.289 -0.2156 -0.0917  2.1534
18656TIP3   OH277458   1.848   6.224  12.750 -0.5250 -0.3117  0.1155
18656TIP3    H177459   1.941   6.239  12.766 -0.9717 -0.6895  3.7525
18656TIP3    H277460   1.824   6.291  12.686  2.0477  0.2268 -0.4246
18657TIP3   OH277461   3.181   5.286   6.246  0.1451 -0.1067  1.0828
18657TIP3    H177462   3.230   5.215   6.205 -0.3611  1.1687 -1.9440
18657TIP3    H277463   3.089   5.259   6.237 -0.1365  1.3975 -1.2564
18658TIP3   OH277464   4.595   0.444   2.173 -0.1402 -0.7404 -0.4149
18658TIP3    H177465   4.611   0.523   2.121 -0.1456 -1.0501 -0.8958
18658TIP3    H277466   4.649   0.377   2.131  0.9209 -0.6802  0.7994
18659TIP3   OH277467   5.109   5.869   6.913  0.6155  0.0383  0.1209
18659TIP3    H177468   5.088   5.961   6.925 -2.5755 -0.2234 -2.0279
18659TIP3    H277469   5.042   5.823   6.964  0.8102 -1.0444 -0.5657
18660TIP3   OH277470   6.232   2.288  13.416  0.7576 -0.7065  0.0639
18660TIP3    H177471   6.153   2.310  13.466  0.2956 -2.3275  0.1112
18660TIP3    H277472   6.209   2.306  13.325  0.0787 -1.7531  0.0074
18661TIP3   OH277473   1.155   5.344  10.390  0.2067 -0.7032  0.1480
18661TIP3    H177474   1.108   5.263  10.372  0.9289 -1.2169  0.5576
18661TIP3    H277475   1.103   5.387  10.458 -1.1875  0.0835 -1.3319
18662TIP3   OH277476   1.767   4.113   2.299 -0.2459 -0.3129 -0.3585
18662TIP3    H177477   1.804   4.025   2.295 -0.1043 -0.6806  4.0619
18662TIP3    H277478   1.841   4.172   2.285 -0.1122 -0.8588 -2.1045
18663TIP3   OH277479   2.067   6.823  15.898  0.0899 -0.3458 -0.4328
18663TIP3    H177480   2.122   6.888  15.854  1.1548 -1.5767 -1.0084
18663TIP3    H277481   1.980   6.863  15.903  0.9276  1.4806  0.1011
18664TIP3   OH277482   0.565   3.594  14.451  0.1350 -0.0343 -0.5131
18664TIP3    H177483   0.488   3.594  14.508  0.0375 -0.8072 -0.6357
18664TIP3    H277484   0.581   3.687  14.433 -0.7452  0.1417 -0.4502
18665TIP3   OH277485   5.586   5.973  13.193  0.1103 -0.3525  0.1054
18665TIP3    H177486   5.669   6.021  13.199 -0.1538  0.2175 -0.6287
18665TIP3    H277487   5.609   5.882  13.213  1.1340 -0.4069 -1.1670
18666TIP3   OH277488   2.626   2.990  16.713  0.3301 -0.1485 -0.3637
18666TIP3    H177489   2.547   2.966  16.761 -0.1462  0.8455 -0.6164
18666TIP3    H277490   2.652   3.074  16.750 -0.5012  1.0492 -2.3266
18667TIP3   OH277491   3.779   0.127  12.804 -0.1655 -0.1533  0.8412
18667TIP3    H177492   3.868   0.124  12.768 -0.0578 -0.1228  1.1056
18667TIP3    H277493   3.725   0.082  12.738  0.2948 -1.6018  1.4191
18668TIP3   OH277494   6.348   1.611  12.581  0.2353  0.3985  0.3061
18668TIP3    H177495   6.403   1.548  12.628  2.4876  0.1178 -2.4120
18668TIP3    H277496   6.272   1.561  12.552  0.1576 -0.0844  1.3195
18669TIP3   OH277497   5.425   4.625   4.055 -0.6728 -0.0113  0.2513
18669TIP3    H177498   5.512   4.658   4.077 -0.8582 -0.5377  1.9352
18669TIP3    H277499   5.369   4.702   4.054 -0.2160  0.3193 -0.7610
18670TIP3   OH277500   6.836   6.674  15.088 -0.3685 -0.1986  0.2317
18670TIP3    H177501   6.763   6.620  15.058 -0.0630 -2.0351  2.5496
18670TIP3    H277502   6.914   6.620  15.072  0.1224  0.2400  1.0607
18671TIP3   OH277503   6.708   4.301  13.875 -0.5215  0.7710 -0.1999
18671TIP3    H177504   6.634   4.243  13.858  0.2432 -0.5891  0.8669
18671TIP3    H277505   6.756   4.303  13.792 -1.0431  0.5979 -0.5097
18672TIP3   OH277506   2.490   5.002   2.815 -0.3121  0.2109  0.7090
18672TIP3    H177507   2.517   4.918   2.853  1.2479 -0.2560 -1.2500
18672TIP3    H277508   2.419   4.980   2.755  0.9216  0.0283 -0.7490
18673TIP3   OH277509   0.987   2.821  12.927 -0.5847  0.3048  0.0023
18673TIP3    H177510   0.994   2.728  12.904 -2.2046 -0.7048  2.9364
18673TIP3    H277511   0.896   2.832  12.955 -0.1511  2.5054  0.7713
18674TIP3   OH277512   4.521   5.653  13.289 -0.4577 -0.3046  0.2712
18674TIP3    H177513   4.542   5.584  13.352 -1.0313 -0.9810 -0.2630
18674TIP3    H277514   4.605   5.677  13.250 -0.2172 -0.4878  0.6686
18675TIP3   OH277515   1.619   5.159   3.275  0.0580 -0.4696  0.3683
18675TIP3    H177516   1.593   5.069   3.296 -0.3899 -0.8297 -1.5574
18675TIP3    H277517   1.540   5.198   3.237  0.1857  0.8320  1.3795
18676TIP3   OH277518   4.076   3.972   3.945  0.3120 -0.1646  0.3074
18676TIP3    H177519   4.134   3.919   3.999  0.8981 -0.7107 -0.8146
18676TIP3    H277520   4.068   4.055   3.993  0.8645 -0.5997  1.1818
18677TIP3   OH277521   1.078   3.406  16.183  0.8824 -0.1018 -0.3329
18677TIP3    H177522   1.050   3.315  16.177  1.4664 -0.3817  0.8542
18677TIP3    H277523   1.012   3.455  16.134 -0.2652 -1.0085  0.2692
18678TIP3   OH277524   1.148   3.248   3.256  0.2034  0.0898  0.2450
18678TIP3    H177525   1.098   3.169   3.275 -0.4999  0.0015 -1.6816
18678TIP3    H277526   1.215   3.251   3.324  0.1925 -2.1067  0.4373
18679TIP3   OH277527   1.858   0.022   3.903 -0.3664  0.1205 -0.2145
18679TIP3    H177528   1.800   0.062   3.968 -0.4671 -0.0983 -0.1690
18679TIP3    H277529   1.801  -0.034   3.851  0.1695 -2.1195  1.4454
18680TIP3   OH277530   4.096   4.363  16.474 -0.6238  0.2912  0.6555
18680TIP3    H177531   4.010   4.402  16.460 -0.1829  1.4999  1.1160
18680TIP3    H277532   4.131   4.349  16.386 -0.4058  1.8848  0.4608
18681TIP3   OH277533   1.885   5.530  12.026 -0.0902 -0.3253 -0.1922
18681TIP3    H177534   1.840   5.572  11.953 -2.0936 -0.5117  0.8627
18681TIP3    H277535   1.940   5.598  12.063 -0.0057  0.1215 -1.1104
18682TIP3   OH277536   0.962   3.945  14.529  0.1793  0.2372 -0.7743
18682TIP3    H177537   0.910   4.025  14.518 -0.1207  0.0232 -0.9315
18682TIP3    H277538   1.002   3.954  14.615  0.3572  0.6775 -0.9026
18683TIP3   OH277539   3.186   3.753   5.397 -0.0983  0.1066  0.1639
18683TIP3    H177540   3.120   3.821   5.408  1.4348  1.5924  0.6177
18683TIP3    H277541   3.170   3.692   5.469 -0.0413  1.2780  1.2061
18684TIP3   OH277542   6.156   2.624  11.435 -1.1188 -0.0690 -0.0765
18684TIP3    H177543   6.097   2.549  11.422  0.9071 -1.6490 -0.7629
18684TIP3    H277544   6.132   2.685  11.366 -1.4640 -1.0078 -0.8187
18685TIP3   OH277545   1.269   3.997   0.107 -0.1700 -1.1950  0.6786
18685TIP3    H177546   1.188   3.946   0.108  0.2511 -1.8760  0.8114
18685TIP3    H277547   1.338   3.933   0.126  0.5864 -0.9525 -1.0792
18686TIP3   OH277548   1.485   5.671  15.400  0.1222 -0.1471  0.4201
18686TIP3    H177549   1.508   5.761  15.422  0.0297  0.1749 -0.7120
18686TIP3    H277550   1.531   5.617  15.464  1.2345  0.6456  0.3168
18687TIP3   OH277551   3.996   3.190  14.117  0.2753 -0.0150 -0.3308
18687TIP3    H177552   3.977   3.283  14.132 -0.1963 -0.3869  1.6090
18687TIP3    H277553   3.949   3.168  14.037  0.4625  1.4316 -0.8628
18688TIP3   OH277554   0.192   5.900  15.739  0.0737 -0.0778 -0.5588
18688TIP3    H177555   0.113   5.907  15.793  0.3091 -1.4029 -0.0115
18688TIP3    H277556   0.170   5.945  15.658 -1.8346 -1.7829 -1.0722
18689TIP3   OH277557   1.769   0.078   1.021  0.4456  0.2699 -0.1308
18689TIP3    H177558   1.859   0.054   1.000 -0.0965 -0.7902 -1.3620
18689TIP3    H277559   1.740   0.013   1.085 -0.2712 -1.0996 -1.7473
18690TIP3   OH277560   5.276   3.497  13.667 -0.2292  0.3754  0.3198
18690TIP3    H177561   5.245   3.425  13.721  0.6404  0.2014  0.6131
18690TIP3    H277562   5.365   3.513  13.698  0.6683 -0.3609 -1.6511
18691TIP3   OH277563   2.363   6.359  12.680  0.2910  0.0110  0.3630
18691TIP3    H177564   2.360   6.274  12.637 -0.0282  0.3177 -0.2374
18691TIP3    H277565   2.418   6.413  12.624  0.3715  0.2447  0.6613
18692TIP3   OH277566   5.384   2.608  12.600 -0.2258 -0.5641 -0.3024
18692TIP3    H177567   5.311   2.654  12.559  0.1764 -0.9630 -1.5270
18692TIP3    H277568   5.356   2.517  12.604 -0.2768 -0.5267  0.3824
18693TIP3   OH277569   5.085   6.547  15.710  0.1546  0.2304 -0.1209
18693TIP3    H177570   5.173   6.565  15.745  0.6133 -0.7782 -0.7172
18693TIP3    H277571   5.036   6.627  15.728  0.6174  0.0961  1.9884
18694TIP3   OH277572   3.885   6.481  16.458  0.5534 -0.0706 -0.3734
18694TIP3    H177573   3.915   6.445  16.374 -0.0086  0.9387 -1.0328
18694TIP3    H277574   3.965   6.496  16.508  0.9741  0.2095 -1.1127
18695TIP3   OH277575   2.794   6.566  17.032 -0.1540 -0.1527  0.4320
18695TIP3    H177576   2.795   6.658  17.057 -1.5826  0.3913 -1.3791
18695TIP3    H277577   2.854   6.561  16.958 -0.0502 -0.7070  0.5518
18696TIP3   OH277578   5.641   1.991   1.939  0.6932 -0.5245  0.4286
18696TIP3    H177579   5.723   2.037   1.921  2.1165 -1.8854  2.8771
18696TIP3    H277580   5.668   1.905   1.971 -1.7646 -1.6067 -0.1740
18697TIP3   OH277581   4.699   1.276  14.340 -0.2067  0.5375  0.1606
18697TIP3    H177582   4.645   1.258  14.263  0.6190 -0.4382 -0.2188
18697TIP3    H277583   4.776   1.321  14.305  0.5244 -0.5642  0.2810
18698TIP3   OH277584   2.748   1.818  13.002 -0.2499  0.2542  0.1071
18698TIP3    H177585   2.688   1.882  13.039 -0.0635  0.4291  0.1066
18698TIP3    H277586   2.824   1.869  12.972 -0.4227  0.1284 -0.5719
18699TIP3   OH277587   4.428   6.653   3.151  0.1048 -0.0804 -0.4862
18699TIP3    H177588   4.383   6.572   3.177  1.4125 -0.8531 -0.5469
18699TIP3    H277589   4.369   6.723   3.179 -0.3523 -0.9976  0.9663
18700TIP3   OH277590   5.490   2.455   5.579 -0.6279  0.5985  0.1349
18700TIP3    H177591   5.418   2.396   5.601  1.0217 -1.7948 -0.4614
18700TIP3    H277592   5.457   2.506   5.505 -2.5629  1.4185  1.4905
18701TIP3   OH277593   3.424   5.228   3.322 -0.2354 -0.3541 -0.1295
18701TIP3    H177594   3.491   5.236   3.254 -2.0244 -2.1062 -2.2644
18701TIP3    H277595   3.470   5.249   3.403  3.3296 -2.7940 -1.2543
18702TIP3   OH277596   1.403   3.563  13.698  0.4979 -0.5081 -0.0292
18702TIP3    H177597   1.374   3.645  13.659 -0.6571 -0.8679  0.0313
18702TIP3    H277598   1.481   3.586  13.747 -0.5398  0.8495  1.0838
18703TIP3   OH277599   1.040   0.052  15.741 -0.2664  0.0545  0.2518
18703TIP3    H177600   1.111   0.099  15.698  0.0806  0.0546  0.8250
18703TIP3    H277601   0.989   0.120  15.786 -0.9097  0.1144 -0.5430
18704TIP3   OH277602   4.855   3.260  14.615 -0.2819  0.0754 -0.6145
18704TIP3    H177603   4.766   3.251  14.580 -0.3241 -2.4361 -0.0561
18704TIP3    H277604   4.909   3.206  14.557  1.3516  3.0726 -2.1320
18705TIP3   OH277605   5.459   6.432   0.436 -0.3633  0.0907  0.1244
18705TIP3    H177606   5.429   6.355   0.484 -2.2456 -0.6343 -2.0299
18705TIP3    H277607   5.436   6.506   0.492  0.6739 -0.8529  1.8415
18706TIP3   OH277608   0.906   0.532  14.181  0.3276  0.2759 -0.3461
18706TIP3    H177609   0.838   0.554  14.245 -0.1531  1.4194 -1.2190
18706TIP3    H277610   0.898   0.600  14.114  0.2213 -1.3838 -2.0914
18707TIP3   OH277611   2.885   5.653  11.757  0.4544  0.0983 -1.0637
18707TIP3    H177612   2.951   5.598  11.800  1.2910  0.1556 -2.2481
18707TIP3    H277613   2.810   5.594  11.745  1.1274 -0.6380 -1.7801
18708TIP3   OH277614   1.122   2.839   5.414 -0.2292  0.4172  0.4198
18708TIP3    H177615   1.139   2.812   5.505 -1.4605  0.7329  0.7629
18708TIP3    H277616   1.031   2.814   5.398 -0.0546  0.4501 -0.7072
18709TIP3   OH277617   1.815   3.029   5.355 -0.5121 -0.0333 -0.1551
18709TIP3    H177618   1.812   2.942   5.316 -5.4152  0.6640 -2.0466
18709TIP3    H277619   1.823   3.089   5.281  1.1958  1.2390  0.9816
18710TIP3   OH277620   4.416   1.837   4.580 -0.6512 -0.1350 -0.1460
18710TIP3    H177621   4.487   1.900   4.582 -0.1312 -0.7166 -0.0738
18710TIP3    H277622   4.458   1.752   4.596 -1.4377 -0.4057  0.6036
18711TIP3   OH277623   4.927   2.722  11.298  0.0451 -0.4321  0.8743
18711TIP3    H177624   4.998   2.787  11.301  0.4289 -0.8388  0.6177
18711TIP3    H277625   4.874   2.748  11.222 -1.3661  1.1859  2.3049
18712TIP3   OH277626   2.814   5.356  14.689 -0.5387  0.7279 -0.7398
18712TIP3    H177627   2.760   5.411  14.632 -1.1295 -0.7466 -1.6414
18712TIP3    H277628   2.800   5.392  14.777 -0.3112  2.4732 -1.3660
18713TIP3   OH277629   2.768   0.854  12.417 -0.2094 -0.0266 -0.0601
18713TIP3    H177630   2.864   0.862  12.423 -0.0669 -0.5814 -1.4441
18713TIP3    H277631   2.739   0.942  12.391  0.2766 -0.6741 -3.1192
18714TIP3   OH277632   1.009   2.513   5.328 -0.0415 -0.5744  0.2804
18714TIP3    H177633   0.974   2.546   5.410  1.4139 -2.2974  1.6839
18714TIP3    H277634   1.007   2.417   5.338  0.2657 -0.8280 -1.6680
18715TIP3   OH277635   6.653   3.828  13.552  0.9306 -0.1427 -0.0272
18715TIP3    H177636   6.589   3.756  13.558 -1.4094  1.8196 -0.0310
18715TIP3    H277637   6.621   3.882  13.481  2.1504  1.3795  0.5339
18716TIP3   OH277638   1.923   1.462  15.770 -0.2904  0.2461 -0.1680
18716TIP3    H177639   1.925   1.390  15.833  0.2867  0.0905 -0.3580
18716TIP3    H277640   2.004   1.453  15.721 -1.1615 -0.1981 -1.5763
18717TIP3   OH277641   1.648   0.279   2.805 -0.5660 -0.1188  0.0931
18717TIP3    H177642   1.646   0.353   2.744  0.0473  0.2308  0.4931
18717TIP3    H277643   1.582   0.300   2.870 -1.8359 -0.8985 -0.8979
18718TIP3   OH277644   0.098   2.127   4.976 -0.2724 -0.3899 -0.0370
18718TIP3    H177645   0.128   2.053   4.924  3.2588  0.6195  0.2747
18718TIP3    H277646   0.107   2.203   4.918 -3.0512  0.0005 -0.0960
18719TIP3   OH277647   2.273   1.397  15.895  0.7474 -0.2930  0.0413
18719TIP3    H177648   2.295   1.473  15.949 -0.0614  0.0450 -0.0916
18719TIP3    H277649   2.295   1.424  15.805 -1.6767  0.6997 -0.3420
18720TIP3   OH277650   0.558   3.457   2.888  0.0262 -0.8312  0.5369
18720TIP3    H177651   0.593   3.436   2.801  1.2729 -0.1412  0.8388
18720TIP3    H277652   0.470   3.419   2.888 -0.6192  0.4575 -1.5864
18721TIP3   OH277653   5.550   2.895  13.585  0.6737 -0.0821  0.0968
18721TIP3    H177654   5.562   2.982  13.547  3.0063 -0.5605 -0.3958
18721TIP3    H277655   5.475   2.858  13.538  0.0537  1.4132 -0.1268
18722TIP3   OH277656   5.177   6.790  12.455 -0.5956 -0.0500 -0.2415
18722TIP3    H177657   5.137   6.832  12.531 -0.6257 -0.3213 -0.1037
18722TIP3    H277658   5.186   6.698  12.481 -0.8041 -0.1869 -0.6472
18723TIP3   OH277659   5.281   5.636   4.376  0.7109 -0.1922  0.2172
18723TIP3    H177660   5.213   5.569   4.375  0.0089  0.4390 -2.6061
18723TIP3    H277661   5.251   5.700   4.441 -0.8663 -0.4607 -0.2152
18724TIP3   OH277662   2.352   0.506   3.092 -0.3689  0.7492 -0.2729
18724TIP3    H177663   2.258   0.519   3.074 -0.3502 -0.0412 -1.0274
18724TIP3    H277664   2.385   0.594   3.110 -1.7714  0.7684  2.7882
18725TIP3   OH277665   4.345   0.818   0.461  0.2436 -0.4304  0.2212
18725TIP3    H177666   4.440   0.810   0.473  0.2110 -1.3999 -0.0529
18725TIP3    H277667   4.335   0.856   0.374  0.3869 -2.0069 -0.5289
18726TIP3   OH277668   5.903   4.797  13.386  0.1499  0.3356  0.4293
18726TIP3    H177669   5.859   4.762  13.308 -0.0293  1.3016  0.0795
18726TIP3    H277670   5.995   4.801  13.361  0.2664 -0.4641  0.6987
18727TIP3   OH277671   1.511   0.661  16.219  0.6960  0.0502 -0.1698
18727TIP3    H177672   1.500   0.608  16.299 -2.3196 -0.4630 -0.7841
18727TIP3    H277673   1.494   0.599  16.148 -1.5140  1.4663 -0.9675
18728TIP3   OH277674   1.932   6.473  11.548 -0.3174 -0.0349  0.2480
18728TIP3    H177675   1.915   6.472  11.453  1.8818  0.6881 -0.2300
18728TIP3    H277676   1.870   6.536  11.583  1.2602  2.6409 -1.3662
18729TIP3   OH277677   2.912   2.974  10.524 -0.0751 -0.3162 -0.3875
18729TIP3    H177678   2.853   3.048  10.541  0.0199 -0.2650 -0.2833
18729TIP3    H277679   2.963   3.002  10.448  0.7704  0.2055  0.3598
18730TIP3   OH277680   1.879   0.406   4.957 -0.7367  0.1984 -0.2982
18730TIP3    H177681   1.797   0.454   4.945 -1.2923 -0.8476 -0.7680
18730TIP3    H277682   1.888   0.353   4.878  0.1170 -0.1162 -0.0023
18731TIP3   OH277683   1.796   3.397  15.770  0.3289 -0.2592  0.2356
18731TIP3    H177684   1.847   3.319  15.790  1.7943  1.0307  1.8376
18731TIP3    H277685   1.715   3.386  15.820 -0.1041 -1.3653 -0.6715
18732TIP3   OH277686   2.544   6.736  16.995  0.3533  0.6987  0.6697
18732TIP3    H177687   2.470   6.748  17.054 -1.1051 -1.2955 -0.6605
18732TIP3    H277688   2.507   6.741  16.907  1.4471 -1.8350 -0.0319
18733TIP3   OH277689   6.182   3.473  16.767 -0.5695 -0.1529  0.2191
18733TIP3    H177690   6.273   3.446  16.754  0.0586  0.9479  1.9478
18733TIP3    H277691   6.166   3.539  16.700 -0.2500 -0.6521 -0.3558
18734TIP3   OH277692   3.079   5.151  12.936  0.6594  0.2990 -0.1682
18734TIP3    H177693   3.036   5.235  12.922 -0.1788 -0.1410 -0.2811
18734TIP3    H277694   3.019   5.086  12.899  0.9375 -0.4189  0.5926
18735TIP3   OH277695   4.146   2.228  15.382 -0.3106  0.2461  0.5132
18735TIP3    H177696   4.220   2.227  15.322  0.2781  1.1952  1.1822
18735TIP3    H277697   4.168   2.297  15.445 -0.6869 -0.9953  2.0720
18736TIP3   OH277698   6.588   5.301  10.800 -0.2925  0.3426  0.0147
18736TIP3    H177699   6.661   5.340  10.848  0.6260 -1.0628 -0.1617
18736TIP3    H277700   6.606   5.321  10.708  0.1539 -0.4141 -0.0718
18737TIP3   OH277701   5.652   1.478   0.669  0.5373  0.0232  0.3597
18737TIP3    H177702   5.692   1.477   0.756 -2.1542 -2.3033  1.7307
18737TIP3    H277703   5.613   1.565   0.661 -0.2456 -0.1415  2.0623
18738TIP3   OH277704   4.191   1.334  14.934 -0.2354 -0.2487  0.2494
18738TIP3    H177705   4.100   1.318  14.910 -0.5540  1.0832  0.5065
18738TIP3    H277706   4.188   1.356  15.027  0.1890  0.8764  0.0226
18739TIP3   OH277707   2.579   4.509   5.671 -0.3906 -0.0404  0.4309
18739TIP3    H177708   2.567   4.579   5.735 -2.6677  0.1755 -0.1284
18739TIP3    H277709   2.579   4.429   5.724 -0.2050  0.2492  0.8782
18740TIP3   OH277710   3.980   1.567  15.188 -0.3141  0.3724 -0.0454
18740TIP3    H177711   3.890   1.589  15.211 -0.6792 -1.0192 -0.1124
18740TIP3    H277712   3.994   1.610  15.103 -0.7083  1.0660  0.2282
18741TIP3   OH277713   4.777   4.632   3.294  0.8162 -0.0535 -0.0056
18741TIP3    H177714   4.829   4.655   3.216  0.2019  0.7679 -0.1856
18741TIP3    H277715   4.711   4.571   3.260 -1.5899  2.8059 -0.9124
18742TIP3   OH277716   5.987   0.137   2.147 -0.1903 -0.5162  0.1512
18742TIP3    H177717   5.913   0.189   2.114  0.6766  0.3085 -0.5486
18742TIP3    H277718   6.012   0.181   2.229  1.1191  0.7695 -0.8953
18743TIP3   OH277719   4.487   5.944  14.936  0.0056 -0.0018 -0.3245
18743TIP3    H177720   4.477   5.953  14.841  1.4044  0.0111 -0.5040
18743TIP3    H277721   4.579   5.920  14.948  0.0923  0.8576  1.0823
18744TIP3   OH277722   6.405   6.391  15.271  0.4297  0.1895  0.3164
18744TIP3    H177723   6.369   6.320  15.324 -2.7280  0.1070 -1.6689
18744TIP3    H277724   6.499   6.386  15.285  0.1319 -2.8753  2.0958
18745TIP3   OH277725   6.299   5.220  14.374  0.7843 -0.3216  0.1143
18745TIP3    H177726   6.239   5.150  14.345 -2.1396  2.9016 -2.5942
18745TIP3    H277727   6.368   5.221  14.308  0.7322 -0.5207  0.0556
18746TIP3   OH277728   4.334   2.719  10.514 -0.2698  0.2224 -0.1387
18746TIP3    H177729   4.353   2.801  10.469 -2.8058  1.2613  0.4886
18746TIP3    H277730   4.322   2.655  10.444 -0.6042  0.9681 -0.7820
18747TIP3   OH277731   5.135   0.300  11.686 -0.0303  0.1765 -0.1756
18747TIP3    H177732   5.186   0.343  11.617 -1.6258  0.0651 -1.4782
18747TIP3    H277733   5.165   0.342  11.767  0.2421  1.9761 -1.1579
18748TIP3   OH277734   2.295   5.843   1.787 -0.4893  0.3431 -0.3591
18748TIP3    H177735   2.381   5.803   1.794 -0.7229  0.1584  2.0336
18748TIP3    H277736   2.258   5.805   1.707  0.6841 -1.4598 -0.0986
18749TIP3   OH277737   5.764   1.618   4.048 -0.4783 -0.3811  0.0660
18749TIP3    H177738   5.726   1.574   3.972 -2.8603 -1.1440  1.5620
18749TIP3    H277739   5.756   1.712   4.028 -1.2253 -0.5665 -0.5548
18750TIP3   OH277740   4.627   0.415  16.991  0.4705  0.0130 -0.0466
18750TIP3    H177741   4.573   0.362  16.933  0.7831 -1.5022  0.9899
18750TIP3    H277742   4.690   0.457  16.933 -0.6561  0.3651 -1.0547
18751TIP3   OH277743   5.222   3.459  16.358  0.1158  0.6365 -0.1619
18751TIP3    H177744   5.193   3.367  16.363 -0.0491  0.5947 -1.5553
18751TIP3    H277745   5.142   3.508  16.339  0.4138  0.9183 -0.6887
18752TIP3   OH277746   6.215   3.983   4.157  0.1948  0.3660 -0.4021
18752TIP3    H177747   6.247   3.947   4.240 -0.8667 -0.6534 -0.4108
18752TIP3    H277748   6.246   4.074   4.157  1.8266 -0.1534  0.2292
18753TIP3   OH277749   5.412   2.445  14.222  0.1832  0.0943  0.0847
18753TIP3    H177750   5.426   2.476  14.133 -1.1911  2.2084  0.5148
18753TIP3    H277751   5.319   2.422  14.225  0.5826 -1.6176  0.5543
18754TIP3   OH277752   2.560   3.794  16.980 -0.0229 -0.4238  0.1719
18754TIP3    H177753   2.591   3.874  16.937 -0.5662 -1.2666 -1.9167
18754TIP3    H277754   2.551   3.818  17.072 -2.3061  2.5980 -0.6797
18755TIP3   OH277755   4.356   3.559   2.944 -0.3931 -0.5336  0.0946
18755TIP3    H177756   4.348   3.603   3.029  2.4240  0.9480 -0.2852
18755TIP3    H277757   4.366   3.630   2.881 -0.5958 -1.6502 -1.2241
18756TIP3   OH277758   2.607   6.100  12.489  0.4869  0.0417  0.3367
18756TIP3    H177759   2.529   6.144  12.524  0.2031 -1.0274  1.1239
18756TIP3    H277760   2.623   6.142  12.405 -0.6112  0.6631  0.4140
18757TIP3   OH277761   1.553   5.101   5.048  0.2304 -0.2299  0.8197
18757TIP3    H177762   1.538   5.132   5.137 -0.8306  0.8000  0.3237
18757TIP3    H277763   1.607   5.023   5.057 -0.0038 -0.2288  2.3684
18758TIP3   OH277764   6.563   0.059   0.098 -0.3417 -0.0777  0.1184
18758TIP3    H177765   6.508   0.052   0.176 -0.5080  2.7462  0.3678
18758TIP3    H277766   6.648   0.026   0.126 -0.5086  0.5116  1.4260
18759TIP3   OH277767   3.710   0.054  16.211 -0.0866  0.1382 -0.6361
18759TIP3    H177768   3.727   0.131  16.265  0.8730 -1.9560  2.2570
18759TIP3    H277769   3.615   0.047  16.207 -0.1973  0.2059  1.1069
18760TIP3   OH277770   4.973   5.250  13.012  0.2763 -0.2786  0.0919
18760TIP3    H177771   5.047   5.228  12.956 -0.4351 -1.0985 -0.5578
18760TIP3    H277772   4.899   5.202  12.975 -1.1301  2.2909 -0.6840
18761TIP3   OH277773   2.636   1.291  10.792  0.2438 -0.0704 -0.4457
18761TIP3    H177774   2.591   1.254  10.868  1.6922 -0.5381  0.2048
18761TIP3    H277775   2.642   1.385  10.810 -1.0801  0.1154 -0.8725
18762TIP3   OH277776   0.345   6.235   6.461 -0.3455 -0.1593  0.5298
18762TIP3    H177777   0.437   6.231   6.487  0.0099 -0.0551 -0.6521
18762TIP3    H277778   0.323   6.146   6.437 -0.2674 -0.0055 -0.1194
18763TIP3   OH277779   2.594   3.142   0.848  0.0721  0.2087 -0.3107
18763TIP3    H177780   2.673   3.196   0.857 -0.4157  1.0473 -0.8248
18763TIP3    H277781   2.626   3.052   0.846  1.2806  0.5994 -2.8444
18764TIP3   OH277782   1.877   0.302   5.759  0.2498  0.0247  0.5319
18764TIP3    H177783   1.825   0.333   5.833  0.7674 -0.0135  0.9133
18764TIP3    H277784   1.942   0.371   5.746  0.3827 -0.1393  0.3323
18765TIP3   OH277785   4.199   3.643   2.247 -0.3698  0.4454  0.7097
18765TIP3    H177786   4.114   3.667   2.210 -0.1938  0.8389  0.5551
18765TIP3    H277787   4.227   3.721   2.294  0.3657  0.6607 -0.0717
18766TIP3   OH277788   0.209   2.374  14.887  0.1856 -0.2068 -0.0294
18766TIP3    H177789   0.221   2.335  14.800  3.6577 -0.7592  0.5387
18766TIP3    H277790   0.146   2.316  14.930 -0.2373 -0.9680 -1.5811
18767TIP3   OH277791   1.865   1.584   1.289 -0.5088  0.0988  0.7254
18767TIP3    H177792   1.939   1.591   1.349 -0.8013 -1.4613  1.3290
18767TIP3    H277793   1.873   1.495   1.253 -1.5619  0.2466  0.0915
18768TIP3   OH277794   0.732   5.521  16.762  0.4318 -0.4437 -1.2035
18768TIP3    H177795   0.677   5.592  16.729  0.5028 -0.1398 -0.6815
18768TIP3    H277796   0.749   5.466  16.685  0.4202  0.1316 -1.6257
18769TIP3   OH277797   6.151   3.987   5.463  0.0256  0.4233  0.0494
18769TIP3    H177798   6.177   4.075   5.437 -0.2259  0.5508  0.2330
18769TIP3    H277799   6.170   3.982   5.557  2.4598 -0.5703 -0.4107
18770TIP3   OH277800   5.568   1.975  14.363 -0.1691  0.2878  0.1204
18770TIP3    H177801   5.522   1.892  14.376 -0.8082  0.9236  2.2969
18770TIP3    H277802   5.614   1.964  14.280 -0.4442 -2.1343  0.2219
18771TIP3   OH277803   0.078   4.549  12.666 -0.0331 -0.1764 -0.4764
18771TIP3    H177804   0.034   4.613  12.611  0.1012 -0.8364 -1.3705
18771TIP3    H277805   0.164   4.588  12.685 -0.3576  0.3738 -0.1084
18772TIP3   OH277806   2.041   0.636  16.598 -0.0234 -0.4121  0.0601
18772TIP3    H177807   2.060   0.543  16.607  0.5352 -0.1799  1.5487
18772TIP3    H277808   2.121   0.680  16.628  0.1690  0.5619 -1.7199
18773TIP3   OH277809   2.238   0.116  12.427  0.0384 -0.0798 -0.0765
18773TIP3    H177810   2.273   0.139  12.513 -1.5862 -0.8399  0.8398
18773TIP3    H277811   2.273   0.183  12.369 -2.2504  3.2493  1.9685
18774TIP3   OH277812   2.630   3.146  17.138 -0.0420  0.4501  0.9365
18774TIP3    H177813   2.564   3.124  17.204  0.4628 -1.6521  0.8124
18774TIP3    H277814   2.586   3.206  17.079 -3.2726 -3.5835 -1.2654
18775TIP3   OH277815   2.249   1.492   2.229  0.2977 -0.4573 -0.1479
18775TIP3    H177816   2.298   1.425   2.181 -0.3582 -1.7394  0.8873
18775TIP3    H277817   2.299   1.504   2.310 -0.2579 -0.6517  0.2336
18776TIP3   OH277818   2.994   3.926  12.388 -1.0081 -0.3659 -0.0695
18776TIP3    H177819   3.070   3.869  12.393 -0.5141  0.3581  1.3328
18776TIP3    H277820   3.007   3.977  12.308 -0.1986 -0.4920 -0.0247
18777TIP3   OH277821   3.093   3.096   2.417  0.6056  0.1804 -0.0310
18777TIP3    H177822   3.089   3.088   2.512  0.6887 -0.6257 -0.0927
18777TIP3    H277823   3.007   3.068   2.386 -0.5972  3.3922 -0.0374
18778TIP3   OH277824   2.217   0.645   1.443  0.5741 -0.1092 -0.2819
18778TIP3    H177825   2.137   0.593   1.431  0.7002 -0.3285 -0.1718
18778TIP3    H277826   2.207   0.717   1.381  0.4884 -0.3707 -0.5786
18779TIP3   OH277827   3.491   0.637   5.032  0.1594  0.1499  0.0704
18779TIP3    H177828   3.468   0.584   4.955 -0.2877 -1.2934  1.1475
18779TIP3    H277829   3.510   0.724   4.997 -0.1346 -0.4466 -1.6544
18780TIP3   OH277830   1.214   2.129   0.310 -0.4858 -0.1898 -0.2073
18780TIP3    H177831   1.140   2.161   0.258 -1.1551  0.9801  1.4147
18780TIP3    H277832   1.184   2.045   0.344 -1.2648  0.4626  0.7756
18781TIP3   OH277833   2.039   3.043  13.750  0.1504  0.0734  0.4024
18781TIP3    H177834   1.970   2.986  13.782  0.6610 -0.8306 -0.0721
18781TIP3    H277835   2.069   3.003  13.668 -0.9315  2.1646 -1.1314
18782TIP3   OH277836   4.018   5.242  13.747  0.0533 -0.1845  0.0270
18782TIP3    H177837   4.092   5.295  13.718 -0.7374  0.3879 -1.0333
18782TIP3    H277838   3.947   5.264  13.686 -0.7081 -1.4372  0.4045
18783TIP3   OH277839   5.402   1.328  11.060 -0.3148  0.2245 -0.4987
18783TIP3    H177840   5.364   1.410  11.089  2.2070  1.0802  0.6460
18783TIP3    H277841   5.363   1.261  11.116  1.3558  1.3427  2.1745
18784TIP3   OH277842   1.922   6.334   3.997 -0.1306 -0.0087  0.2473
18784TIP3    H177843   1.886   6.360   3.912 -0.9037  0.1995  0.6364
18784TIP3    H277844   2.014   6.361   3.993  0.6917 -2.6253 -1.6679
18785TIP3   OH277845   4.158   5.156   5.229 -0.2553 -0.2324 -0.4915
18785TIP3    H177846   4.227   5.102   5.267  0.5551  2.2748  1.8719
18785TIP3    H277847   4.082   5.097   5.223  0.5612 -1.6475  1.9674
18786TIP3   OH277848   1.299   0.542   3.382 -0.1094  0.2032 -0.2097
18786TIP3    H177849   1.205   0.525   3.384 -0.2526  0.8853 -0.7254
18786TIP3    H277850   1.318   0.559   3.290  0.8400 -1.5848 -0.4015
18787TIP3   OH277851   3.555   0.814   0.413 -0.0461  0.1409 -0.4073
18787TIP3    H177852   3.477   0.836   0.362  0.3624 -1.4735 -1.7981
18787TIP3    H277853   3.627   0.819   0.350  0.4747 -1.8710 -0.0231
18788TIP3   OH277854   5.331   0.027   4.922 -0.0467 -0.2920  0.1128
18788TIP3    H177855   5.413   0.076   4.925 -1.4109  2.0737  0.5767
18788TIP3    H277856   5.354  -0.054   4.876  2.2988  0.7590 -0.7306
18789TIP3   OH277857   1.044   3.106  16.171  0.1735 -0.0839  0.4884
18789TIP3    H177858   0.979   3.038  16.188 -0.5961  0.6275  0.4259
18789TIP3    H277859   1.112   3.091  16.236  0.8792 -1.9694 -0.5856
18790TIP3   OH277860   3.901   1.399  16.625 -0.1948 -0.3123 -0.8856
18790TIP3    H177861   3.838   1.444  16.681  0.2584 -0.6236 -0.1042
18790TIP3    H277862   3.856   1.320  16.596 -0.4397 -0.1417 -0.9705
18791TIP3   OH277863   1.249   3.171   5.073 -0.1138  0.4059 -0.8554
18791TIP3    H177864   1.258   3.253   5.121  2.1617  0.1560 -0.7374
18791TIP3    H277865   1.277   3.104   5.135  3.1036  0.0891 -2.4291
18792TIP3   OH277866   3.951   1.050   3.083  0.2803 -0.2036  0.0436
18792TIP3    H177867   3.944   1.017   2.993  0.2898  1.5826 -0.6477
18792TIP3    H277868   3.863   1.040   3.119 -0.1900  0.7452 -0.7947
18793TIP3   OH277869   1.441   6.599  16.117 -0.8279  0.3599  0.1449
18793TIP3    H177870   1.491   6.679  16.130 -0.8854  0.3603  0.3777
18793TIP3    H277871   1.364   6.626  16.069  0.1856  0.0893 -1.7204
18794TIP3   OH277872   5.745   2.922  14.875 -0.0141  0.2986 -0.4322
18794TIP3    H177873   5.727   2.851  14.814  0.4200 -2.0603  2.0142
18794TIP3    H277874   5.663   2.936  14.921  0.8323 -1.3990  1.7440
18795TIP3   OH277875   6.694   2.897   0.478  0.4409 -0.0932  0.5415
18795TIP3    H177876   6.744   2.955   0.535  0.9286 -1.2684  1.3639
18795TIP3    H277877   6.618   2.949   0.451  1.7373  1.5004 -0.1961
18796TIP3   OH277878   6.245   4.675   4.813  0.3906 -0.3043 -0.4546
18796TIP3    H177879   6.208   4.676   4.725 -1.5832  0.6095  0.3277
18796TIP3    H277880   6.173   4.646   4.869  1.5938 -0.8283  0.8878
18797TIP3   OH277881   2.445   1.714  16.454 -0.1093 -0.1596  0.4445
18797TIP3    H177882   2.426   1.635  16.402  1.8713 -0.4736  0.1273
18797TIP3    H277883   2.458   1.682  16.543 -0.1788 -0.0593  0.4923
18798TIP3   OH277884   3.125   3.730  14.568 -0.1385  0.1691 -0.1775
18798TIP3    H177885   3.068   3.747  14.493  0.6349  0.7934 -0.6373
18798TIP3    H277886   3.086   3.654  14.610 -1.9640  1.2320  0.1728
18799TIP3   OH277887   2.053   3.765  17.117 -0.1252 -0.4626 -0.0739
18799TIP3    H177888   2.066   3.670  17.121 -0.1349 -0.4564  0.1172
18799TIP3    H277889   2.041   3.791  17.208  1.1021 -0.1116  0.0087
18800TIP3   OH277890   5.893   4.400  16.284  0.6638 -0.5769  0.1875
18800TIP3    H177891   5.933   4.323  16.243  2.1094  0.1145  0.2344
18800TIP3    H277892   5.959   4.469  16.274 -0.0286  0.2836  1.3873
18801TIP3   OH277893   4.134   0.016  16.982  0.1584  0.5368 -0.2558
18801TIP3    H177894   4.218   0.006  16.936  0.6387  0.4254  0.6154
18801TIP3    H277895   4.071  -0.028  16.926  0.5407  1.2756 -1.3082
18802TIP3   OH277896   2.045   0.907   2.432  0.0219 -0.3744 -0.0835
18802TIP3    H177897   2.051   0.968   2.505  1.0442 -0.3928 -0.1254
18802TIP3    H277898   2.002   0.830   2.468  1.3416 -0.7474  0.7835
18803TIP3   OH277899   1.627   2.192   2.500  0.1074  0.1984  0.0101
18803TIP3    H177900   1.696   2.244   2.461  2.8133 -2.7813  0.4053
18803TIP3    H277901   1.616   2.228   2.588  2.0970  0.0042  0.3808
18804TIP3   OH277902   3.033   3.176  15.636 -0.4841 -0.1192 -0.0717
18804TIP3    H177903   3.093   3.215  15.700  0.0138 -0.9690 -0.0041
18804TIP3    H277904   2.974   3.248  15.611  0.1142  0.5463  0.3917
18805TIP3   OH277905   6.623   5.153   0.604  0.1735  0.2044  0.1826
18805TIP3    H177906   6.572   5.235   0.607  0.0831  0.1856 -0.6896
18805TIP3    H277907   6.685   5.166   0.532 -0.5931 -0.9226 -0.7141
18806TIP3   OH277908   2.212   6.028  12.867 -0.1572 -0.1714  0.6106
18806TIP3    H177909   2.267   5.980  12.805 -0.7830 -0.6579  0.4281
18806TIP3    H277910   2.173   5.960  12.922 -0.2780  0.1991  0.9883
18807TIP3   OH277911   6.059   0.731   0.595 -0.5450 -0.3676  0.2079
18807TIP3    H177912   6.097   0.784   0.666 -0.1491  0.2215 -0.4316
18807TIP3    H277913   5.965   0.749   0.599 -0.3352  1.1354 -0.5692
18808TIP3   OH277914   5.801   5.778   5.494 -0.0542 -0.0711  0.2750
18808TIP3    H177915   5.734   5.778   5.426  0.6839  0.5370 -0.4728
18808TIP3    H277916   5.846   5.695   5.483 -0.0374 -0.0419  0.1216
18809TIP3   OH277917   2.782   1.701   3.115 -0.1056 -0.4924  0.2478
18809TIP3    H177918   2.864   1.719   3.161  0.9043 -0.4884 -1.4518
18809TIP3    H277919   2.771   1.606   3.120  0.1540 -0.5227  0.2508
18810TIP3   OH277920   5.079   0.876   3.534 -0.2002  0.1671 -0.2768
18810TIP3    H177921   5.168   0.871   3.567 -0.6186  1.4730  1.1877
18810TIP3    H277922   5.083   0.938   3.461 -0.0330  0.8685  0.3189
18811TIP3   OH277923   0.540   6.005  12.136 -0.3731  0.4886  0.0624
18811TIP3    H177924   0.505   6.086  12.098 -1.6928 -1.3069 -2.8750
18811TIP3    H277925   0.596   5.968  12.068 -1.7640 -2.2749  0.2648
18812TIP3   OH277926   0.730   6.670  14.232 -0.1243 -0.5156 -0.1481
18812TIP3    H177927   0.716   6.743  14.171 -0.4095  0.1016  0.6513
18812TIP3    H277928   0.650   6.667  14.284  0.6796 -0.1428  1.1384
18813TIP3   OH277929   5.814   1.602   5.965  0.4354  0.2841 -0.2320
18813TIP3    H177930   5.905   1.573   5.950  0.1897 -1.4257  1.2739
18813TIP3    H277931   5.792   1.568   6.051 -1.4348  1.2768 -0.2784
18814TIP3   OH277932   4.975   2.328   2.120  0.6690  0.0529 -0.1065
18814TIP3    H177933   4.899   2.385   2.126  0.6636 -0.0060  0.5174
18814TIP3    H277934   5.014   2.348   2.035  0.2078  0.3976 -0.2413
18815TIP3   OH277935   3.895   1.341  14.830 -0.0263  0.0497  0.0395
18815TIP3    H177936   3.838   1.339  14.907 -1.3909 -0.4916 -0.9293
18815TIP3    H277937   3.896   1.433  14.803  1.3045  0.4249  1.2687
18816TIP3   OH277938   0.031   6.624  13.329  0.7146 -0.5834  0.0779
18816TIP3    H177939  -0.058   6.643  13.300  0.8893 -0.2190 -0.2324
18816TIP3    H277940   0.087   6.670  13.266  1.1667 -2.3465 -0.8894
18817TIP3   OH277941   2.437   6.138   1.719  0.0260  0.3120 -0.1666
18817TIP3    H177942   2.520   6.095   1.698 -0.5088  0.4064 -2.8408
18817TIP3    H277943   2.371   6.084   1.676 -1.1053  1.2472  0.3560
18818TIP3   OH277944   6.293   1.782  14.910  0.1743 -0.9040  0.2224
18818TIP3    H177945   6.308   1.833  14.990  0.8426 -1.1514  0.2665
18818TIP3    H277946   6.380   1.750  14.886 -0.0220 -0.8150 -0.6197
18819TIP3   OH277947   0.338   5.518   2.375  0.4043  0.8128  0.0195
18819TIP3    H177948   0.361   5.497   2.465 -1.1271  2.3253  0.8099
18819TIP3    H277949   0.297   5.604   2.379 -0.7612  0.4260 -1.9700
18820TIP3   OH277950   3.957   4.449   1.502 -0.0665 -0.3293 -0.0594
18820TIP3    H177951   4.020   4.390   1.543  0.2143 -1.0128 -1.3863
18820TIP3    H277952   4.009   4.498   1.438 -0.6363  0.0136 -0.2671
18821TIP3   OH277953   2.431   0.013  15.985  0.3683  0.2475  0.4239
18821TIP3    H177954   2.442  -0.071  15.940  2.6549  1.1041 -0.7606
18821TIP3    H277955   2.409   0.075  15.915 -1.9526  0.5897  1.3649
18822TIP3   OH277956   3.323   0.579   1.660 -0.0865 -0.3311 -0.1190
18822TIP3    H177957   3.229   0.597   1.653 -0.0197 -0.6313 -3.5218
18822TIP3    H277958   3.365   0.664   1.654 -0.0628 -0.1574  1.7747
18823TIP3   OH277959   5.370   5.795   6.877  0.2797 -0.1653  0.3303
18823TIP3    H177960   5.421   5.863   6.920  0.9407 -0.7228  0.4425
18823TIP3    H277961   5.281   5.806   6.911  0.0731  1.4368 -0.5903
18824TIP3   OH277962   1.996   1.960   3.086 -0.2363 -0.7561 -0.2057
18824TIP3    H177963   1.949   1.903   3.026  1.4012 -1.3174 -1.0287
18824TIP3    H277964   2.049   1.901   3.139  0.8541 -0.0935 -0.5048
18825TIP3   OH277965   4.355   4.243  11.898  0.1333 -0.1541  0.6705
18825TIP3    H177966   4.314   4.241  11.812 -1.5806 -0.3338  1.4392
18825TIP3    H277967   4.357   4.152  11.926  2.1319 -0.2820  0.2016
18826TIP3   OH277968   0.003   3.653   5.854  0.0478  0.1691  0.2563
18826TIP3    H177969  -0.023   3.695   5.772 -0.1535  1.8064  1.1059
18826TIP3    H277970  -0.076   3.610   5.885 -0.4078  1.1334  0.4871
18827TIP3   OH277971   2.673   6.479   5.208  0.8318 -0.4256  0.6811
18827TIP3    H177972   2.650   6.479   5.301 -1.0125 -1.6426  0.2698
18827TIP3    H277973   2.726   6.400   5.197 -0.4367 -1.2705  0.4065
18828TIP3   OH277974   5.309   3.312   2.812 -0.4155 -0.3084 -0.3296
18828TIP3    H177975   5.391   3.294   2.764 -1.8076 -0.9968 -2.6131
18828TIP3    H277976   5.335   3.372   2.881  1.8585  0.3889 -1.6596
18829TIP3   OH277977   2.015   2.305  13.793 -0.1662  0.1721  0.2113
18829TIP3    H177978   2.025   2.292  13.887  1.2850 -0.2901  0.0210
18829TIP3    H277979   1.941   2.250  13.769  1.7192 -2.7202  0.5211
18830TIP3   OH277980   6.025   6.594   4.029 -0.0311 -0.1927  0.2216
18830TIP3    H177981   6.019   6.616   3.936 -0.1980 -1.0392  0.0258
18830TIP3    H277982   6.117   6.606   4.051  0.0121 -0.0083 -0.0529
18831TIP3   OH277983   3.932   5.993   4.157  0.7975 -0.0388 -0.3480
18831TIP3    H177984   3.928   5.950   4.072  1.3020 -0.0964 -0.3453
18831TIP3    H277985   3.840   6.003   4.183  0.6620 -0.9391 -0.4345
18832TIP3   OH277986   4.307   4.551   0.296 -0.0988  0.4178 -0.1362
18832TIP3    H177987   4.318   4.612   0.222 -3.8805  0.8653 -0.5431
18832TIP3    H277988   4.301   4.608   0.373 -0.4989  0.3150 -0.0891
18833TIP3   OH277989   3.767   3.125   2.942  0.5772 -0.2941  0.0001
18833TIP3    H177990   3.787   3.179   3.017  0.1154 -0.2255  0.0760
18833TIP3    H277991   3.706   3.059   2.975  0.1371 -0.0845 -0.3743
18834TIP3   OH277992   0.185   0.779  11.623  0.2347  0.6980 -0.0949
18834TIP3    H177993   0.260   0.734  11.661  0.6453  1.3025 -0.1857
18834TIP3    H277994   0.137   0.813  11.699 -0.3837 -0.3527  0.0065
18835TIP3   OH277995   6.067   1.340   6.202 -0.3451  0.0469  0.1865
18835TIP3    H177996   6.080   1.265   6.144  2.6627  1.3554 -1.0590
18835TIP3    H277997   6.031   1.408   6.145  1.9967  1.1311 -0.1188
18836TIP3   OH277998   5.240   5.868   4.538  0.1366 -0.2212 -0.1542
18836TIP3    H177999   5.160   5.899   4.580 -0.5987  0.9471 -2.2598
18836TIP3    H278000   5.281   5.948   4.504  2.2471 -0.7825  0.8560
18837TIP3   OH278001   3.997   2.514  15.682 -0.1037 -0.0144 -0.9398
18837TIP3    H178002   3.980   2.516  15.776 -0.1327  0.2104 -0.9508
18837TIP3    H278003   3.912   2.491  15.643 -0.4278  1.2321 -1.0037
18838TIP3   OH278004   4.955   2.694  14.736  0.2008  0.3380 -0.7274
18838TIP3    H178005   5.030   2.699  14.677  1.1572 -1.0682  0.3174
18838TIP3    H278006   4.903   2.621  14.702 -0.5254  1.0807 -1.2369
18839TIP3   OH278007   2.569   4.623  16.136  0.4345  0.3349  0.1344
18839TIP3    H178008   2.529   4.556  16.192  1.6101 -0.1368  0.4396
18839TIP3    H278009   2.519   4.703  16.154  0.7539  0.1772  1.8126
18840TIP3   OH278010   4.961   3.902   4.034  0.8530 -0.4221 -0.1459
18840TIP3    H178011   5.049   3.922   4.066  0.0385  0.7397  1.5225
18840TIP3    H278012   4.961   3.807   4.023  2.3233 -0.4407 -0.2616
18841TIP3   OH278013   2.269   4.411  16.794  0.0794  0.4697  0.1717
18841TIP3    H178014   2.358   4.446  16.785  0.6425 -1.1181 -1.2184
18841TIP3    H278015   2.244   4.386  16.705 -0.8070 -1.2342  0.8340
18842TIP3   OH278016   5.043   5.604   3.425  0.2658  0.6228 -0.7182
18842TIP3    H178017   4.970   5.544   3.411  0.2395  0.1703  1.0560
18842TIP3    H278018   5.120   5.548   3.428  0.4370  0.8613 -0.6059
18843TIP3   OH278019   2.509   2.839   4.005  0.1671  0.0565 -0.5814
18843TIP3    H178020   2.593   2.835   4.049  0.2329  0.4944 -0.6603
18843TIP3    H278021   2.447   2.799   4.067  0.4508 -0.3884 -0.5807
18844TIP3   OH278022   3.011   5.352   1.188 -0.0263 -0.2325 -0.1395
18844TIP3    H178023   3.020   5.437   1.145 -0.4047 -0.9497 -1.6877
18844TIP3    H278024   2.919   5.329   1.176 -0.5448  0.2054  2.4019
18845TIP3   OH278025   2.672   1.357  16.297 -0.4852 -0.1826  0.0351
18845TIP3    H178026   2.601   1.375  16.358  0.0749  2.8214 -0.0430
18845TIP3    H278027   2.634   1.298  16.232 -1.7209 -1.7155  2.0385
18846TIP3   OH278028   5.054   4.652  15.729  0.2932  0.3070  0.2553
18846TIP3    H178029   4.993   4.669  15.801 -0.6237  0.4379 -0.5284
18846TIP3    H278030   5.071   4.558  15.734 -1.6598 -0.1515 -0.7696
18847TIP3   OH278031   3.917   2.880  15.580 -0.1213  0.1005 -0.0926
18847TIP3    H178032   3.862   2.826  15.523  0.4776 -0.1215 -0.4639
18847TIP3    H278033   3.874   2.966  15.580 -0.5894 -0.1329 -0.2040
18848TIP3   OH278034   3.296   0.774  11.182 -0.6275 -0.3763 -0.2131
18848TIP3    H178035   3.345   0.726  11.115 -0.2209 -0.0660 -0.1378
18848TIP3    H278036   3.223   0.715  11.204  0.1475 -1.1995  0.2389
18849TIP3   OH278037   3.628   4.126   5.443 -0.2722  0.1693  0.1757
18849TIP3    H178038   3.594   4.049   5.489 -2.3171  0.7747 -0.2086
18849TIP3    H278039   3.551   4.182   5.430  0.8262  1.4474 -1.1859
18850TIP3   OH278040   6.395   1.567   6.652 -0.1208 -0.3039  0.1085
18850TIP3    H178041   6.332   1.566   6.724  0.3333  2.3822  0.6332
18850TIP3    H278042   6.479   1.552   6.694 -0.0301 -0.4402 -0.1202
18851TIP3   OH278043   5.116   0.248   2.753  0.2226 -0.2056 -0.1256
18851TIP3    H178044   5.198   0.226   2.797 -1.2508 -1.0886  2.3551
18851TIP3    H278045   5.079   0.164   2.726 -0.4786  0.0791 -0.0635
18852TIP3   OH278046   4.549   0.632  14.851 -0.4357  0.7534 -0.3020
18852TIP3    H178047   4.466   0.588  14.832  0.9029 -2.0163 -0.1858
18852TIP3    H278048   4.582   0.658  14.764 -0.6553  0.3941 -0.4949
18853TIP3   OH278049   6.525   2.882   2.587 -0.6202  0.4232 -1.1783
18853TIP3    H178050   6.465   2.919   2.652 -0.2044  0.3129 -0.7233
18853TIP3    H278051   6.494   2.792   2.575  0.1068  0.0022 -0.1016
18854TIP3   OH278052   0.415   4.332   3.172  0.9991  0.5906  0.1252
18854TIP3    H178053   0.425   4.361   3.081  0.7288  1.8177  0.4625
18854TIP3    H278054   0.327   4.358   3.197  0.7883 -0.4353  0.5144
18855TIP3   OH278055   3.869   4.469   1.218 -0.3327 -1.0638  0.8663
18855TIP3    H178056   3.858   4.551   1.267 -0.7067 -2.2188  2.8010
18855TIP3    H278057   3.886   4.498   1.128 -0.9947  1.1261  1.3707
18856TIP3   OH278058   1.772   3.356  14.524 -0.0348 -0.2898  0.0154
18856TIP3    H178059   1.776   3.360  14.620  4.5955  0.6717  0.0008
18856TIP3    H278060   1.719   3.432  14.500  0.9250  1.0338  1.8229
18857TIP3   OH278061   0.966   2.861   1.677  0.8223  0.1760  0.2937
18857TIP3    H178062   0.874   2.876   1.654  0.8952 -0.5906 -0.5611
18857TIP3    H278063   0.996   2.796   1.614  1.2082 -1.6209  2.2418
18858TIP3   OH278064   3.106   0.552  12.871 -0.1185  0.2252 -0.3399
18858TIP3    H178065   3.113   0.459  12.846 -0.7948  0.2030 -0.4818
18858TIP3    H278066   3.068   0.550  12.959 -0.9737  0.3776 -0.6933
18859TIP3   OH278067   6.024   4.801  15.514  0.4140 -0.0280  0.2249
18859TIP3    H178068   5.980   4.865  15.570  1.4508  1.2143 -0.3211
18859TIP3    H278069   5.964   4.727  15.512 -0.2620  0.4083  1.8909
18860TIP3   OH278070   3.695   3.411   2.081  0.0343 -0.2710 -0.1077
18860TIP3    H178071   3.772   3.365   2.115  0.0526  0.4035  0.8263
18860TIP3    H278072   3.637   3.420   2.157 -0.0113  1.1195 -0.2829
18861TIP3   OH278073   1.465   1.848   4.260  0.5456  0.2762 -0.4200
18861TIP3    H178074   1.461   1.916   4.193  0.7410  0.4891 -0.2199
18861TIP3    H278075   1.443   1.767   4.214 -2.6483  0.8289 -0.1303
18862TIP3   OH278076   4.156   0.434  14.480 -0.4624  0.1033 -0.9084
18862TIP3    H178077   4.093   0.400  14.543  1.3923 -0.3810  0.7727
18862TIP3    H278078   4.102   0.482  14.417 -2.5374 -0.6293  0.1918
18863TIP3   OH278079   0.947   1.410   5.733 -0.3927  0.2607 -0.2870
18863TIP3    H178080   0.974   1.399   5.642  0.6014  1.2358 -0.1189
18863TIP3    H278081   1.023   1.448   5.777 -0.5765 -0.9023  1.1327
18864TIP3   OH278082   6.697   4.315   4.224  0.0665 -0.4397  0.3703
18864TIP3    H178083   6.706   4.232   4.177 -0.9676 -0.3278 -0.0636
18864TIP3    H278084   6.728   4.296   4.312  0.6227 -1.0634  0.0464
18865TIP3   OH278085   2.747   0.644  15.354  0.0672 -0.3119  0.0929
18865TIP3    H178086   2.678   0.616  15.414 -1.7497  0.1949 -1.6254
18865TIP3    H278087   2.770   0.732  15.383 -1.8773  0.5417 -0.7381
18866TIP3   OH278088   2.235   0.143   4.080 -0.0662  0.0291  0.1824
18866TIP3    H178089   2.175   0.218   4.082  0.0841  0.1475  2.0906
18866TIP3    H278090   2.177   0.067   4.083 -0.2552 -0.0367 -2.4682
18867TIP3   OH278091   0.930   0.712  11.762 -0.4781 -0.4803  0.0262
18867TIP3    H178092   0.836   0.716  11.782 -0.7911 -0.7969 -1.2534
18867TIP3    H278093   0.973   0.738  11.843 -1.6940  1.2464  0.1799
18868TIP3   OH278094   5.976   2.820  13.044 -0.2115 -0.0309  0.2729
18868TIP3    H178095   5.895   2.826  12.993 -0.1489 -1.5777 -0.0634
18868TIP3    H278096   6.042   2.862  12.988 -0.6934  0.9271  0.3976
18869TIP3   OH278097   3.887   3.235  16.385  0.4080 -0.0824  0.1289
18869TIP3    H178098   3.883   3.277  16.471  1.0892  1.3901 -0.5427
18869TIP3    H278099   3.907   3.305  16.324 -0.4237 -1.0399 -1.3067
18870TIP3   OH278100   4.268   0.443  16.266 -0.0411  0.7377  0.2461
18870TIP3    H178101   4.248   0.400  16.182 -0.9586  0.7799  0.4298
18870TIP3    H278102   4.329   0.513  16.242 -0.4463  0.8780 -0.4253
18871TIP3   OH278103   1.854   5.671  11.360 -0.0163  0.3634  0.0603
18871TIP3    H178104   1.879   5.608  11.292 -0.5757  0.2279 -0.0324
18871TIP3    H278105   1.812   5.742  11.311 -1.1540 -0.1059  0.3075
18872TIP3   OH278106   3.519   4.338   4.792 -0.3015 -0.3024  0.2153
18872TIP3    H178107   3.524   4.334   4.888  0.5997 -0.5888  0.1690
18872TIP3    H278108   3.581   4.271   4.762  0.6905  0.9122 -0.5646
18873TIP3   OH278109   0.457   3.502   4.960 -0.1253  0.1544  0.2746
18873TIP3    H178110   0.427   3.503   4.869 -0.2467 -0.4575  0.3081
18873TIP3    H278111   0.547   3.470   4.955 -0.0711  0.2907  0.3575
18874TIP3   OH278112   0.510   4.732   5.833 -0.1175 -0.0636  0.1223
18874TIP3    H178113   0.420   4.700   5.846  0.3786 -1.5980 -0.0801
18874TIP3    H278114   0.544   4.746   5.921 -0.3648  0.0038  0.2090
18875TIP3   OH278115   5.926   6.467   5.236  0.3529  0.2516  0.3582
18875TIP3    H178116   5.857   6.531   5.219  0.3243  0.2416  0.4357
18875TIP3    H278117   5.912   6.441   5.327  1.3743  1.3442  0.8557
18876TIP3   OH278118   1.088   1.520   4.703 -0.4977 -0.0992 -0.4612
18876TIP3    H178119   1.076   1.582   4.776  0.7332 -0.6386  0.2189
18876TIP3    H278120   1.082   1.575   4.625 -2.8090  0.3640 -0.0622
18877TIP3   OH278121   2.252   4.987   4.262  0.6163 -0.1969  0.1374
18877TIP3    H178122   2.334   4.974   4.309  0.8786  0.1006 -0.2307
18877TIP3    H278123   2.253   5.079   4.236 -0.2503  0.0434  0.8969
18878TIP3   OH278124   6.266   6.314   0.694 -0.1455 -0.3064 -0.1788
18878TIP3    H178125   6.255   6.235   0.748 -2.1935 -0.8044 -1.2246
18878TIP3    H278126   6.212   6.380   0.737  0.3802  0.1100 -0.1407
18879TIP3   OH278127   2.750   0.882  16.982 -0.1024 -0.2924 -0.0755
18879TIP3    H178128   2.775   0.821  17.051  0.8364 -0.7490 -0.7881
18879TIP3    H278129   2.725   0.826  16.909  0.1538  0.1725 -0.5285
18880TIP3   OH278130   6.040   4.336   2.030  0.1766 -0.1421  0.2227
18880TIP3    H178131   6.112   4.399   2.028  0.2166 -0.1981 -0.7617
18880TIP3    H278132   6.079   4.255   2.062  0.7742 -0.4140 -1.1165
18881TIP3   OH278133   6.584   3.147   4.047  0.0033  0.3892 -0.5428
18881TIP3    H178134   6.534   3.080   4.094 -0.7171 -0.5230 -2.4963
18881TIP3    H278135   6.635   3.191   4.115 -1.3915 -0.4777  1.1424
18882TIP3   OH278136   3.240   6.534   1.140 -0.7345  0.1979  0.1411
18882TIP3    H178137   3.147   6.556   1.141 -0.6529  0.5417  0.9155
18882TIP3    H278138   3.284   6.617   1.159 -0.3051 -0.0811  0.3708
18883TIP3   OH278139   0.407   4.318  16.029 -0.4273 -0.4329 -0.2745
18883TIP3    H178140   0.439   4.294  15.942 -0.3864  0.6039 -0.5585
18883TIP3    H278141   0.326   4.365  16.012  0.0379  0.5603  0.1890
18884TIP3   OH278142   2.159   4.878  14.333 -0.0303  0.2699  0.6726
18884TIP3    H178143   2.134   4.902  14.244 -0.2846 -0.1106  0.6365
18884TIP3    H278144   2.246   4.915  14.345  0.1951 -0.0678  0.1034
18885TIP3   OH278145   5.102   5.413   4.408  0.3772 -0.0448  0.3116
18885TIP3    H178146   5.194   5.390   4.419  0.9788  1.0882 -1.8419
18885TIP3    H278147   5.068   5.346   4.349  0.2927  0.5202 -0.2904
18886TIP3   OH278148   6.011   5.890   1.855 -0.0595  0.6549  0.5439
18886TIP3    H178149   6.038   5.936   1.776 -0.3389  2.5473  1.4966
18886TIP3    H278150   5.921   5.862   1.837  0.8267 -1.5559 -0.8654
18887TIP3   OH278151   4.246   5.382  13.344  0.3000 -0.6135 -0.0296
18887TIP3    H178152   4.257   5.323  13.269  2.9714  2.5801 -2.3962
18887TIP3    H278153   4.195   5.455  13.310  1.1880  0.7276  1.4014
18888TIP3   OH278154   2.745   4.078   3.449 -0.2618  0.0856 -0.4489
18888TIP3    H178155   2.745   4.038   3.536 -2.9240 -1.1073 -0.9042
18888TIP3    H278156   2.738   4.172   3.465 -2.4408 -0.2077  0.6871
18889TIP3   OH278157   0.637   0.985  12.208  0.4600 -0.0694  0.5276
18889TIP3    H178158   0.576   0.978  12.282  0.2201  1.1107  0.4553
18889TIP3    H278159   0.608   1.063  12.160  2.6783  1.1649  1.0733
18890TIP3   OH278160   2.928   5.477   5.005  0.3077  0.0495  0.3169
18890TIP3    H178161   2.964   5.466   4.917 -0.5951  1.5358 -0.2833
18890TIP3    H278162   2.851   5.533   4.992  0.8721  1.3524  2.1850
18891TIP3   OH278163   4.984   0.976  16.118  0.1252 -0.2649 -0.1423
18891TIP3    H178164   4.902   0.971  16.069  0.1322  0.8463 -0.3007
18891TIP3    H278165   5.018   0.887  16.117 -0.9498 -0.6937 -0.2916
18892TIP3   OH278166   3.692   4.862   2.614  0.0492 -0.1522 -0.8419
18892TIP3    H178167   3.735   4.798   2.558 -0.9120 -0.3047 -1.4231
18892TIP3    H278168   3.642   4.917   2.554 -1.5314 -0.7309 -0.0981
18893TIP3   OH278169   3.212   1.877   1.844 -0.0203 -0.3325  0.0968
18893TIP3    H178170   3.126   1.891   1.804 -0.7510 -0.9558  1.3938
18893TIP3    H278171   3.274   1.911   1.780 -1.2489  0.4395 -0.7203
18894TIP3   OH278172   5.079   2.614  13.508  0.3423 -1.0965 -0.3065
18894TIP3    H178173   5.043   2.528  13.529 -0.1161 -0.6448  0.8665
18894TIP3    H278174   5.122   2.643  13.588  0.1994 -0.0993 -0.5682
18895TIP3   OH278175   3.432   2.448  16.444 -0.0646  0.2897 -0.0328
18895TIP3    H178176   3.484   2.436  16.524  0.3252  2.2926  0.0858
18895TIP3    H278177   3.359   2.504  16.472  0.9825  2.4457 -1.3417
18896TIP3   OH278178   6.002   6.569   2.697 -0.0136  0.2094  0.0467
18896TIP3    H178179   6.012   6.622   2.776 -0.7125  2.5542 -1.3588
18896TIP3    H278180   5.912   6.585   2.668  0.2384 -0.5790 -1.2521
18897TIP3   OH278181   0.655   6.699   3.012  0.1280 -0.0641  0.3168
18897TIP3    H178182   0.591   6.689   3.083  1.0087 -2.3183  0.8842
18897TIP3    H278183   0.609   6.668   2.934 -0.0813  0.1929  0.3345
18898TIP3   OH278184   0.613   6.416  16.143  0.1056  0.1591 -0.1807
18898TIP3    H178185   0.632   6.489  16.084  2.2572 -0.9972 -1.0268
18898TIP3    H278186   0.558   6.358  16.092  0.5015  0.0046 -0.4415
18899TIP3   OH278187   6.187   3.810  10.792 -0.3613 -0.3518  0.0346
18899TIP3    H178188   6.227   3.733  10.831 -0.8866 -0.9302 -0.5332
18899TIP3    H278189   6.104   3.778  10.756 -1.6369  0.9001  1.6698
18900TIP3   OH278190   4.681   4.645   4.476  0.2712  0.3268 -0.5321
18900TIP3    H178191   4.760   4.593   4.464  1.6693  2.6122 -1.9043
18900TIP3    H278192   4.703   4.708   4.544 -0.9495  0.0416  0.1775
18901TIP3   OH278193   3.688   6.163   0.514 -0.1309  0.0922  0.0764
18901TIP3    H178194   3.687   6.213   0.432 -0.8877 -0.7811 -0.4669
18901TIP3    H278195   3.726   6.223   0.578 -1.0756  1.4013 -0.5318
18902TIP3   OH278196   4.458   3.088   4.404  0.4512  0.1082 -0.6018
18902TIP3    H178197   4.507   3.008   4.383 -0.3013 -1.1130  1.8877
18902TIP3    H278198   4.499   3.120   4.484 -1.6946  0.0155  0.5950
18903TIP3   OH278199   5.402   3.701   0.688 -0.4556 -0.1242  0.2090
18903TIP3    H178200   5.370   3.657   0.766 -1.0044 -1.9380 -0.9840
18903TIP3    H278201   5.336   3.768   0.670 -0.6599 -0.1291  0.8998
18904TIP3   OH278202   3.089   0.051  14.927  0.1216 -0.5420 -0.1482
18904TIP3    H178203   3.135   0.096  14.998  1.5344 -1.2473 -0.5838
18904TIP3    H278204   3.072  -0.036  14.961  0.3528 -0.7208 -0.4866
18905TIP3   OH278205   4.950   6.536  13.783  0.3064  0.6676  0.0681
18905TIP3    H178206   4.882   6.602  13.790  0.1656  0.6709 -1.1979
18905TIP3    H278207   4.911   6.466  13.730  0.5084 -0.3745  1.2387
18906TIP3   OH278208   3.453   4.175  15.235  0.2509 -0.1452 -0.2802
18906TIP3    H178209   3.367   4.133  15.242  0.7613 -1.0980  0.5697
18906TIP3    H278210   3.480   4.159  15.144 -0.6138  0.4892 -0.6632
18907TIP3   OH278211   2.220   2.834   2.238 -0.5841 -0.3303 -0.0828
18907TIP3    H178212   2.184   2.758   2.193  0.1822 -1.4575  1.1155
18907TIP3    H278213   2.192   2.823   2.329  0.7710  0.0185  0.4000
18908TIP3   OH278214   4.740   3.302  14.297  0.4231  0.2621 -0.6322
18908TIP3    H178215   4.834   3.293  14.279 -0.0629 -0.9495 -3.0357
18908TIP3    H278216   4.704   3.216  14.277 -1.2878  0.8870 -0.3988
18909TIP3   OH278217   4.821   2.244  12.423  0.2187 -0.2245 -0.2444
18909TIP3    H178218   4.872   2.280  12.350  1.7732  0.1277  0.9768
18909TIP3    H278219   4.766   2.317  12.453  2.8292  1.0563  1.7550
18910TIP3   OH278220   0.529   0.170   2.815  0.6997 -0.1725 -0.4567
18910TIP3    H178221   0.494   0.147   2.729 -1.6003 -2.4060  0.9268
18910TIP3    H278222   0.616   0.132   2.817  0.9299  0.2133 -1.8928
18911TIP3   OH278223   3.434   5.165   5.098 -0.0663  0.1717  0.1736
18911TIP3    H178224   3.514   5.113   5.090 -0.0493  0.3393 -0.9283
18911TIP3    H278225   3.461   5.242   5.147  0.3180 -0.0321  0.2920
18912TIP3   OH278226   6.468   4.948   1.516  0.3386 -0.0819  0.6752
18912TIP3    H178227   6.459   4.865   1.563  1.7811  0.5490  2.1799
18912TIP3    H278228   6.504   4.924   1.431 -0.1075 -1.0591  0.7447
18913TIP3   OH278229   1.646   1.743  11.409 -0.0036  0.1440 -0.1109
18913TIP3    H178230   1.554   1.725  11.431  0.8165 -3.6274  1.0236
18913TIP3    H278231   1.653   1.719  11.316 -0.1487  0.5100 -0.2198
18914TIP3   OH278232   4.337   1.299   5.776 -0.7046 -0.1297 -0.0174
18914TIP3    H178233   4.244   1.301   5.797 -0.7454 -1.1311 -0.0553
18914TIP3    H278234   4.349   1.368   5.710 -1.3524  0.2233  0.2316
18915TIP3   OH278235   2.975   4.960  13.358 -0.0654  1.3652  0.0305
18915TIP3    H178236   2.896   4.912  13.383  0.3716  0.7030  0.1519
18915TIP3    H278237   2.949   5.010  13.280  0.5193 -2.3376 -2.8151
18916TIP3   OH278238   2.674   3.325  11.308 -0.2742 -0.5026 -0.1580
18916TIP3    H178239   2.600   3.272  11.279 -1.5833  0.0243  1.9751
18916TIP3    H278240   2.687   3.389  11.239 -1.2246 -1.1661 -0.9690
18917TIP3   OH278241   5.167   4.351   2.732 -0.5811  0.3597 -0.1765
18917TIP3    H178242   5.200   4.312   2.813  0.1432 -0.7062 -0.9576
18917TIP3    H278243   5.243   4.353   2.674 -0.6377  2.7560 -0.2638
18918TIP3   OH278244   2.354   6.068  12.317 -0.2835  0.2033 -0.2275
18918TIP3    H178245   2.359   5.994  12.257 -0.2467  0.0316 -0.0176
18918TIP3    H278246   2.417   6.131  12.283  1.0069 -0.5865  0.5616
18919TIP3   OH278247   5.364   4.231   3.381 -0.1643 -0.1974 -0.1429
18919TIP3    H178248   5.416   4.154   3.402 -0.2781 -0.0380  0.7500
18919TIP3    H278249   5.287   4.224   3.436 -1.0545 -0.3673 -1.3660
18920TIP3   OH278250   5.713   2.232   0.562 -0.0955 -0.0053 -0.3142
18920TIP3    H178251   5.696   2.314   0.609 -0.2514  0.1916 -0.7031
18920TIP3    H278252   5.630   2.213   0.518  0.4829  0.6532 -1.7726
18921TIP3   OH278253   0.982   4.999   5.966  0.2566  0.0097 -0.1910
18921TIP3    H178254   1.056   5.052   5.995 -1.0140  1.3167  0.8642
18921TIP3    H278255   1.011   4.959   5.884  2.3154 -0.0259  0.5085
18922TIP3   OH278256   6.563   3.925  11.386 -0.9932 -0.6371  0.0941
18922TIP3    H178257   6.611   3.978  11.323 -0.2021 -0.2727  0.9627
18922TIP3    H278258   6.548   3.842  11.342  1.5159 -1.2121  0.1702
18923TIP3   OH278259   1.215   1.645  15.525  0.0715 -0.3636  0.1599
18923TIP3    H178260   1.236   1.731  15.561  0.3120 -0.9157  1.3912
18923TIP3    H278261   1.239   1.583  15.594  2.4244 -1.6659 -1.6429
18924TIP3   OH278262   1.962   1.643  15.954 -0.1403  0.0867  0.0559
18924TIP3    H178263   1.940   1.575  15.891 -1.1315 -0.1838  0.6728
18924TIP3    H278264   1.916   1.619  16.034  0.6074  0.7458  0.7159
18925TIP3   OH278265   6.486   0.531  12.682  0.0364 -0.3903  0.1641
18925TIP3    H178266   6.485   0.437  12.697 -1.1854 -0.9399 -2.7775
18925TIP3    H278267   6.573   0.549  12.644  0.3488 -0.2630  0.9184
18926TIP3   OH278268   6.481   2.269   0.205  0.1102 -0.5829 -0.2118
18926TIP3    H178269   6.400   2.296   0.247 -0.0200  0.3742 -1.0664
18926TIP3    H278270   6.481   2.173   0.214 -1.3769 -0.6514 -0.6971
18927TIP3   OH278271   2.729   1.687   2.440 -0.1825 -0.0550  0.3050
18927TIP3    H178272   2.731   1.682   2.344  0.1706 -0.4595  0.3272
18927TIP3    H278273   2.816   1.718   2.465  0.5269 -2.0568  0.5762
18928TIP3   OH278274   2.789   4.117   5.426  0.3724  0.0950 -0.0785
18928TIP3    H178275   2.767   4.208   5.406  0.8469  0.7101  1.9227
18928TIP3    H278276   2.809   4.118   5.520  2.1435 -1.7244 -0.3743
18929TIP3   OH278277   5.933   3.876  12.637  0.7142 -0.7765  0.4470
18929TIP3    H178278   5.892   3.790  12.625 -0.2327 -0.5038  1.6207
18929TIP3    H278279   6.007   3.859  12.696  0.5520 -0.8032  0.6451
18930TIP3   OH278280   6.139   1.716  16.788  0.0019  0.1185  0.1033
18930TIP3    H178281   6.053   1.693  16.822  0.5965  1.2707  2.6498
18930TIP3    H278282   6.129   1.806  16.755 -0.8973 -1.3752 -4.4277
18931TIP3   OH278283   6.075   4.143  15.679 -0.1697  0.2070  0.3066
18931TIP3    H178284   6.019   4.072  15.646 -0.8625  1.3527 -1.0644
18931TIP3    H278285   6.109   4.185  15.601  0.2479  1.3767  1.0983
18932TIP3   OH278286   3.883   2.737  16.194 -0.4537 -0.2273  0.0365
18932TIP3    H178287   3.899   2.829  16.216 -2.6316  0.8555 -2.3924
18932TIP3    H278288   3.805   2.714  16.245  0.1537 -0.8290  0.7290
18933TIP3   OH278289   2.679   3.460  12.059 -0.3671 -0.1404  0.3879
18933TIP3    H178290   2.694   3.411  11.978  0.7548 -1.4223  1.3482
18933TIP3    H278291   2.586   3.483  12.055 -1.0096 -2.5079 -0.0361
18934TIP3   OH278292   3.026   4.722  14.639 -0.4659  0.4792  0.0893
18934TIP3    H178293   2.999   4.633  14.662  0.0339  0.3308  0.1083
18934TIP3    H278294   2.951   4.758  14.592 -0.1365 -0.4705 -1.2441
18935TIP3   OH278295   1.419   6.581   0.639 -0.4196  0.1138 -0.4253
18935TIP3    H178296   1.386   6.650   0.581  2.6812  1.1185 -1.1908
18935TIP3    H278297   1.495   6.547   0.594  0.0510 -1.5459  1.5046
18936TIP3   OH278298   5.221   1.655   5.763  0.5215  0.3355 -0.5774
18936TIP3    H178299   5.192   1.734   5.717  1.6989  1.5397  0.6553
18936TIP3    H278300   5.148   1.634   5.822 -0.3760 -0.3575 -1.8821
18937TIP3   OH278301   6.740   5.562  15.000  0.3029  0.2583  0.0265
18937TIP3    H178302   6.752   5.655  15.015 -0.3100  0.5687 -1.2405
18937TIP3    H278303   6.715   5.527  15.085 -1.4937  1.6275  0.1236
18938TIP3   OH278304   6.272   0.881   3.052  0.1336  0.2586  0.0670
18938TIP3    H178305   6.350   0.925   3.087 -0.4013  1.8295 -0.6599
18938TIP3    H278306   6.284   0.883   2.957 -0.2421 -0.5551 -0.0036
18939TIP3   OH278307   1.850   4.294  15.714  0.4091  0.2408  0.2513
18939TIP3    H178308   1.945   4.286  15.713  0.4987  1.2323 -1.2525
18939TIP3    H278309   1.832   4.376  15.668 -1.2051 -0.2316 -0.0073
18940TIP3   OH278310   2.464   4.611  16.847 -0.3159 -0.7524  0.4839
18940TIP3    H178311   2.477   4.673  16.918 -1.1700  1.2063 -0.9804
18940TIP3    H278312   2.541   4.624  16.791 -1.8228  1.1552 -1.2930
18941TIP3   OH278313   1.911   1.641   1.786  0.5018  0.3201  0.4783
18941TIP3    H178314   1.974   1.576   1.755 -0.6503 -0.8162  0.4478
18941TIP3    H278315   1.949   1.675   1.867  1.6764  0.4856 -0.1182
18942TIP3   OH278316   2.505   5.805   1.959 -0.3915 -0.0932  0.4585
18942TIP3    H178317   2.557   5.729   1.985 -0.9532 -0.2525  1.1170
18942TIP3    H278318   2.571   5.870   1.931  0.1183 -0.5971  0.4658
18943TIP3   OH278319   5.147   2.979  11.286 -0.1827  0.5587 -0.3015
18943TIP3    H178320   5.152   3.074  11.295 -0.5999  0.5082  0.5547
18943TIP3    H278321   5.211   2.946  11.349  0.6793  0.2813 -1.2902
18944TIP3   OH278322   1.831   5.227  10.632  0.6791  0.2169  0.3171
18944TIP3    H178323   1.741   5.253  10.613  1.2468  1.4692 -0.7594
18944TIP3    H278324   1.847   5.152  10.574  0.0324 -0.6874  1.2548
18945TIP3   OH278325   2.015   5.320  10.827 -0.5456 -0.0670  0.4540
18945TIP3    H178326   2.083   5.363  10.775 -0.8494  0.6809  0.6687
18945TIP3    H278327   1.938   5.318  10.770 -1.0104  1.1576  1.0228
18946TIP3   OH278328   6.241   5.460  15.556  0.3803 -0.0267  0.5806
18946TIP3    H178329   6.248   5.487  15.648  2.0372  0.4256  0.3435
18946TIP3    H278330   6.267   5.537  15.506 -0.3816 -0.3111 -0.2867
18947TIP3   OH278331   3.887   1.081   1.442  0.2420 -0.2911  0.6771
18947TIP3    H178332   3.928   1.165   1.421  0.1103  0.0468  1.7125
18947TIP3    H278333   3.897   1.072   1.537 -0.4470 -1.0749  0.6909
18948TIP3   OH278334   4.005   4.543   3.938  0.1208  0.1530 -0.3894
18948TIP3    H178335   3.917   4.511   3.920 -0.0331  0.0414  0.5270
18948TIP3    H278336   4.060   4.499   3.873 -0.4694  0.0856 -0.8473
18949TIP3   OH278337   6.661   1.361  13.662  0.5887 -0.0174  0.2790
18949TIP3    H178338   6.734   1.397  13.613  0.5011 -0.2721 -0.0430
18949TIP3    H278339   6.583   1.400  13.623  0.4735 -0.7860 -0.2847
18950TIP3   OH278340   0.454   1.451  10.667  1.0040  0.2399  0.0899
18950TIP3    H178341   0.490   1.537  10.648  1.3057  0.0938 -0.0060
18950TIP3    H278342   0.360   1.461  10.655  1.1064  0.3627 -0.6482
18951TIP3   OH278343   2.767   2.470  15.104  0.4897 -0.6336  0.2630
18951TIP3    H178344   2.746   2.494  15.013 -0.6388  0.4730  0.7859
18951TIP3    H278345   2.778   2.554  15.149 -2.0296 -1.0276  1.8109
18952TIP3   OH278346   6.566   2.888   5.121 -0.1415  0.5797  0.3713
18952TIP3    H178347   6.532   2.806   5.085 -0.7275 -0.3403  2.8319
18952TIP3    H278348   6.628   2.919   5.056 -0.8390 -1.1529 -1.2113
18953TIP3   OH278349   1.489   1.052   6.012  0.1490 -0.3211 -0.5242
18953TIP3    H178350   1.547   1.113   6.057 -0.5646  0.4598 -0.6594
18953TIP3    H278351   1.415   1.041   6.071 -0.0239 -0.5753 -0.7829
18954TIP3   OH278352   4.561   1.567   4.397  0.0084  0.1449 -0.3295
18954TIP3    H178353   4.596   1.526   4.476  2.1670  2.5164  0.0920
18954TIP3    H278354   4.473   1.531   4.388  0.2970 -1.4522  2.1980
18955TIP3   OH278355   4.212   0.884  12.491 -0.1853  0.2261  0.3661
18955TIP3    H178356   4.214   0.807  12.434  0.0934  0.6476 -0.1993
18955TIP3    H278357   4.126   0.880  12.533 -0.9932  0.6845 -1.1709
18956TIP3   OH278358   4.879   1.833  11.124  0.3311 -0.1229 -0.1328
18956TIP3    H178359   4.892   1.761  11.062 -0.9335  0.2059 -0.8338
18956TIP3    H278360   4.829   1.794  11.196 -0.3422  0.0368 -0.5061
18957TIP3   OH278361   6.625   3.544  14.912 -0.1555 -0.2759 -0.1689
18957TIP3    H178362   6.594   3.524  15.000  0.4244 -0.6301 -0.0377
18957TIP3    H278363   6.716   3.571  14.924 -0.1759 -0.0028 -0.6213
18958TIP3   OH278364   0.200   3.968   0.882  0.6862 -0.2317 -0.4574
18958TIP3    H178365   0.119   4.011   0.912 -0.7426 -2.8893 -0.1573
18958TIP3    H278366   0.245   4.034   0.830 -1.8954  1.2552 -0.9633
18959TIP3   OH278367   4.308   1.981  14.491 -0.5002  0.2124 -0.0519
18959TIP3    H178368   4.333   2.014  14.404  3.5608  1.6521  1.4042
18959TIP3    H278369   4.292   2.060  14.542  0.3854 -0.4527  1.2897
18960TIP3   OH278370   4.597   3.390   3.898  0.1018  0.2424  0.2667
18960TIP3    H178371   4.528   3.357   3.955 -0.5552 -3.1800 -2.2190
18960TIP3    H278372   4.662   3.320   3.897  1.8196  1.7632 -0.4533
18961TIP3   OH278373   4.352   6.645  11.031  0.1427 -0.2755  0.1276
18961TIP3    H178374   4.409   6.657  11.107 -0.1208  0.0829  0.2758
18961TIP3    H278375   4.289   6.578  11.059  0.8000 -1.0468 -0.2199
18962TIP3   OH278376   6.105   6.319   2.719  0.2962 -0.1182 -0.3046
18962TIP3    H178377   6.070   6.334   2.807 -0.1238 -1.2115 -0.2668
18962TIP3    H278378   6.089   6.401   2.673 -1.4551 -0.2395  0.0081
18963TIP3   OH278379   3.441   5.366  16.623  0.5983  0.2180  0.3261
18963TIP3    H178380   3.407   5.286  16.583  0.9475  0.0696  0.3256
18963TIP3    H278381   3.498   5.404  16.557  3.3077 -1.3936  1.5588
18964TIP3   OH278382   0.693   5.455   5.085 -0.2909  0.2948  0.3833
18964TIP3    H178383   0.641   5.376   5.102 -0.2836 -0.1151 -1.2445
18964TIP3    H278384   0.782   5.432   5.111 -0.4099 -0.0233  0.5119
18965TIP3   OH278385   2.516   2.465   5.939 -0.4919 -0.2186 -0.0024
18965TIP3    H178386   2.433   2.501   5.970 -0.9086 -1.0410 -0.1352
18965TIP3    H278387   2.512   2.473   5.843 -0.7219 -0.8957 -0.0525
18966TIP3   OH278388   1.798   4.368   1.928  0.6032 -0.1881  0.6531
18966TIP3    H178389   1.868   4.323   1.880 -0.0342 -0.4989 -0.0132
18966TIP3    H278390   1.719   4.350   1.877  0.3375  1.8226  0.2451
18967TIP3   OH278391   6.811   3.915   6.185  0.7442 -0.3313  0.3448
18967TIP3    H178392   6.727   3.904   6.230 -0.5812  2.6149 -1.1609
18967TIP3    H278393   6.869   3.952   6.252  0.2745 -0.5491  0.8883
18968TIP3   OH278394   3.329   5.633  11.559  0.0298 -0.3999  0.3174
18968TIP3    H178395   3.396   5.699  11.576 -0.9841  0.3543  1.6050
18968TIP3    H278396   3.247   5.675  11.586 -1.0696 -1.0508 -1.8242
18969TIP3   OH278397   6.367   6.085   1.794  0.0598 -0.2906  0.0535
18969TIP3    H178398   6.294   6.128   1.838 -0.6235 -1.4357  0.0692
18969TIP3    H278399   6.338   5.995   1.780  0.6795 -0.2615 -1.7546
18970TIP3   OH278400   5.777   1.619  15.421 -0.1851  0.0173 -0.0362
18970TIP3    H178401   5.849   1.614  15.484 -0.7850  0.8441  0.7397
18970TIP3    H278402   5.702   1.648  15.473 -0.8926 -0.0881 -0.9816
18971TIP3   OH278403   5.917   0.535   4.495  0.2366  0.2691  0.1005
18971TIP3    H178404   5.957   0.476   4.430 -0.7821 -1.1720  0.7311
18971TIP3    H278405   5.951   0.504   4.579  0.7790  1.5009  0.3552
18972TIP3   OH278406   0.933   4.307   4.474  0.6078 -0.0197  0.2261
18972TIP3    H178407   0.845   4.300   4.512  0.5249 -1.1489 -0.1433
18972TIP3    H278408   0.977   4.226   4.500  1.1722  0.0463 -0.4992
18973TIP3   OH278409   3.473   3.710   3.425 -0.0165 -0.0105 -0.2734
18973TIP3    H178410   3.480   3.796   3.383 -0.4194 -0.0912 -0.5164
18973TIP3    H278411   3.560   3.693   3.460 -0.5701  1.7846  2.3233
18974TIP3   OH278412   3.855   1.700   3.207 -0.1480 -0.3383 -0.2372
18974TIP3    H178413   3.861   1.681   3.301 -3.3015  0.2669  0.2042
18974TIP3    H278414   3.887   1.790   3.199  1.1907 -0.7696  0.0354
18975TIP3   OH278415   2.054   1.891   1.052  0.1061 -0.2578 -0.1160
18975TIP3    H178416   2.079   1.853   1.136 -1.5970 -1.6491 -0.1745
18975TIP3    H278417   1.960   1.875   1.045 -0.2711  2.0427 -1.2066
18976TIP3   OH278418   5.725   1.192  15.244 -0.0509  0.0712 -0.3569
18976TIP3    H178419   5.790   1.218  15.180  1.5916 -0.6058  0.9625
18976TIP3    H278420   5.751   1.237  15.324 -2.3850  1.3675 -0.2388
18977TIP3   OH278421   0.625   4.640   3.031  0.3213 -0.1522 -0.2079
18977TIP3    H178422   0.675   4.720   3.016 -1.2681  0.7389 -0.9545
18977TIP3    H278423   0.673   4.594   3.099  1.0317  1.6382  0.5517
18978TIP3   OH278424   5.927   2.688   4.491  0.5883  0.0056  0.5576
18978TIP3    H178425   5.980   2.632   4.548 -0.4946 -2.1126 -0.3804
18978TIP3    H278426   5.840   2.647   4.491  0.0634  1.0185 -1.1119
18979TIP3   OH278427   1.739   0.691   0.290 -0.3246 -0.0810  0.0305
18979TIP3    H178428   1.802   0.763   0.298 -1.9004  1.2897  0.6976
18979TIP3    H278429   1.667   0.728   0.238 -1.9649 -0.5613  1.8414
18980TIP3   OH278430   2.734   1.638   0.891 -0.2077  0.1786 -0.3282
18980TIP3    H178431   2.732   1.690   0.811  0.7623  0.7425 -0.0029
18980TIP3    H278432   2.752   1.701   0.960  1.3266 -0.6104  0.0322
18981TIP3   OH278433   6.746   0.802  15.870  0.0907  0.2811  0.3047
18981TIP3    H178434   6.701   0.798  15.786 -0.6428  0.7143  0.6663
18981TIP3    H278435   6.779   0.713  15.883 -0.2257  0.0808 -0.2099
18982TIP3   OH278436   3.038   6.139  17.099 -0.3797 -0.6355 -0.2595
18982TIP3    H178437   2.946   6.114  17.107  0.0822 -2.1309  0.9047
18982TIP3    H278438   3.061   6.171  17.186  0.3570 -0.8195 -0.3861
18983TIP3   OH278439   5.692   4.980  13.817 -0.2239  0.5660  0.4669
18983TIP3    H178440   5.685   5.063  13.769  1.1862 -0.5857 -1.9282
18983TIP3    H278441   5.736   5.004  13.898 -2.7198  2.6076  1.3579
18984TIP3   OH278442   5.621   1.494   1.965 -0.0654 -0.0458  0.2116
18984TIP3    H178443   5.693   1.536   2.013 -0.7352  2.0104 -0.4882
18984TIP3    H278444   5.567   1.454   2.034  0.2979  0.7351  0.9793
18985TIP3   OH278445   1.367   5.748   1.664  0.4025  0.0598  0.4579
18985TIP3    H178446   1.444   5.719   1.714  0.2759 -2.0487 -0.4878
18985TIP3    H278447   1.403   5.771   1.578 -0.1608 -2.5111 -0.5371
18986TIP3   OH278448   3.141   1.298   2.188  0.0797  0.2151  0.4818
18986TIP3    H178449   3.071   1.358   2.214  1.1670  2.5859 -1.7228
18986TIP3    H278450   3.112   1.262   2.104  0.0926 -1.3456  1.1065
18987TIP3   OH278451   2.964   1.746  15.879 -0.3205 -0.1244  0.3265
18987TIP3    H178452   3.032   1.790  15.931 -1.7325  2.1811  0.3677
18987TIP3    H278453   2.942   1.668  15.929  1.3200 -0.2051  0.9918
18988TIP3   OH278454   1.770   2.582  14.706  0.4000  0.3546  0.1504
18988TIP3    H178455   1.848   2.622  14.665  1.0304 -0.2172  0.7595
18988TIP3    H278456   1.745   2.644  14.774  1.7922 -0.5547  1.5545
18989TIP3   OH278457   4.808   4.508  16.765  0.0572  0.2087  0.6378
18989TIP3    H178458   4.729   4.489  16.713  1.3312 -2.1778 -0.5869
18989TIP3    H278459   4.785   4.479  16.854 -0.2325 -1.2131  0.1278
18990TIP3   OH278460   3.205   1.172   1.902  0.1665 -0.1875 -0.5206
18990TIP3    H178461   3.261   1.146   1.975  0.5291  0.3582 -0.6057
18990TIP3    H278462   3.116   1.155   1.934  0.3797 -1.4683 -0.5438
18991TIP3   OH278463   6.211   6.632  11.112 -0.1175 -0.6025 -0.1939
18991TIP3    H178464   6.217   6.704  11.175 -1.3431  0.4362 -1.1884
18991TIP3    H278465   6.299   6.597  11.107  0.4858  0.7359  0.4416
18992TIP3   OH278466   2.821   2.857   0.617  0.0858 -0.4131 -0.2644
18992TIP3    H178467   2.830   2.787   0.682  2.8514  0.4229  0.4003
18992TIP3    H278468   2.859   2.934   0.659 -1.5399  1.1792 -1.5218
18993TIP3   OH278469   6.517   5.357  13.336 -0.3096 -0.0577  0.4955
18993TIP3    H178470   6.602   5.352  13.380 -0.1303  0.5145  0.2313
18993TIP3    H278471   6.536   5.403  13.254 -0.5397 -1.5584 -0.4346
18994TIP3   OH278472   1.228   0.984   0.698 -0.2678  0.5058 -0.0372
18994TIP3    H178473   1.284   1.053   0.734 -2.2521  1.6350  1.0401
18994TIP3    H278474   1.172   0.958   0.771 -0.6984 -1.0732 -0.8914
18995TIP3   OH278475   2.271   0.177  16.346 -0.0680 -0.8182  0.5057
18995TIP3    H178476   2.331   0.235  16.393  0.8461 -0.4016 -1.1129
18995TIP3    H278477   2.219   0.235  16.291 -0.3453 -1.3913  0.1463
18996TIP3   OH278478   4.299   3.650  16.376 -0.4328  0.0692 -0.0004
18996TIP3    H178479   4.211   3.612  16.377 -1.0474  1.3891 -0.7583
18996TIP3    H278480   4.292   3.722  16.314  1.2134  0.1642 -0.1038
18997TIP3   OH278481   3.543   4.481  16.551 -0.0499 -0.2267 -0.8227
18997TIP3    H178482   3.596   4.485  16.631  1.2599 -0.7963 -1.6298
18997TIP3    H278483   3.545   4.389  16.525  0.7253  0.1504 -2.2429
18998TIP3   OH278484   1.613   2.252  16.210  0.9581 -0.4915  0.4595
18998TIP3    H178485   1.648   2.226  16.296 -0.4151 -0.2244  1.1286
18998TIP3    H278486   1.583   2.170  16.171  1.8802 -0.6599  0.0694
18999TIP3   OH278487   2.149   1.594  12.981 -0.6976  0.4786  0.2867
18999TIP3    H178488   2.075   1.651  13.004 -4.1162 -2.2833 -2.6243
18999TIP3    H278489   2.155   1.533  13.055  1.0948  2.6835  2.0895
19000TIP3   OH278490   6.742   2.569   4.635  0.2466 -0.1330 -0.0887
19000TIP3    H178491   6.651   2.559   4.610  0.1933 -1.4779  0.5505
19000TIP3    H278492   6.781   2.483   4.621  0.4487 -0.7649  3.3578
19001TIP3   OH278493   2.237   3.820  16.608 -0.2693  0.7217 -0.2620
19001TIP3    H178494   2.291   3.859  16.539 -0.3675 -0.6279 -1.1364
19001TIP3    H278495   2.294   3.816  16.685 -0.0229  1.8461 -0.3710
19002TIP3   OH278496   0.691   1.775  15.992 -0.0629  0.9091  0.8967
19002TIP3    H178497   0.770   1.758  15.941 -0.3440 -0.2913  0.8194
19002TIP3    H278498   0.705   1.727  16.074 -0.2142  1.6607  1.3703
19003TIP3   OH278499   2.175   0.196  13.296  0.3377 -0.2817  0.0160
19003TIP3    H178500   2.085   0.213  13.267  0.7827  0.3388 -1.0353
19003TIP3    H278501   2.211   0.138  13.230  1.0654  0.3860 -0.1871
19004TIP3   OH278502   6.303   3.943   3.364 -0.2985 -0.5645 -0.4990
19004TIP3    H178503   6.280   3.885   3.436  0.1667  2.2189  2.0702
19004TIP3    H278504   6.397   3.931   3.353 -0.2950 -0.6806 -0.3469
19005TIP3   OH278505   5.344   4.750   2.612 -0.2895  0.9883  0.4069
19005TIP3    H178506   5.282   4.723   2.545  1.6200 -3.0582 -0.0615
19005TIP3    H278507   5.408   4.803   2.565  0.7029 -1.3055 -1.0129
19006TIP3   OH278508   2.657   3.431   2.245  0.1772 -0.4888 -0.1781
19006TIP3    H178509   2.697   3.395   2.166  0.6604  1.0485 -0.6621
19006TIP3    H278510   2.731   3.448   2.304  0.1226  0.9273 -0.4815
19007TIP3   OH278511   5.344   2.115  11.402  0.7247 -0.4395 -0.4410
19007TIP3    H178512   5.357   2.122  11.308  0.6306 -4.1445 -0.8582
19007TIP3    H278513   5.257   2.153  11.417 -0.3533 -1.9889 -2.3065
19008TIP3   OH278514   0.124   2.503  17.155  0.0162  0.0270  0.0067
19008TIP3    H178515   0.038   2.543  17.160  0.6051  1.6361 -1.5730
19008TIP3    H278516   0.178   2.555  17.214  0.4749  0.7664 -1.0246
19009TIP3   OH278517   1.716   5.336   3.490  0.0351 -0.3908  0.3204
19009TIP3    H178518   1.647   5.292   3.540 -0.7429  0.7177  0.2653
19009TIP3    H278519   1.740   5.273   3.423 -1.0016 -0.7742  0.2817
19010TIP3   OH278520   5.427   4.354   1.696 -0.1813  0.0807  0.4848
19010TIP3    H178521   5.516   4.342   1.664  0.0322  0.6318  0.8502
19010TIP3    H278522   5.434   4.348   1.791 -0.9096 -2.2104  0.4592
19011TIP3   OH278523   2.246   5.248   4.132  0.2503 -0.1845 -0.9167
19011TIP3    H178524   2.169   5.280   4.179  1.8294  1.4873  0.7641
19011TIP3    H278525   2.218   5.240   4.041 -1.7196  1.0084 -0.4724
19012TIP3   OH278526   2.238   3.054  14.253 -0.4167 -0.1940  0.2785
19012TIP3    H178527   2.281   2.972  14.229 -0.7011 -0.7420  1.5453
19012TIP3    H278528   2.185   3.076  14.177  1.6530  0.2362 -1.1148
19013TIP3   OH278529   3.508   0.517   3.350  0.2245  0.7151  0.5542
19013TIP3    H178530   3.570   0.549   3.284  1.5055  0.6114  1.6614
19013TIP3    H278531   3.423   0.520   3.306  1.0634  0.3842 -1.1965
19014TIP3   OH278532   5.231   6.826   2.061 -0.2486 -0.1710 -0.0209
19014TIP3    H178533   5.143   6.847   2.031 -0.6898  0.1873  1.4352
19014TIP3    H278534   5.222   6.818   2.156  1.2129 -0.5445  0.1056
19015TIP3   OH278535   0.895   5.671  12.983  0.0094  0.2228  0.6176
19015TIP3    H178536   0.863   5.598  12.931 -0.8653  0.8369  0.2733
19015TIP3    H278537   0.914   5.740  12.919  0.4240  0.4431  0.9699
19016TIP3   OH278538   3.995   2.524  11.243 -0.0524  0.4569  0.6454
19016TIP3    H178539   4.045   2.551  11.321 -0.0220  0.5213  0.6040
19016TIP3    H278540   4.026   2.583  11.174 -0.6352  0.9151  0.7674
19017TIP3   OH278541   6.022   4.541  13.614  0.1597 -0.0673  0.7606
19017TIP3    H178542   5.997   4.477  13.681 -0.8170  0.7498  1.2168
19017TIP3    H278543   5.992   4.625  13.649 -0.0649  0.4284 -0.5510
19018TIP3   OH278544   0.790   1.758  16.896 -0.3531  0.1574 -0.5103
19018TIP3    H178545   0.872   1.778  16.942 -0.8092  3.5709 -0.9472
19018TIP3    H278546   0.810   1.775  16.804 -1.3392  0.3088 -0.7034
19019TIP3   OH278547   5.530   0.713   5.988  0.1752 -0.3966 -0.1016
19019TIP3    H178548   5.546   0.720   6.082 -0.2914  2.4226 -0.1469
19019TIP3    H278549   5.613   0.739   5.948 -0.4440  1.2757 -0.3913
19020TIP3   OH278550   3.155   2.508   3.764  0.0396 -0.2565 -0.4020
19020TIP3    H178551   3.165   2.481   3.673  0.0238 -0.7214 -0.2670
19020TIP3    H278552   3.063   2.536   3.770  0.4359  1.2636 -0.9122
19021TIP3   OH278553   4.940   1.168   5.217 -0.1671 -0.8195  0.1532
19021TIP3    H178554   5.012   1.139   5.274  3.7571  1.3723 -3.1150
19021TIP3    H278555   4.940   1.104   5.146  1.8215  1.4245 -2.0808
19022TIP3   OH278556   2.142   4.395  13.253 -0.3201 -0.2303 -1.1437
19022TIP3    H178557   2.054   4.363  13.276 -0.0110 -1.1203 -1.1539
19022TIP3    H278558   2.202   4.336  13.300  0.2752  0.3123 -1.2098
19023TIP3   OH278559   4.718   1.563   1.780 -0.1433 -0.2815 -0.6120
19023TIP3    H178560   4.696   1.655   1.791 -0.1536 -0.0840 -2.1162
19023TIP3    H278561   4.757   1.537   1.864 -0.6409  0.9320  0.0107
19024TIP3   OH278562   3.355   6.635   2.381  0.2538 -0.5795  0.1777
19024TIP3    H178563   3.401   6.551   2.387 -1.9808 -2.2808 -3.5260
19024TIP3    H278564   3.408   6.687   2.321 -1.3588 -1.7367 -2.3725
19025TIP3   OH278565   3.698   5.086   5.011 -0.2263 -0.2007  0.2177
19025TIP3    H178566   3.737   5.173   5.013 -1.1460  0.2126  0.5967
19025TIP3    H278567   3.712   5.055   4.921 -0.2217  0.4874 -0.0217
19026TIP3   OH278568   1.492   1.922  12.580 -0.4481 -0.0351 -0.1104
19026TIP3    H178569   1.425   1.990  12.580 -0.5852 -0.1077 -1.9097
19026TIP3    H278570   1.509   1.904  12.672  0.0066  2.8245  0.4584
19027TIP3   OH278571   0.310   6.662   6.511  0.1976 -0.1216 -0.0488
19027TIP3    H178572   0.299   6.724   6.582 -0.1937 -0.7105  0.4192
19027TIP3    H278573   0.388   6.691   6.464  0.0783  0.6516  0.2230
19028TIP3   OH278574   6.328   0.154  13.225  0.1852 -0.1645 -0.3282
19028TIP3    H178575   6.293   0.177  13.139 -0.7374 -1.7560 -0.4285
19028TIP3    H278576   6.256   0.171  13.285  0.8543  1.0180  0.1650
19029TIP3   OH278577   4.763   5.852  14.896 -0.4133  0.1729  0.5748
19029TIP3    H178578   4.828   5.794  14.936 -0.1980  0.8285  1.1987
19029TIP3    H278579   4.742   5.811  14.812  1.6190  0.5046 -0.1395
19030TIP3   OH278580   6.445   2.544   4.577 -0.5141 -0.1597  0.2440
19030TIP3    H178581   6.453   2.487   4.501 -0.4572 -0.5622  0.5461
19030TIP3    H278582   6.351   2.549   4.594 -0.5993  0.7056 -0.4247
19031TIP3   OH278583   3.853   5.396   3.691 -0.2385  0.2043 -0.0737
19031TIP3    H178584   3.819   5.348   3.615  0.3981 -1.2816  0.5395
19031TIP3    H278585   3.822   5.346   3.767  0.4320  0.7861  0.5987
19032TIP3   OH278586   5.606   3.019  17.082  0.1538 -0.3924 -0.1679
19032TIP3    H178587   5.552   3.071  17.141  0.8049  1.7264 -1.3493
19032TIP3    H278588   5.673   3.079  17.050  0.1034 -1.5278 -2.7323
19033TIP3   OH278589   1.782   6.184  13.108  0.1699  0.1851  0.5013
19033TIP3    H178590   1.820   6.257  13.059 -0.5793 -0.8506 -1.7371
19033TIP3    H278591   1.833   6.108  13.081 -0.6191 -0.5085  0.9415
19034TIP3   OH278592   1.845   1.796  16.350 -0.1583  0.4938  0.1347
19034TIP3    H178593   1.911   1.845  16.301  0.7175 -0.9961 -0.2340
19034TIP3    H278594   1.895   1.738  16.407 -1.1295 -0.5146  0.0034
19035TIP3   OH278595   3.301   3.508  12.370  0.6253  0.1396  0.2300
19035TIP3    H178596   3.289   3.602  12.380 -0.2488  0.2283 -1.3122
19035TIP3    H278597   3.302   3.494  12.275 -3.4564 -1.8869  0.2781
19036TIP3   OH278598   0.018   5.185   2.388  0.4867  0.0915 -0.0983
19036TIP3    H178599   0.088   5.213   2.447  1.6303  1.0206 -1.7942
19036TIP3    H278600   0.033   5.091   2.374 -0.4954 -0.4111  1.9155
19037TIP3   OH278601   3.856   2.280  11.025  0.3442 -0.1635  0.2433
19037TIP3    H178602   3.908   2.317  10.953 -1.2161 -1.0307 -1.4338
19037TIP3    H278603   3.768   2.316  11.011 -0.2288 -1.2064  1.0644
19038TIP3   OH278604   3.878   2.456   4.946 -0.0598 -0.7557 -0.8462
19038TIP3    H178605   3.901   2.413   5.028 -2.4749  0.8816  0.8407
19038TIP3    H278606   3.897   2.391   4.878  1.5205 -2.3695  1.0179
19039TIP3   OH278607   4.122   4.849   1.315  0.1247 -0.7052 -0.5695
19039TIP3    H178608   4.162   4.904   1.383 -0.2503  0.6937 -1.4310
19039TIP3    H278609   4.184   4.853   1.243 -1.3193  1.2495 -1.8160
19040TIP3   OH278610   3.935   2.602   1.006  0.2119 -0.4989  0.0586
19040TIP3    H178611   3.849   2.572   1.034 -0.0081 -0.1564 -0.2449
19040TIP3    H278612   3.969   2.650   1.082  0.4719 -1.2966  0.4627
19041TIP3   OH278613   3.674   6.522   4.578  0.2367  0.6876  0.6114
19041TIP3    H178614   3.645   6.586   4.642 -0.2845  0.6710  0.4028
19041TIP3    H278615   3.603   6.458   4.574  0.9896 -0.2182  1.2240
19042TIP3   OH278616   4.944   0.715  16.825  0.1678 -0.2828 -0.2403
19042TIP3    H178617   4.923   0.801  16.861  0.9487 -0.2654  0.2113
19042TIP3    H278618   5.040   0.717  16.815  0.2551 -1.3138  0.3421
19043TIP3   OH278619   4.863   5.512   1.906  0.0842 -0.3730  0.1040
19043TIP3    H178620   4.788   5.454   1.890 -1.0468  1.2318 -0.6321
19043TIP3    H278621   4.874   5.512   2.001 -1.5342  0.1604  0.3266
19044TIP3   OH278622   5.312   3.155   1.129 -0.1833 -0.0708 -0.0257
19044TIP3    H178623   5.384   3.092   1.136 -0.0503  0.1568  0.8201
19044TIP3    H278624   5.352   3.233   1.091  0.4677  0.6689  2.0151
19045TIP3   OH278625   5.074   0.604   3.207  0.1310  0.1903 -0.4732
19045TIP3    H178626   5.008   0.640   3.266  0.7895  1.1687 -0.2909
19045TIP3    H278627   5.096   0.678   3.149  1.3363  0.0028 -0.2702
19046TIP3   OH278628   0.577   3.754  13.344 -0.2960  0.0391 -0.2291
19046TIP3    H178629   0.642   3.686  13.362 -0.1557  0.2569  0.0873
19046TIP3    H278630   0.572   3.805  13.425 -1.3623 -0.3906 -0.0010
19047TIP3   OH278631   5.851   5.054  14.029  0.3656 -0.1811  0.4760
19047TIP3    H178632   5.901   4.972  14.030  0.8843  0.1268  0.1793
19047TIP3    H278633   5.883   5.103  14.104 -0.4859 -0.5552  1.1072
19048TIP3   OH278634   1.994   5.319   2.007 -0.4754  0.2318  0.2953
19048TIP3    H178635   2.082   5.308   1.972  0.3523 -0.7292  2.4944
19048TIP3    H278636   1.955   5.232   2.002 -1.1660  0.5607 -0.2588
19049TIP3   OH278637   4.943   6.715  10.937  0.1146 -0.1165  0.0106
19049TIP3    H178638   4.874   6.653  10.913  0.2286 -0.5848  0.8561
19049TIP3    H278639   5.004   6.713  10.863 -0.4149 -0.2234 -0.4317
19050TIP3   OH278640   5.597   3.389   2.798  0.4366  0.1751  0.2457
19050TIP3    H178641   5.561   3.380   2.710  0.3753 -1.9033  0.4361
19050TIP3    H278642   5.618   3.482   2.806  0.0663  0.4819 -1.8061
19051TIP3   OH278643   5.896   6.783   0.789 -0.7589 -0.1342  0.5762
19051TIP3    H178644   5.828   6.851   0.794  0.0047  0.5678  3.8099
19051TIP3    H278645   5.970   6.826   0.745 -0.7726  0.7205  1.3538
19052TIP3   OH278646   5.552   0.750   0.537  0.1227 -0.1699 -0.0745
19052TIP3    H178647   5.530   0.736   0.629 -1.7354  1.3628 -0.2403
19052TIP3    H278648   5.492   0.692   0.489  0.4543 -0.2817 -0.3603
19053TIP3   OH278649   3.557   0.264  13.211 -0.0411 -0.3615  0.5152
19053TIP3    H178650   3.641   0.241  13.250 -0.3228 -1.7346  0.3428
19053TIP3    H278651   3.578   0.286  13.120 -0.0273 -2.2604  0.0100
19054TIP3   OH278652   2.476   4.252  11.807  0.3823  0.1036 -0.2851
19054TIP3    H178653   2.399   4.301  11.837  0.9638  0.4821  0.6428
19054TIP3    H278654   2.441   4.166  11.784 -0.4351  0.5102 -0.5946
19055TIP3   OH278655   1.439   3.527  11.372 -0.1754 -0.1882 -0.6368
19055TIP3    H178656   1.475   3.539  11.284 -0.7775  1.0502 -0.7304
19055TIP3    H278657   1.475   3.600  11.423 -1.4977  0.3305 -0.4120
19056TIP3   OH278658   4.375   3.347   1.936 -0.5735  0.4335 -0.2748
19056TIP3    H178659   4.285   3.325   1.962 -1.7144  2.6187 -1.9587
19056TIP3    H278660   4.387   3.302   1.852 -0.2529  0.4618 -0.2438
19057TIP3   OH278661   6.178   2.223  16.746 -0.4879 -0.3402 -0.5167
19057TIP3    H178662   6.242   2.209  16.676  1.4191  1.4263  0.7906
19057TIP3    H278663   6.133   2.139  16.754  1.1192 -1.4066 -1.9863
19058TIP3   OH278664   4.775   3.970  15.324  0.6292  0.1564 -0.2163
19058TIP3    H178665   4.712   3.990  15.255  1.7093  0.1484 -1.2443
19058TIP3    H278666   4.725   3.973  15.405 -0.5116  0.9370 -0.9309
19059TIP3   OH278667   6.783   0.911  16.249  0.5203 -0.5523  0.3146
19059TIP3    H178668   6.743   0.824  16.244  0.4201 -0.5345  0.7752
19059TIP3    H278669   6.710   0.970  16.266  0.0721  0.0710 -3.0788
19060TIP3   OH278670   4.442   4.647   1.965 -0.3961  0.1049  0.1109
19060TIP3    H178671   4.466   4.615   1.879  0.7348 -0.0837  0.4764
19060TIP3    H278672   4.359   4.604   1.985 -1.9330  1.9459 -1.8388
19061TIP3   OH278673   0.399   5.146  15.868 -0.0634 -0.1889 -0.6913
19061TIP3    H178674   0.346   5.205  15.815  2.5575  1.1847 -1.9865
19061TIP3    H278675   0.446   5.203  15.929  0.5693 -1.2413 -0.1483
19062TIP3   OH278676   6.683   3.370  10.537 -0.2016  0.1812  0.2755
19062TIP3    H178677   6.613   3.405  10.592  0.7974 -0.6806  2.1776
19062TIP3    H278678   6.756   3.432  10.548  0.0709 -0.0999  0.0723
19063TIP3   OH278679   5.092   2.047   2.490 -0.7631 -0.2423  0.0549
19063TIP3    H178680   5.038   2.103   2.433 -0.7319 -1.4013 -1.1744
19063TIP3    H278681   5.076   1.958   2.457  1.0092 -0.7228  0.4226
19064TIP3   OH278682   2.742   4.764   3.178  0.2705 -0.5310 -0.1605
19064TIP3    H178683   2.837   4.765   3.164  0.3851 -1.3807  0.4716
19064TIP3    H278684   2.719   4.857   3.189  1.1175 -0.3519  0.2443
19065TIP3   OH278685   0.239   4.302   3.994 -0.3081  0.0980 -0.1149
19065TIP3    H178686   0.219   4.329   3.904 -0.9677 -3.8956 -1.3540
19065TIP3    H278687   0.329   4.268   3.990 -1.3829 -3.0082 -0.1582
19066TIP3   OH278688   1.359   2.611  15.935  0.4286  0.5508  0.3337
19066TIP3    H178689   1.291   2.629  15.870 -0.6901 -1.3144  0.9386
19066TIP3    H278690   1.322   2.640  16.018 -0.1540 -1.4931  0.8429
19067TIP3   OH278691   6.138   0.016   6.072 -0.5100 -0.0163  0.2612
19067TIP3    H178692   6.091   0.093   6.102 -1.0767 -0.2606  0.0227
19067TIP3    H278693   6.130  -0.047   6.143  1.5909  0.7771  1.2825
19068TIP3   OH278694   2.280   6.041  15.247  0.8068 -0.4789 -0.1143
19068TIP3    H178695   2.290   6.083  15.333  0.2826 -1.8219  0.6296
19068TIP3    H278696   2.340   6.090  15.190  2.3288 -0.4972  1.3669
19069TIP3   OH278697   6.358   5.735   1.198  0.1646  0.0502  0.3157
19069TIP3    H178698   6.326   5.646   1.180  0.9404 -0.0122 -0.9071
19069TIP3    H278699   6.282   5.791   1.183 -0.1022 -0.3353  0.2039
19070TIP3   OH278700   0.637   0.766   3.039 -0.3088  0.4517 -0.2356
19070TIP3    H178701   0.581   0.802   2.970  0.9517  2.9665 -0.0257
19070TIP3    H278702   0.670   0.683   3.002 -2.3623  0.0080 -1.2187
19071TIP3   OH278703   1.347   5.354  14.315  0.1611 -0.0181 -0.2611
19071TIP3    H178704   1.433   5.355  14.274 -0.1775  1.4067 -1.0391
19071TIP3    H278705   1.297   5.289  14.266  1.1777 -2.0081  1.1834
19072TIP3   OH278706   2.056   6.126   4.193  0.5882  0.4587  0.0504
19072TIP3    H178707   1.978   6.179   4.211 -0.3571 -0.7325 -0.4126
19072TIP3    H278708   2.061   6.065   4.267  1.9278  1.4211  0.8107
19073TIP3   OH278709   0.450   2.641   5.777 -0.2269  0.5842  0.1125
19073TIP3    H178710   0.450   2.663   5.684 -1.3975 -0.3334 -0.1356
19073TIP3    H278711   0.370   2.590   5.789  0.9575 -1.1083  1.1979
19074TIP3   OH278712   4.866   2.913   3.847 -0.1871  0.3519  1.2219
19074TIP3    H178713   4.791   2.969   3.827  0.6567  0.9296 -0.5637
19074TIP3    H278714   4.900   2.948   3.930 -1.1395  0.8708  1.4122
19075TIP3   OH278715   4.808   4.817   5.916 -0.2442  0.4802  0.1799
19075TIP3    H178716   4.781   4.725   5.917 -1.7316  0.7862 -2.2950
19075TIP3    H278717   4.881   4.821   5.977 -0.4681 -2.2221  0.7789
19076TIP3   OH278718   2.371   1.594   5.275  1.3913  0.5114 -0.1551
19076TIP3    H178719   2.462   1.605   5.302  1.3918  0.1862 -0.0266
19076TIP3    H278720   2.325   1.667   5.318  1.3685 -0.0787  0.8555
19077TIP3   OH278721   4.346   6.235   1.072  0.2654  0.4938 -0.9486
19077TIP3    H178722   4.354   6.173   1.145 -0.6701 -3.2450 -3.7237
19077TIP3    H278723   4.273   6.291   1.097  0.2889 -0.3251  1.2128
19078TIP3   OH278724   0.324   2.913   2.461  0.4597 -0.2330  0.2538
19078TIP3    H178725   0.353   3.004   2.470  1.9085 -0.5074 -1.0899
19078TIP3    H278726   0.392   2.872   2.407 -1.2748 -1.5452 -1.0553
19079TIP3   OH278727   1.850   3.334   4.674 -0.3752 -0.1737  0.3913
19079TIP3    H178728   1.755   3.345   4.663 -0.3224  0.4123  0.4625
19079TIP3    H278729   1.887   3.414   4.637  0.1564 -0.8309 -0.5359
19080TIP3   OH278730   0.908   4.203   0.649  0.3304 -0.2394  0.2317
19080TIP3    H178731   0.932   4.198   0.556 -0.6238 -1.1620  0.0187
19080TIP3    H278732   0.949   4.127   0.689 -2.3085 -2.0001 -0.1894
19081TIP3   OH278733   4.117   1.227  15.894  0.0297 -0.0523 -0.2597
19081TIP3    H178734   4.074   1.302  15.934 -0.1104 -0.4096  0.2600
19081TIP3    H278735   4.075   1.150  15.933 -0.0719 -0.4114 -1.0380
19082TIP3   OH278736   1.223   2.254  16.801  0.2141  0.0362  0.3446
19082TIP3    H178737   1.225   2.332  16.745 -0.7328 -0.6827 -0.7394
19082TIP3    H278738   1.192   2.184  16.744 -0.7488 -0.7479  1.7537
19083TIP3   OH278739   2.722   4.227  12.869 -0.3690 -0.2429 -0.5570
19083TIP3    H178740   2.800   4.173  12.857  1.6970  2.4296  0.1376
19083TIP3    H278741   2.677   4.188  12.944  3.2308  1.1822  2.6444
19084TIP3   OH278742   1.123   3.085  11.006 -0.0802  0.1245 -0.1875
19084TIP3    H178743   1.083   3.078  10.920  1.4952 -0.4080 -0.9150
19084TIP3    H278744   1.081   3.016  11.058 -1.3421  0.7235 -0.3709
19085TIP3   OH278745   6.661   2.777   2.839 -0.1092  0.3222  0.2323
19085TIP3    H178746   6.618   2.757   2.922  2.3379 -3.8696  0.8142
19085TIP3    H278747   6.601   2.745   2.772  0.3993 -2.0176  0.8187
19086TIP3   OH278748   6.761   3.510   2.815  0.1569  0.1950  0.2500
19086TIP3    H178749   6.800   3.475   2.895 -0.5305  0.0618  0.5276
19086TIP3    H278750   6.744   3.433   2.761  3.4674  0.4094 -1.4006
19087TIP3   OH278751   0.275   3.150   3.242 -0.0818  0.0071  0.3028
19087TIP3    H178752   0.212   3.182   3.306 -0.3031  1.1717 -0.4505
19087TIP3    H278753   0.242   3.183   3.158  1.4067  0.4577 -0.1371
19088TIP3   OH278754   4.739   0.920  16.001 -0.0948  0.1166  0.0463
19088TIP3    H178755   4.709   0.921  15.910 -0.6633  0.7209  0.2330
19088TIP3    H278756   4.679   0.978  16.047  1.1568  1.1169  0.5014
19089TIP3   OH278757   0.009   5.660   2.272  0.0008 -0.7661  0.6377
19089TIP3    H178758  -0.050   5.584   2.266 -1.8249  0.5481  0.9077
19089TIP3    H278759  -0.003   5.693   2.361 -2.3175  2.0707 -0.5378
19090TIP3   OH278760   3.556   5.350   2.632  0.3400  0.2673  0.0125
19090TIP3    H178761   3.632   5.406   2.644 -1.0453  1.9984  1.3561
19090TIP3    H278762   3.484   5.398   2.674 -1.5653 -1.1256 -1.4602
19091TIP3   OH278763   4.202   0.403   2.421  0.5699  0.1942 -0.2150
19091TIP3    H178764   4.224   0.310   2.425  3.0250  0.7354  1.2301
19091TIP3    H278765   4.274   0.442   2.371  0.7908  1.5686  1.0989
19092TIP3   OH278766   5.924   5.050  15.994 -0.2679  0.0753  0.9777
19092TIP3    H178767   5.830   5.067  15.996 -0.2019  0.9846 -0.7924
19092TIP3    H278768   5.932   4.959  15.966 -0.7384  1.0622 -3.0597
19093TIP3   OH278769   2.933   1.657   1.731  0.2238 -0.1442 -0.5907
19093TIP3    H178770   2.947   1.675   1.638 -0.3243  1.1013 -0.4453
19093TIP3    H278771   2.916   1.742   1.770 -1.6513 -0.8732  0.2920
19094TIP3   OH278772   3.467   2.228   0.736 -0.2567 -0.2149 -0.0849
19094TIP3    H178773   3.423   2.159   0.786  1.6562 -0.9360  0.7424
19094TIP3    H278774   3.546   2.247   0.788  0.3324  1.0916 -1.3939
19095TIP3   OH278775   2.015   2.307   4.346 -0.3471  0.3027  0.3996
19095TIP3    H178776   1.958   2.369   4.302 -2.3375 -1.3738  0.4567
19095TIP3    H278777   2.100   2.319   4.304 -0.5769  3.1118  0.5266
19096TIP3   OH278778   4.372   1.675  10.532 -0.6867  0.5558  0.2422
19096TIP3    H178779   4.368   1.726  10.613 -0.0314  0.7703  0.1427
19096TIP3    H278780   4.313   1.721  10.473  0.6657  1.8164 -0.1780
19097TIP3   OH278781   5.829   5.373  12.575 -0.3231  0.2290  0.1180
19097TIP3    H178782   5.869   5.339  12.495 -0.3040  0.7699 -0.1082
19097TIP3    H278783   5.879   5.333  12.646 -2.1649 -2.6322 -0.0118
19098TIP3   OH278784   0.995   6.301  16.474  0.2102  0.5455 -0.0820
19098TIP3    H178785   1.018   6.331  16.562  0.0274  3.5786 -0.9619
19098TIP3    H278786   0.901   6.284  16.479  0.0782  1.3143  0.1833
19099TIP3   OH278787   0.037   4.158  16.466  0.0298 -0.0337  0.2303
19099TIP3    H178788   0.117   4.202  16.438  0.0822  0.1519  0.6691
19099TIP3    H278789   0.041   4.073  16.423  0.5380 -0.0854  0.3661
19100TIP3   OH278790   4.062   4.429  14.043  0.1499 -0.7133  0.2419
19100TIP3    H178791   4.003   4.504  14.052  1.4385  0.2544  0.9506
19100TIP3    H278792   4.086   4.428  13.950 -1.3899 -1.4768 -0.1836
19101TIP3   OH278793   1.795   0.481  14.940  0.8165 -0.0189 -0.2635
19101TIP3    H178794   1.830   0.516  15.022  0.5738 -1.2264  0.3831
19101TIP3    H278795   1.861   0.504  14.874  0.5946  1.7380  0.0805
19102TIP3   OH278796   4.090   1.874  12.290  0.1991  0.0286  0.4480
19102TIP3    H178797   4.107   1.953  12.342 -1.2254  0.0949  0.8355
19102TIP3    H278798   3.995   1.868  12.285  0.2650 -2.0350  0.9763
19103TIP3   OH278799   4.694   5.147  16.225  0.2799  0.3816 -0.0356
19103TIP3    H178800   4.624   5.211  16.208 -0.5845 -0.5523 -0.0814
19103TIP3    H278801   4.739   5.139  16.141  1.5215  2.2066  0.4003
19104TIP3   OH278802   0.068   5.065   3.125 -0.1813 -0.0219 -0.3386
19104TIP3    H178803   0.003   5.133   3.105 -0.8791 -1.0840 -1.9441
19104TIP3    H278804   0.151   5.111   3.131 -0.6769  1.0180 -1.1828
19105TIP3   OH278805   0.711   0.343   4.026  0.3782 -0.1767  0.0991
19105TIP3    H178806   0.655   0.308   4.095  1.0915 -0.0115  0.7792
19105TIP3    H278807   0.794   0.298   4.037  0.7590  0.4542 -0.1256
19106TIP3   OH278808   0.695   1.562   1.410 -0.4602 -0.0122 -0.0380
19106TIP3    H178809   0.789   1.549   1.417 -0.2161  1.0397 -1.0931
19106TIP3    H278810   0.682   1.655   1.429 -1.2210 -0.0426 -0.3803
19107TIP3   OH278811   6.439   2.873  14.568 -0.3311 -0.2009  0.3897
19107TIP3    H178812   6.462   2.781  14.583 -0.9060 -0.5568 -0.7567
19107TIP3    H278813   6.404   2.874  14.479 -0.8599  1.0376  0.5956
19108TIP3   OH278814   2.219   1.630  16.298  0.0010 -0.0282  0.5711
19108TIP3    H178815   2.220   1.616  16.203 -2.3480  0.6891  0.3864
19108TIP3    H278816   2.241   1.722  16.309 -0.4373  0.0644  0.6746
19109TIP3   OH278817   4.855   3.450   4.166  0.2213  0.0192  0.8049
19109TIP3    H178818   4.895   3.372   4.205  0.4550  0.0741  0.6734
19109TIP3    H278819   4.769   3.420   4.137  0.2382 -0.1444  0.9172
19110TIP3   OH278820   3.911   5.634  17.120 -0.5358 -0.0098  0.1006
19110TIP3    H178821   3.903   5.710  17.179  2.0147  1.5158 -1.3697
19110TIP3    H278822   3.928   5.560  17.179  1.4407  1.3803  1.4078
19111TIP3   OH278823   4.697   4.332  16.495  0.2975 -0.0999 -0.1101
19111TIP3    H178824   4.659   4.415  16.523 -1.0724  0.1919 -2.5362
19111TIP3    H278825   4.751   4.355  16.419  0.2730 -1.3634 -0.5352
19112TIP3   OH278826   2.701   0.631  13.198 -0.7047 -0.2396 -0.4385
19112TIP3    H178827   2.761   0.649  13.125 -0.1828  0.3250  0.1158
19112TIP3    H278828   2.686   0.536  13.195 -1.7168 -0.0577 -2.0523
19113TIP3   OH278829   5.740   4.383   2.481 -0.4354  0.1161 -0.7767
19113TIP3    H178830   5.657   4.431   2.474 -0.0980  0.5495 -2.3706
19113TIP3    H278831   5.772   4.403   2.569 -1.4487  0.8987 -0.5605
19114TIP3   OH278832   5.065   4.168   2.221  0.1697 -0.7644 -0.0261
19114TIP3    H178833   4.989   4.133   2.268 -0.5936 -0.4690 -1.0006
19114TIP3    H278834   5.137   4.110   2.245 -0.3777 -1.0912  0.8658
19115TIP3   OH278835   1.977   3.551  14.363  0.6415 -0.2007 -0.3933
19115TIP3    H178836   2.006   3.462  14.342 -0.3130 -0.4098 -0.9214
19115TIP3    H278837   2.034   3.580  14.433  0.8981 -1.2821 -0.1438
19116TIP3   OH278838   2.018   2.628  16.168  0.1132  0.3699  0.6101
19116TIP3    H178839   1.957   2.656  16.235 -0.9908 -0.0172 -0.2085
19116TIP3    H278840   2.081   2.700  16.161  0.6024  0.1753  2.4295
19117TIP3   OH278841   6.016   0.102  14.809 -0.2810 -0.2313  0.3601
19117TIP3    H178842   6.091   0.118  14.867  1.0143  0.5517 -1.4163
19117TIP3    H278843   6.028   0.164  14.737 -2.6043 -0.1820 -0.0549
19118TIP3   OH278844   1.601   1.474   3.868  0.0106 -0.6000  0.4729
19118TIP3    H178845   1.603   1.566   3.841 -1.7967 -0.6153  0.1703
19118TIP3    H278846   1.637   1.426   3.794 -1.1709 -0.3064 -0.3153
19119TIP3   OH278847   0.355   1.021  11.921  0.4516 -1.1281  0.2337
19119TIP3    H178848   0.308   1.098  11.954 -1.4892 -1.3168 -1.9169
19119TIP3    H278849   0.404   1.054  11.845  0.6336 -1.7741  0.0676
19120TIP3   OH278850   6.672   0.744   3.472 -0.0236 -0.0517  0.5527
19120TIP3    H178851   6.588   0.700   3.466  0.4523 -0.8989  0.0007
19120TIP3    H278852   6.708   0.740   3.384  1.2126 -0.9508  1.0730
19121TIP3   OH278853   4.012   2.591   1.820 -0.3701  0.8175  0.0176
19121TIP3    H178854   3.993   2.565   1.730  0.0864 -2.5514  0.7652
19121TIP3    H278855   4.090   2.645   1.814 -0.1065  0.3015 -1.5729
19122TIP3   OH278856   4.734   1.794  15.225  0.5241  0.5458  0.6265
19122TIP3    H178857   4.751   1.865  15.164  0.7443  0.2857  0.3851
19122TIP3    H278858   4.820   1.767  15.256  0.4257  0.5509  0.9112
19123TIP3   OH278859   3.394   4.716   2.428  0.5188  0.1008 -0.1430
19123TIP3    H178860   3.381   4.797   2.477  0.0176 -0.4201  0.6241
19123TIP3    H278861   3.330   4.720   2.357 -0.6194 -0.3106  0.8255
19124TIP3   OH278862   4.712   4.947  13.900  0.3735 -0.3493  0.7291
19124TIP3    H178863   4.620   4.931  13.878  0.3796 -0.8525  1.0595
19124TIP3    H278864   4.761   4.896  13.836  0.4750  1.1549 -0.4676
19125TIP3   OH278865   4.028   3.117   1.348  0.3249 -0.1146 -0.3122
19125TIP3    H178866   3.958   3.116   1.413 -0.0568 -0.5556 -0.7278
19125TIP3    H278867   3.989   3.159   1.271  1.5952  3.1331  0.6255
19126TIP3   OH278868   3.929   6.038   2.687  0.3040 -0.6874  0.2764
19126TIP3    H178869   3.909   5.946   2.674 -0.4433 -0.5506  0.3831
19126TIP3    H278870   4.019   6.049   2.656  1.5420 -2.0705  3.0332
19127TIP3   OH278871   4.439   2.785  14.319 -0.0259 -0.2181 -0.7581
19127TIP3    H178872   4.464   2.697  14.291 -1.6830 -0.5540 -1.2698
19127TIP3    H278873   4.484   2.843  14.257  2.1952 -0.5758  0.4100
19128TIP3   OH278874   0.965   2.125   3.100  0.0228  0.0465  0.8349
19128TIP3    H178875   1.037   2.188   3.097 -0.6747  0.8158 -1.2253
19128TIP3    H278876   0.997   2.050   3.051 -0.3570  0.1504  0.4267
19129TIP3   OH278877   2.865   5.037  10.466  0.5014  0.4634 -0.7368
19129TIP3    H178878   2.855   5.014  10.558  2.3266 -0.4442 -0.7417
19129TIP3    H278879   2.840   5.130  10.462 -2.9359 -0.2614  0.0047
19130TIP3   OH278880   3.914   3.650  11.348 -0.8026  0.8455  0.5193
19130TIP3    H178881   3.823   3.680  11.346 -1.1090  0.3800  3.2034
19130TIP3    H278882   3.907   3.555  11.360  0.0708  0.6998 -0.0323
19131TIP3   OH278883   3.093   5.915   0.157  0.0139 -0.0776 -0.0825
19131TIP3    H178884   3.119   5.986   0.216 -0.4209 -0.1205  0.1733
19131TIP3    H278885   3.004   5.893   0.185 -0.2864  0.0483 -0.8986
19132TIP3   OH278886   2.688   5.931   5.797  0.6402 -0.1969  0.5811
19132TIP3    H178887   2.717   5.917   5.707  0.4406  3.2701 -0.1518
19132TIP3    H278888   2.617   5.869   5.809  1.1329 -1.2356 -1.3891
19133TIP3   OH278889   0.286   2.094   2.645 -0.0229 -0.1318  0.5140
19133TIP3    H178890   0.247   2.043   2.716 -0.2535 -0.0306  0.4629
19133TIP3    H278891   0.335   2.164   2.689  2.6767 -1.9972  0.7008
19134TIP3   OH278892   4.760   6.598   4.274 -0.0152  0.2129 -0.3645
19134TIP3    H178893   4.717   6.584   4.358 -0.3942  0.6053 -0.4906
19134TIP3    H278894   4.691   6.628   4.216  0.3400  0.4108 -0.6919
19135TIP3   OH278895   0.469   5.127   0.694  0.1354 -0.0447 -0.2452
19135TIP3    H178896   0.475   5.222   0.703 -0.7234  0.1264 -1.3269
19135TIP3    H278897   0.512   5.108   0.611 -0.3102 -0.5235 -0.3711
19136TIP3   OH278898   3.800   5.053  14.937  0.5447  0.1322 -0.1800
19136TIP3    H178899   3.780   5.132  14.988 -1.2536 -0.4207  0.0381
19136TIP3    H278900   3.742   4.986  14.972  1.1320 -0.9612 -1.2192
19137TIP3   OH278901   0.278   4.511  14.361  0.3814  0.5073 -0.1190
19137TIP3    H178902   0.311   4.577  14.421 -0.4214 -0.3476  1.3258
19137TIP3    H278903   0.350   4.495  14.300  1.8417  0.2380  1.6133
19138TIP3   OH278904   3.502   6.109  13.830 -0.5224  0.2711 -0.1289
19138TIP3    H178905   3.511   6.100  13.735  0.7486  1.1072 -0.1105
19138TIP3    H278906   3.500   6.203  13.845 -0.3111  0.1514  0.6962
19139TIP3   OH278907   0.599   2.771  15.811 -0.1694 -0.6550  0.1724
19139TIP3    H178908   0.577   2.792  15.902 -0.3332  1.6909 -0.3297
19139TIP3    H278909   0.527   2.809  15.760  1.6590  1.2975 -1.1038
19140TIP3   OH278910   5.335   5.250   4.404 -0.3947  0.4791 -0.0231
19140TIP3    H178911   5.284   5.181   4.447  1.1328 -0.6829 -0.0084
19140TIP3    H278912   5.378   5.206   4.331  1.1997  1.2037  0.4264
19141TIP3   OH278913   2.371   6.696   0.435  0.3086 -0.2943  0.2463
19141TIP3    H178914   2.442   6.692   0.371 -0.2343 -0.2414 -0.3721
19141TIP3    H278915   2.407   6.746   0.508  0.0078  2.3841 -1.2786
19142TIP3   OH278916   1.374   0.897  14.976 -0.3404 -0.1238 -0.3519
19142TIP3    H178917   1.298   0.911  15.033 -1.3360 -1.2039 -1.3512
19142TIP3    H278918   1.351   0.941  14.894  0.6240  0.5100 -0.3068
19143TIP3   OH278919   4.332   4.815   4.230  0.6459  0.1410  0.1228
19143TIP3    H178920   4.273   4.874   4.183 -0.7483 -0.4290  1.0792
19143TIP3    H278921   4.345   4.742   4.169 -1.6623 -0.9066  0.7519
19144TIP3   OH278922   3.798   0.892  12.001 -0.3008 -0.2339  0.0218
19144TIP3    H178923   3.841   0.936  11.927 -2.7706  0.1716 -1.2940
19144TIP3    H278924   3.815   0.799  11.987 -1.2741 -0.2230 -1.4980
19145TIP3   OH278925   3.130   6.618  13.270  0.3573  0.1040 -0.3980
19145TIP3    H178926   3.114   6.696  13.217  0.4012  1.0500  0.9166
19145TIP3    H278927   3.130   6.546  13.208 -0.2548  1.0878 -1.5857
19146TIP3   OH278928   5.690   1.029   3.640  0.1079 -0.1923  0.3771
19146TIP3    H178929   5.691   1.079   3.558 -3.3849 -1.3569 -0.5548
19146TIP3    H278930   5.747   0.955   3.624  0.8118  0.4917 -0.3666
19147TIP3   OH278931   2.941   0.137  16.003  0.6496 -0.5497 -0.4767
19147TIP3    H178932   2.865   0.141  15.944  1.4472  3.7661 -1.5321
19147TIP3    H278933   3.017   0.144  15.945  1.5187  2.2835  0.8461
19148TIP3   OH278934   4.467   2.770   3.048  0.0006 -0.5198 -0.2339
19148TIP3    H178935   4.384   2.739   3.084  0.2965  0.9333  1.9370
19148TIP3    H278936   4.452   2.777   2.954 -1.8544 -1.6439 -0.0645
19149TIP3   OH278937   4.221   5.811  13.156  0.4087  0.4032 -0.2575
19149TIP3    H178938   4.289   5.852  13.210 -0.1815  1.5455 -0.3469
19149TIP3    H278939   4.254   5.723  13.137  0.8010  0.1044  1.6461
19150TIP3   OH278940   5.638   6.481   2.840 -0.0501  0.0833  0.1260
19150TIP3    H178941   5.621   6.560   2.788 -0.3513 -0.8712 -1.2659
19150TIP3    H278942   5.632   6.511   2.931 -0.3178  1.6282 -0.3696
19151TIP3   OH278943   5.731   3.384   0.610  0.0705 -0.4009  0.4117
19151TIP3    H178944   5.752   3.444   0.681  1.2204 -0.1654 -0.1127
19151TIP3    H278945   5.730   3.439   0.531 -0.7724 -0.7308  0.1818
19152TIP3   OH278946   5.861   4.801   3.963 -0.1274 -0.2734 -0.3764
19152TIP3    H178947   5.798   4.863   4.000  2.5338  1.0023  2.4548
19152TIP3    H278948   5.841   4.800   3.869 -3.3770  1.0639  0.1489
19153TIP3   OH278949   5.048   3.064  15.747  0.9142 -0.0777 -0.1140
19153TIP3    H178950   5.006   3.028  15.668  0.5401  2.8412 -1.3801
19153TIP3    H278951   4.985   3.047  15.817 -0.2418  0.0362 -1.0778
19154TIP3   OH278952   4.629   6.409   4.769 -0.1361  0.0847  0.1400
19154TIP3    H178953   4.690   6.335   4.771 -0.2470 -0.0255 -0.4903
19154TIP3    H278954   4.555   6.380   4.822  1.2619  1.0454  2.8425
19155TIP3   OH278955   0.143   0.105  14.573 -0.1265  0.4900 -0.2631
19155TIP3    H178956   0.095   0.177  14.614  0.7177  0.2129  1.2972
19155TIP3    H278957   0.077   0.039  14.554 -0.9101  1.6420 -1.7122
19156TIP3   OH278958   3.224   0.229  16.309  0.2863  0.0279 -0.4050
19156TIP3    H178959   3.212   0.252  16.401  1.1401 -0.7228 -0.0945
19156TIP3    H278960   3.138   0.196  16.281  0.4411 -1.2745  0.5836
19157TIP3   OH278961   1.899   3.137   3.435 -0.4927 -0.0509 -0.6360
19157TIP3    H178962   1.926   3.045   3.433 -2.2380 -0.6418  0.1239
19157TIP3    H278963   1.961   3.179   3.495  1.3552 -0.3176 -2.2893
19158TIP3   OH278964   1.782   5.389   4.646  0.4280 -0.1872 -0.4622
19158TIP3    H178965   1.807   5.408   4.737 -0.1488  0.4088 -0.4230
19158TIP3    H278966   1.826   5.456   4.594  0.1027 -0.0315 -0.5397
19159TIP3   OH278967   6.675   1.463   4.156 -0.0755  0.2139 -0.0356
19159TIP3    H178968   6.662   1.455   4.062 -1.0584 -1.2753  0.2069
19159TIP3    H278969   6.765   1.494   4.165  0.5752 -1.1502 -1.4234
19160TIP3   OH278970   1.767   1.960  12.322 -0.3629  0.1111 -0.3126
19160TIP3    H178971   1.729   1.875  12.297 -0.4899 -0.3477  1.3641
19160TIP3    H278972   1.722   2.023  12.265 -0.4693 -0.9011 -1.3903
19161TIP3   OH278973   2.101   2.653  11.726 -0.1556  0.2925  0.7537
19161TIP3    H178974   2.035   2.597  11.767 -1.8334  2.8938  1.8576
19161TIP3    H278975   2.062   2.680  11.643 -0.8439  2.3566  1.7000
19162TIP3   OH278976   3.227   0.264   5.503  0.0652 -0.0472  0.0251
19162TIP3    H178977   3.255   0.354   5.520 -0.5247 -0.2575  2.5884
19162TIP3    H278978   3.308   0.216   5.487  0.8238  0.3041  2.3432
19163TIP3   OH278979   0.779   0.287  11.471 -0.1969  0.2690 -0.7602
19163TIP3    H178980   0.759   0.206  11.518 -0.8652  1.5060  1.2171
19163TIP3    H278981   0.848   0.329  11.523  0.3444  0.8571 -1.9112
19164TIP3   OH278982   2.971   4.346  16.878  0.7898  0.5091  0.0943
19164TIP3    H178983   2.905   4.310  16.937 -1.3100  0.5730 -2.0542
19164TIP3    H278984   2.976   4.439  16.900 -1.8482  1.0776 -1.3620
19165TIP3   OH278985   2.835   2.934   3.310  0.1340 -0.0403 -0.2914
19165TIP3    H178986   2.858   3.007   3.253  1.2256 -1.8914 -2.3747
19165TIP3    H278987   2.781   2.973   3.379  1.8551  2.9405 -0.4788
19166TIP3   OH278988   6.774   4.643  16.860  0.3098 -0.6284  0.1217
19166TIP3    H178989   6.805   4.664  16.772  0.9090 -2.1725 -0.0629
19166TIP3    H278990   6.692   4.596  16.845 -0.1240  0.0149  0.4463
19167TIP3   OH278991   2.491   3.392   1.059  0.0664 -0.5381  0.0324
19167TIP3    H178992   2.432   3.317   1.061  0.8450 -1.1614  0.4528
19167TIP3    H278993   2.565   3.365   1.113  1.0783 -0.0634 -1.0812
19168TIP3   OH278994   2.544   1.306  11.188 -0.0431  0.0922 -0.4275
19168TIP3    H178995   2.564   1.277  11.278  1.3182  0.1798 -0.6809
19168TIP3    H278996   2.626   1.292  11.140 -0.7033  0.2239 -1.6201
19169TIP3   OH278997   4.140   4.875   4.558  0.2747 -0.0649  0.0167
19169TIP3    H178998   4.113   4.784   4.552  0.0259 -0.0235  0.4267
19169TIP3    H278999   4.226   4.878   4.517  0.1928 -0.4427 -0.1850
19170TIP3   OH279000   3.033   1.837  13.465 -0.3313  0.0759  0.1011
19170TIP3    H179001   2.956   1.798  13.421  0.5139 -0.7341 -0.7091
19170TIP3    H279002   3.054   1.914  13.411  0.8250 -1.0277 -1.1053
19171TIP3   OH279003   0.250   4.392  11.514 -0.1711 -0.1953 -0.1664
19171TIP3    H179004   0.190   4.425  11.447 -1.8576 -1.0864  0.8475
19171TIP3    H279005   0.253   4.460  11.581 -0.2913 -0.2856 -0.0695
19172TIP3   OH279006   1.811   5.583  14.118  0.8325 -0.2248  0.2541
19172TIP3    H179007   1.810   5.678  14.108  1.1476 -0.2520 -0.0273
19172TIP3    H279008   1.884   5.566  14.178  0.3026 -0.2327  0.9079
19173TIP3   OH279009   0.168   4.394   3.751  0.5549  0.3629  0.2001
19173TIP3    H179010   0.105   4.452   3.709 -0.6209 -0.8594  0.1950
19173TIP3    H279011   0.217   4.355   3.679  1.0445  1.0068  0.1806
19174TIP3   OH279012   4.333   1.170   5.421 -0.1071 -0.1832  0.4400
19174TIP3    H179013   4.400   1.105   5.442 -0.2711 -0.6987 -0.5670
19174TIP3    H279014   4.373   1.254   5.442  1.4728 -0.3614 -1.6357
19175TIP3   OH279015   0.030   3.620   1.549 -0.5320  0.0456 -0.5206
19175TIP3    H179016   0.106   3.603   1.605 -0.9998 -0.4213 -0.0160
19175TIP3    H279017   0.066   3.626   1.460  0.2014  0.6682 -0.1871
19176TIP3   OH279018   5.595   5.851  11.116 -0.3165  0.6855  0.4111
19176TIP3    H179019   5.540   5.817  11.045 -0.0224 -0.7579  0.8389
19176TIP3    H279020   5.684   5.848  11.081 -0.2547  0.7333  0.5630
19177TIP3   OH279021   4.087   3.433   1.396  0.4387 -0.4020 -0.2059
19177TIP3    H179022   4.105   3.378   1.320 -0.2854 -0.5525 -0.2740
19177TIP3    H279023   4.019   3.386   1.444  0.2231  0.1492  0.0392
19178TIP3   OH279024   3.307   3.256   4.560  0.3291 -0.0596 -0.6422
19178TIP3    H179025   3.219   3.290   4.546 -1.3155 -3.6999 -0.1471
19178TIP3    H279026   3.352   3.270   4.476 -0.8025  1.4185 -1.0548
19179TIP3   OH279027   6.115   5.815  13.473  0.1018 -0.1892 -0.8323
19179TIP3    H179028   6.034   5.827  13.522 -0.8038 -2.4313 -1.6349
19179TIP3    H279029   6.098   5.855  13.387  0.9853  1.9907 -0.0583
19180TIP3   OH279030   2.594   1.263  14.471 -0.3398  0.1151 -1.0228
19180TIP3    H179031   2.555   1.196  14.527 -0.4058  0.1459 -1.0326
19180TIP3    H279032   2.527   1.330  14.463  0.5323  1.3169  0.9240
19181TIP3   OH279033   4.473   2.045  12.816  0.2138  0.1452  0.4040
19181TIP3    H179034   4.441   2.105  12.749  1.2069  1.5386  1.1406
19181TIP3    H279035   4.482   1.961  12.771 -1.2653  0.4910 -0.6298
19182TIP3   OH279036   4.643   3.056  11.246 -0.3499 -0.2637  0.3389
19182TIP3    H179037   4.717   3.022  11.196 -0.1305  0.9844 -0.2163
19182TIP3    H279038   4.567   3.040  11.191 -0.0212  1.7882 -0.8031
19183TIP3   OH279039   4.931   0.285  13.560 -0.0335  0.1832  0.1258
19183TIP3    H179040   5.006   0.299  13.503  0.8201 -1.2597  0.8294
19183TIP3    H279041   4.919   0.369  13.605  0.3895  0.7916 -0.8581
19184TIP3   OH279042   1.634   2.168  11.455  0.1571 -0.2623  0.1369
19184TIP3    H179043   1.702   2.225  11.492 -0.8756  0.6209  0.7242
19184TIP3    H279044   1.658   2.081  11.485 -0.1503  0.3203  2.2294
19185TIP3   OH279045   5.968   2.566   0.542  0.5756 -0.2575 -0.3401
19185TIP3    H179046   6.033   2.637   0.543  2.0741 -1.5633  0.2978
19185TIP3    H279047   5.890   2.603   0.581  0.9253  1.3810 -1.1188
19186TIP3   OH279048   2.025   1.785  17.179  0.1741 -0.3575 -0.9099
19186TIP3    H179049   1.946   1.779  17.233 -0.6125 -1.1642 -2.1117
19186TIP3    H279050   2.030   1.877  17.154  0.5202  0.0182  0.4600
19187TIP3   OH279051   4.912   4.848   4.215 -0.4072  0.3555  0.0771
19187TIP3    H179052   5.000   4.815   4.233  0.3426  3.0557  1.9650
19187TIP3    H279053   4.854   4.792   4.267  0.1061 -1.3576 -1.0823
19188TIP3   OH279054   0.156   0.106  15.313 -0.0817 -0.0074 -0.2241
19188TIP3    H179055   0.101   0.036  15.349 -1.2613  1.5161  1.0779
19188TIP3    H279056   0.117   0.126  15.228 -0.7296  0.1611  0.1112
19189TIP3   OH279057   6.280   3.489  14.131 -0.5511  0.1861  0.1182
19189TIP3    H179058   6.233   3.410  14.104 -0.1735  0.7928 -2.5247
19189TIP3    H279059   6.372   3.465  14.126 -0.4036 -0.1679  2.6992
19190TIP3   OH279060   5.357   1.980   1.213 -0.1005 -0.9552  0.0062
19190TIP3    H179061   5.319   1.896   1.190 -1.2044 -0.6539  0.6653
19190TIP3    H279062   5.286   2.028   1.255  1.1788 -0.6283  1.9239
19191TIP3   OH279063   0.098   0.736  13.443  0.2962 -0.2355  0.2819
19191TIP3    H179064   0.022   0.702  13.396  0.8164  0.0539 -0.7939
19191TIP3    H279065   0.145   0.787  13.378 -0.0334  1.9044  1.6226
19192TIP3   OH279066   6.577   4.500   5.571 -0.3698  0.3939 -0.3702
19192TIP3    H179067   6.585   4.589   5.536 -0.3907  0.3583 -0.4665
19192TIP3    H279068   6.667   4.475   5.592 -0.2823  0.1846 -0.9783
19193TIP3   OH279069   5.491   6.280   5.625 -0.1197  0.3640  0.8807
19193TIP3    H179070   5.584   6.283   5.645  0.3607  0.6298 -1.1207
19193TIP3    H279071   5.463   6.193   5.653  1.6887 -1.3014 -1.9274
19194TIP3   OH279072   5.527   4.899  11.448  0.0364  0.1584  0.3579
19194TIP3    H179073   5.462   4.830  11.432  0.1317  0.0390  0.4848
19194TIP3    H279074   5.566   4.914  11.362  0.7421 -0.6805  0.5218
19195TIP3   OH279075   1.421   6.094   0.577  0.0383  0.3732  0.0025
19195TIP3    H179076   1.462   6.009   0.593  0.6477  0.1954 -2.2560
19195TIP3    H279077   1.492   6.150   0.545 -0.7263  1.1774 -0.3297
19196TIP3   OH279078   5.452   0.344   5.598  0.3450 -0.1145  0.0562
19196TIP3    H179079   5.422   0.335   5.507 -1.3548  0.7794  0.4961
19196TIP3    H279080   5.372   0.357   5.649  1.2398 -0.9089  1.7458
19197TIP3   OH279081   2.225   2.283   3.800 -0.3047 -0.2183  0.5832
19197TIP3    H179082   2.179   2.292   3.717 -0.9949 -2.1338  0.6917
19197TIP3    H279083   2.292   2.217   3.783  1.2005  1.1818  0.9272
19198TIP3   OH279084   5.111   6.721   0.792 -0.2469 -0.2843  0.6921
19198TIP3    H179085   5.146   6.633   0.802 -1.2647 -0.8989 -0.8368
19198TIP3    H279086   5.072   6.722   0.705  1.9267  2.4641 -0.3996
19199TIP3   OH279087   6.256   3.905  15.638 -0.6820  0.4976 -0.2031
19199TIP3    H179088   6.219   3.993  15.628 -1.2748  0.2336 -0.3744
19199TIP3    H279089   6.263   3.893  15.733 -1.7470  0.2712 -0.1383
19200TIP3   OH279090   2.362   6.682   1.207 -0.1733  0.3880 -0.1376
19200TIP3    H179091   2.421   6.615   1.242 -1.3612 -0.4820  0.2632
19200TIP3    H279092   2.368   6.755   1.269 -1.1717 -0.5785  1.1569
19201TIP3   OH279093   0.828   2.397  16.377 -0.3766  0.3001  0.0063
19201TIP3    H179094   0.797   2.324  16.430  3.0842 -0.5534  1.0849
19201TIP3    H279095   0.824   2.473  16.435  2.7314 -0.4996  1.4575
19202TIP3   OH279096   3.892   1.667   4.336  0.0755  0.3489  0.4277
19202TIP3    H179097   3.890   1.692   4.243  0.6087 -0.2020  0.2530
19202TIP3    H279098   3.979   1.696   4.366  0.5207 -0.8303  0.3378
19203TIP3   OH279099   2.644   4.260  11.426 -0.0361  0.1189  0.1280
19203TIP3    H179100   2.737   4.272  11.408  0.2210  1.0048  1.8069
19203TIP3    H279101   2.602   4.259  11.340  1.4755  0.0899 -0.6326
19204TIP3   OH279102   0.533   2.607   0.921  0.2297  0.7553  0.0819
19204TIP3    H179103   0.619   2.650   0.926  0.2003  0.9434 -0.7757
19204TIP3    H279104   0.504   2.599   1.012  0.4725  2.0861  0.2924
19205TIP3   OH279105   3.465   6.431   4.847  0.3518 -0.0589 -0.0977
19205TIP3    H179106   3.519   6.504   4.877 -2.0740  1.9394 -0.2378
19205TIP3    H279107   3.379   6.448   4.886 -0.5498 -2.3443 -0.9471
19206TIP3   OH279108   4.998   3.266   4.795 -1.1280 -0.2092 -0.3258
19206TIP3    H179109   5.039   3.346   4.829  0.7303 -1.9198  1.8777
19206TIP3    H279110   4.910   3.292   4.770 -1.4698  2.0635  2.7009
19207TIP3   OH279111   0.060   4.475  17.030  0.1704 -0.2478  0.0182
19207TIP3    H179112   0.017   4.541  16.976  1.3025  1.5477  1.2253
19207TIP3    H279113   0.108   4.420  16.968 -2.5499 -1.4039 -1.2268
19208TIP3   OH279114   3.162   6.230  12.096 -0.7086  0.0529 -0.2829
19208TIP3    H179115   3.102   6.273  12.035  1.5046  2.8367 -0.7023
19208TIP3    H279116   3.174   6.294  12.166  0.6019 -1.0724  0.5556
19209TIP3   OH279117   2.805   3.861   0.230  0.1108 -0.2696  0.8268
19209TIP3    H179118   2.710   3.863   0.216  0.2192 -0.6486  0.0097
19209TIP3    H279119   2.815   3.883   0.323 -0.7143  0.7807  0.6898
19210TIP3   OH279120   2.131   4.156  16.305 -0.1268 -0.1960 -0.2592
19210TIP3    H179121   2.166   4.164  16.216  0.1539  0.6610 -0.0841
19210TIP3    H279122   2.108   4.064  16.314 -2.4368  0.1043 -2.0812
19211TIP3   OH279123   4.984   3.259   4.330 -0.2797 -0.3466  0.0864
19211TIP3    H179124   4.891   3.256   4.353 -0.5471 -0.6317 -0.9817
19211TIP3    H279125   5.027   3.296   4.407 -1.3380  0.2426  0.4041
19212TIP3   OH279126   4.440   1.028  10.934 -0.1400 -0.0564  0.0226
19212TIP3    H179127   4.421   1.058  10.845  1.4012  0.9994  0.0237
19212TIP3    H279128   4.462   0.935  10.923 -0.5437 -0.0929 -0.5941
19213TIP3   OH279129   4.847   6.023  12.899  0.0655 -0.0833  0.2227
19213TIP3    H179130   4.829   6.107  12.942  2.5268  0.9886 -0.6273
19213TIP3    H279131   4.871   6.047  12.810 -2.2302 -2.0249 -1.0109
19214TIP3   OH279132   6.049   6.816   3.591 -0.1491 -0.1392 -0.5689
19214TIP3    H179133   6.055   6.810   3.496  2.7451 -0.3645 -0.4609
19214TIP3    H279134   5.986   6.748   3.615  1.5942 -2.4908 -2.1623
19215TIP3   OH279135   1.498   4.413  12.076 -0.5204 -0.6837 -0.1513
19215TIP3    H179136   1.454   4.389  12.157  0.2494 -0.4874  0.3352
19215TIP3    H279137   1.591   4.411  12.098 -0.3664  1.9416 -0.2813
19216TIP3   OH279138   6.089   2.721  12.012  0.6086  0.5965  0.1251
19216TIP3    H179139   6.074   2.687  12.100 -0.5741  1.7698  0.4056
19216TIP3    H279140   6.006   2.761  11.987  0.9946  0.4614 -1.4470
19217TIP3   OH279141   6.350   3.809   2.071 -0.2798 -0.3987 -0.6070
19217TIP3    H179142   6.313   3.793   2.158 -0.4741 -1.6527 -0.9008
19217TIP3    H279143   6.438   3.770   2.075 -0.2287 -0.3196 -0.9150
19218TIP3   OH279144   3.170   3.665   6.202  0.0723  0.6759 -0.3905
19218TIP3    H179145   3.083   3.627   6.214  0.7605 -1.0283 -0.5524
19218TIP3    H279146   3.155   3.738   6.141 -1.3385  0.9394  0.2109
19219TIP3   OH279147   1.122   1.683   0.424 -0.5494 -0.2309 -0.1332
19219TIP3    H179148   1.077   1.764   0.444 -0.4436  0.0530 -1.0067
19219TIP3    H279149   1.054   1.615   0.427 -1.1376  0.2342 -1.7637
19220TIP3   OH279150   0.230   3.503  10.822  0.3904  0.1590  0.0959
19220TIP3    H179151   0.203   3.412  10.816  3.0121 -0.8808  2.2032
19220TIP3    H279152   0.166   3.543  10.881  0.4335 -0.9212  0.9160
19221TIP3   OH279153   0.952   2.176  12.452  0.1588  0.5136 -0.1226
19221TIP3    H179154   1.019   2.170  12.383 -0.3229  0.6955 -0.6140
19221TIP3    H279155   0.884   2.114  12.425 -0.1814  0.8212  0.0235
19222TIP3   OH279156   5.973   5.229  12.761 -0.1145  0.2392 -0.2550
19222TIP3    H179157   6.056   5.190  12.733 -0.3122 -1.1163  0.9884
19222TIP3    H279158   5.939   5.170  12.827 -1.6089  1.3013 -0.0246
19223TIP3   OH279159   1.819   4.653  11.624 -0.1769 -0.3820  0.2194
19223TIP3    H179160   1.857   4.644  11.711  2.1396  0.3344 -0.6338
19223TIP3    H279161   1.821   4.748  11.607  1.9870 -0.6771 -1.6074
19224TIP3   OH279162   0.190   6.386   3.123 -0.4477 -0.3382 -0.7830
19224TIP3    H179163   0.139   6.306   3.131 -1.8035  0.6898  1.9514
19224TIP3    H279164   0.156   6.429   3.045 -0.6343 -1.7494 -1.5105
19225TIP3   OH279165   0.188   2.764  15.833 -0.0789  0.5881  0.4542
19225TIP3    H179166   0.258   2.765  15.898 -1.1223 -1.7871  1.7165
19225TIP3    H279167   0.108   2.756  15.884 -1.1594  1.4511 -1.0418
19226TIP3   OH279168   3.036   5.542   0.195 -0.2551  0.5337 -0.1557
19226TIP3    H179169   3.008   5.455   0.167 -2.7036  1.8339 -2.2619
19226TIP3    H279170   3.096   5.571   0.126 -0.2726  0.9080 -0.0159
19227TIP3   OH279171   5.131   0.506  12.771 -0.6770  0.1252 -0.2345
19227TIP3    H179172   5.106   0.593  12.801 -0.2891  0.7136 -1.5555
19227TIP3    H279173   5.223   0.497  12.796 -1.5744 -1.3691  3.0948
19228TIP3   OH279174   6.620   1.539   2.882 -0.7158  0.2480  0.2682
19228TIP3    H179175   6.670   1.504   2.955 -0.8746 -0.1470  0.1896
19228TIP3    H279176   6.553   1.594   2.922 -0.0657  0.9935  0.3655
19229TIP3   OH279177   6.142   5.742   6.247  0.4458 -0.3312 -0.6756
19229TIP3    H179178   6.172   5.808   6.186  0.3313 -0.3454 -0.7479
19229TIP3    H279179   6.196   5.754   6.325 -0.7699  1.0391  0.0162
19230TIP3   OH279180   0.559   1.474  11.898 -0.1297  0.2435  0.0285
19230TIP3    H179181   0.486   1.475  11.960 -0.5811  2.2288 -0.4654
19230TIP3    H279182   0.526   1.522  11.822  1.9195  1.9229  0.1102
19231TIP3   OH279183   3.032   6.736   1.322 -0.5131  0.3186 -0.7032
19231TIP3    H179184   3.071   6.767   1.404 -0.6695  0.7027 -0.7737
19231TIP3    H279185   2.943   6.771   1.322  0.0359  1.8266 -1.8599
19232TIP3   OH279186   1.364   4.918   3.110  0.0635 -0.7172 -0.2389
19232TIP3    H179187   1.420   4.911   3.186 -0.0811 -1.6574 -0.2050
19232TIP3    H279188   1.362   4.829   3.073 -0.2899 -0.3948 -1.0267
19233TIP3   OH279189   6.681   0.909  11.569  0.1483  0.6522  0.1072
19233TIP3    H179190   6.603   0.934  11.520 -0.1705  0.5623  0.5598
19233TIP3    H279191   6.738   0.986  11.564  0.0416  0.7113 -0.2390
19234TIP3   OH279192   1.872   3.388   1.294  0.9219  0.4110  0.2770
19234TIP3    H179193   1.963   3.360   1.284  0.2708 -0.9935 -2.8284
19234TIP3    H279194   1.868   3.476   1.257  0.9763  0.4306  0.3176
19235TIP3   OH279195   2.614   2.228  14.488 -0.4432 -0.4484 -0.2732
19235TIP3    H179196   2.655   2.247  14.572 -0.1259 -1.1807 -0.2519
19235TIP3    H279197   2.640   2.138  14.468 -2.4583 -1.1546 -0.0018
19236TIP3   OH279198   4.779   0.108   4.059  0.5004  0.1610 -0.3672
19236TIP3    H179199   4.761   0.065   3.975  1.2673  1.1725 -1.0743
19236TIP3    H279200   4.868   0.142   4.050  1.2490 -1.1265  1.4796
19237TIP3   OH279201   1.063   5.920  16.488  0.5143  0.4656  0.3658
19237TIP3    H179202   1.079   6.014  16.488  2.1526  0.2320  1.3386
19237TIP3    H279203   1.117   5.887  16.560 -1.5301 -0.9853  1.3592
19238TIP3   OH279204   3.533   4.991  14.511  0.0762  0.1202  0.2316
19238TIP3    H179205   3.532   5.023  14.601  0.0244 -1.0768  0.6674
19238TIP3    H279206   3.616   5.021  14.475  0.6460 -0.4409  1.0696
19239TIP3   OH279207   2.129   6.710  11.158  0.0051  0.4657  0.2448
19239TIP3    H179208   2.174   6.625  11.162 -1.5686 -0.4763 -0.8865
19239TIP3    H279209   2.155   6.746  11.073  0.3031  0.9158  0.5246
19240TIP3   OH279210   3.415   3.733   3.089  0.3313 -0.0704  0.3069
19240TIP3    H179211   3.389   3.710   3.178 -0.6415 -0.2198 -0.0038
19240TIP3    H279212   3.390   3.658   3.036  1.5607 -0.2785  0.0041
19241TIP3   OH279213   1.536   4.849   2.125  0.1490  0.1485  0.2663
19241TIP3    H179214   1.479   4.772   2.117 -0.4939  0.5278  1.0529
19241TIP3    H279215   1.478   4.923   2.107  1.1487  0.4155 -2.3278
19242TIP3   OH279216   1.450   6.833  15.886 -0.1711  0.1977  0.9499
19242TIP3    H179217   1.364   6.791  15.887 -1.1129  1.6731 -2.4472
19242TIP3    H279218   1.504   6.776  15.831  0.0171  0.8478  0.4391
19243TIP3   OH279219   4.155   1.970  13.918 -0.2187 -0.4515 -0.2194
19243TIP3    H179220   4.247   1.948  13.931 -0.0613 -0.4022 -1.1306
19243TIP3    H279221   4.158   2.057  13.878 -0.6325 -0.6397 -0.6705
19244TIP3   OH279222   3.376   5.526  16.812  0.2283  0.1413 -0.1195
19244TIP3    H179223   3.376   5.465  16.885  0.0340 -2.1302 -1.8978
19244TIP3    H279224   3.389   5.471  16.735 -0.3368  2.3196 -1.8798
19245TIP3   OH279225   1.012   0.928   0.335 -0.0416 -0.0806 -0.1563
19245TIP3    H179226   0.995   0.887   0.420 -0.0532  1.0973  0.4394
19245TIP3    H279227   0.926   0.962   0.307  0.0118 -0.2370 -0.5160
19246TIP3   OH279228   2.850   3.416  10.748  0.1979 -0.1418 -0.5746
19246TIP3    H179229   2.776   3.477  10.744 -0.4464 -0.7722  0.7916
19246TIP3    H279230   2.844   3.378  10.836  1.9097 -0.5263 -0.5968
19247TIP3   OH279231   5.159   6.342  15.462  0.1750  0.2323  0.4185
19247TIP3    H179232   5.198   6.422  15.498 -0.5795  0.1702  1.4059
19247TIP3    H279233   5.066   6.362  15.457 -0.1338 -0.8624  1.4381
19248TIP3   OH279234   5.340   1.360   1.119  0.2461  0.1627 -0.0316
19248TIP3    H179235   5.392   1.286   1.150 -1.3350 -0.1229  2.1617
19248TIP3    H279236   5.376   1.435   1.168  0.2965  0.4289 -0.4767
19249TIP3   OH279237   3.218   4.250   1.021 -0.1305 -0.4186 -0.8970
19249TIP3    H179238   3.144   4.254   1.083 -0.2095  1.1235 -1.0607
19249TIP3    H279239   3.178   4.263   0.935 -0.1181 -3.2736 -1.4387
19250TIP3   OH279240   3.763   0.831  14.116 -0.2856  0.1299  0.1163
19250TIP3    H179241   3.791   0.750  14.073 -0.2939 -0.2264  0.7792
19250TIP3    H279242   3.751   0.893  14.044  3.1394  0.6336 -0.2232
19251TIP3   OH279243   2.736   3.146  14.930 -0.1945  0.7171 -0.4571
19251TIP3    H179244   2.741   3.062  14.975 -0.4717  0.5942 -0.6538
19251TIP3    H279245   2.684   3.129  14.852 -0.3664  1.1033 -0.4304
19252TIP3   OH279246   4.256   6.099   2.939  0.1824  0.2490 -0.0458
19252TIP3    H179247   4.244   6.027   2.877  0.0227  0.3442 -0.1279
19252TIP3    H279248   4.310   6.163   2.892  1.4506 -0.3920  0.4978
19253TIP3   OH279249   4.742   0.386   3.459 -0.1933 -0.0479  0.2945
19253TIP3    H179250   4.697   0.469   3.442  1.3941  0.9660  0.8978
19253TIP3    H279251   4.754   0.347   3.373  2.1556  2.0512 -0.4385
19254TIP3   OH279252   1.741   3.996   1.678  0.5961 -0.2484  0.2568
19254TIP3    H179253   1.818   3.941   1.668  0.6247 -0.0613 -0.6046
19254TIP3    H279254   1.748   4.060   1.608  0.2376  0.4693  0.8589
19255TIP3   OH279255   5.878   1.544  17.145  0.2723  0.6728  0.0051
19255TIP3    H179256   5.887   1.580  17.233  1.4469 -2.2116  1.2258
19255TIP3    H279257   5.831   1.461  17.158 -1.3293  1.1069 -2.4064
19256TIP3   OH279258   6.577   2.125   5.666 -0.5049 -0.1601  0.0022
19256TIP3    H179259   6.541   2.055   5.721 -2.4204 -0.2227 -1.2321
19256TIP3    H279260   6.549   2.206   5.709 -0.2589 -0.1682  0.1845
19257TIP3   OH279261   2.296   5.997  16.558  0.4982 -0.6184 -0.5576
19257TIP3    H179262   2.296   6.092  16.569 -0.7261 -0.8271  2.1941
19257TIP3    H279263   2.385   5.970  16.576  0.3394 -0.1424  1.0859
19258TIP3   OH279264   6.589   3.358  13.007  0.1190  0.0167 -0.0388
19258TIP3    H179265   6.508   3.333  13.052  0.7768 -1.2417  0.4912
19258TIP3    H279266   6.563   3.375  12.917 -0.4639 -2.2942 -0.3572
19259TIP3   OH279267   0.531   6.197   2.179 -0.4635 -0.6409  0.1273
19259TIP3    H179268   0.613   6.166   2.142  0.0735  1.2646 -0.4178
19259TIP3    H279269   0.515   6.281   2.136 -0.7054  0.8725  2.9103
19260TIP3   OH279270   1.824   6.468  14.161 -0.2738 -0.0062 -0.3898
19260TIP3    H179271   1.893   6.402  14.165  0.4240  0.5235 -2.3732
19260TIP3    H279272   1.743   6.418  14.169  0.2514 -1.0871 -1.5107
19261TIP3   OH279273   4.134   2.936   4.994  0.7287 -0.4407 -0.1780
19261TIP3    H179274   4.110   2.873   4.925 -0.1214  0.2337 -0.5132
19261TIP3    H279275   4.183   2.884   5.058 -0.3722 -1.5687 -0.2086
19262TIP3   OH279276   4.872   3.482  12.557  0.1716 -0.7480 -0.8492
19262TIP3    H179277   4.907   3.530  12.482  0.6352  1.8092  0.8777
19262TIP3    H279278   4.841   3.551  12.617  0.4450 -2.6296  1.6030
19263TIP3   OH279279   6.259   2.361   0.323  0.8736  0.4959 -0.0871
19263TIP3    H179280   6.212   2.334   0.402  0.1863  0.9333 -0.3317
19263TIP3    H279281   6.218   2.444   0.298  0.2255 -0.2210 -1.5951
19264TIP3   OH279282   0.859   5.090   3.222 -0.0273 -0.3583 -0.8327
19264TIP3    H179283   0.820   5.138   3.295  0.4015  0.8782 -1.4023
19264TIP3    H279284   0.952   5.112   3.225 -0.2095  0.7968 -2.5384
19265TIP3   OH279285   1.303   5.495  13.524  0.1112  0.0784  0.1024
19265TIP3    H179286   1.266   5.517  13.438 -0.5516 -2.5781 -0.3890
19265TIP3    H279287   1.367   5.427  13.506 -1.1541 -1.6667  1.8147
19266TIP3   OH279288   1.634   2.145  15.827 -0.0580 -0.7506 -0.0019
19266TIP3    H179289   1.545   2.176  15.845 -0.2169 -1.8742  1.3860
19266TIP3    H279290   1.628   2.050  15.839  1.3678 -0.8152  0.3135
19267TIP3   OH279291   0.614   3.602   3.136  0.2711  0.1090  0.8414
19267TIP3    H179292   0.630   3.600   3.230 -1.5407 -0.5609  1.1826
19267TIP3    H279293   0.594   3.511   3.113  1.7224  0.0673 -0.4266
19268TIP3   OH279294   2.056   0.250   4.724  0.5303  0.3932 -0.4384
19268TIP3    H179295   2.143   0.232   4.688  0.4632 -1.1719  0.0965
19268TIP3    H279296   1.995   0.215   4.658  0.3473  0.3379 -0.2441
19269TIP3   OH279297   2.509   3.533   5.763  0.2922 -0.4816  0.0560
19269TIP3    H179298   2.540   3.520   5.673 -1.5735 -2.4386 -0.3949
19269TIP3    H279299   2.588   3.524   5.817  1.2025 -0.8319 -1.2823
19270TIP3   OH279300   4.266   4.559  11.009  0.1113  0.3290 -0.3826
19270TIP3    H179301   4.333   4.589  10.948 -1.0975 -0.6597 -2.3214
19270TIP3    H279302   4.183   4.587  10.969 -0.7055  0.8319  1.5297
19271TIP3   OH279303   6.127   0.976   1.615  0.9059  0.0496 -0.6339
19271TIP3    H179304   6.189   0.904   1.602 -0.0291 -0.8355 -0.3598
19271TIP3    H279305   6.176   1.042   1.665  0.6979 -2.1082  2.7803
19272TIP3   OH279306   0.179   3.472   4.473 -0.7503  0.2896 -0.1183
19272TIP3    H179307   0.089   3.466   4.506 -0.9760  1.4651 -0.4702
19272TIP3    H279308   0.169   3.477   4.378 -0.2631 -0.1664 -0.1999
19273TIP3   OH279309   2.498   4.786  11.453 -0.8247 -0.2481  0.0469
19273TIP3    H179310   2.430   4.854  11.450 -1.4383 -0.8535 -0.1586
19273TIP3    H279311   2.491   4.742  11.368  0.1985  0.0269 -0.1871
19274TIP3   OH279312   6.540   5.880   0.013  0.4544 -0.0351  0.0230
19274TIP3    H179313   6.573   5.864   0.102  2.4395  0.4914 -0.5500
19274TIP3    H279314   6.603   5.836  -0.044 -0.7388 -0.2939 -1.1457
19275TIP3   OH279315   2.341   0.721   3.859 -0.3842 -0.0221  0.0823
19275TIP3    H179316   2.385   0.788   3.912 -0.3433  0.8030 -0.9610
19275TIP3    H279317   2.413   0.672   3.819 -0.2793  2.1498 -2.6634
19276TIP3   OH279318   0.588   4.711  13.355  0.8666  0.0766 -0.6811
19276TIP3    H179319   0.545   4.752  13.279 -0.8619 -1.8190 -0.7924
19276TIP3    H279320   0.589   4.779  13.422 -2.1823  0.3181 -0.7573
19277TIP3   OH279321   2.803   2.193  16.954 -0.2276  0.2658 -0.1071
19277TIP3    H179322   2.869   2.171  16.888 -0.1006  0.3533 -0.0113
19277TIP3    H279323   2.830   2.278  16.987  0.0693 -0.0515  0.4985
19278TIP3   OH279324   4.367   5.253  16.448 -0.8006  0.0825 -0.3245
19278TIP3    H179325   4.274   5.233  16.459 -0.5109 -1.3102 -0.2347
19278TIP3    H279326   4.389   5.309  16.522 -1.4636  0.0499 -0.0969
19279TIP3   OH279327   0.061   6.549  14.008 -0.6634 -0.2956 -0.0441
19279TIP3    H179328  -0.001   6.548  13.934 -2.2334  0.2700  1.2167
19279TIP3    H279329   0.074   6.641  14.028 -0.4825 -0.4540  0.5837
19280TIP3   OH279330   5.597   3.574   4.103 -0.2945  0.0210 -0.6397
19280TIP3    H179331   5.650   3.646   4.140 -0.4778  0.9738 -2.1543
19280TIP3    H279332   5.599   3.507   4.171  0.0137  1.3860  0.7817
19281TIP3   OH279333   0.771   1.084   3.507  0.4122 -0.2084 -0.3430
19281TIP3    H179334   0.723   1.054   3.584  1.3336 -1.6997 -0.2996
19281TIP3    H279335   0.863   1.071   3.529  0.7062 -0.5178 -1.6263
19282TIP3   OH279336   5.203   4.959   4.809 -0.1811  0.4969 -0.5193
19282TIP3    H179337   5.123   4.924   4.770  0.4392 -1.0120 -0.5010
19282TIP3    H279338   5.173   5.012   4.883 -1.1578  0.0331 -0.5760
19283TIP3   OH279339   4.904   6.159  13.328 -0.2983 -0.3506  0.1645
19283TIP3    H179340   4.974   6.159  13.393 -2.4115  2.5526  2.7266
19283TIP3    H279341   4.942   6.203  13.252  1.1478 -0.3794  0.8385
19284TIP3   OH279342   4.118   2.047  16.583  0.3701  0.4866 -0.2994
19284TIP3    H179343   4.192   2.034  16.523  1.5812 -0.7011  1.3570
19284TIP3    H279344   4.041   2.042  16.527  1.4767  0.3979 -1.8964
19285TIP3   OH279345   4.329   0.388   1.639  0.3016 -0.0220 -0.6366
19285TIP3    H179346   4.361   0.369   1.728 -0.5189 -0.1575 -0.3612
19285TIP3    H279347   4.408   0.390   1.585  0.8897  0.7190  0.2135
19286TIP3   OH279348   0.506   2.903  13.873  0.0220 -0.0125 -0.0788
19286TIP3    H179349   0.503   2.808  13.875  1.5010 -0.0747  0.0656
19286TIP3    H279350   0.520   2.929  13.964 -3.2272  0.5193  0.3713
19287TIP3   OH279351   6.295   3.052  10.704  0.1099 -0.2188  0.9112
19287TIP3    H179352   6.245   3.086  10.630  0.3506  0.2979  0.9848
19287TIP3    H279353   6.329   2.968  10.674  2.2557  1.0676 -0.4486
19288TIP3   OH279354   3.605   3.054  14.115 -0.1115 -0.0147  0.5255
19288TIP3    H179355   3.628   3.129  14.170  0.7062 -0.8249  1.3291
19288TIP3    H279356   3.511   3.064  14.099  0.1854  1.8048 -0.3770
19289TIP3   OH279357   1.759   3.884  14.361 -0.0108  0.1769 -0.1922
19289TIP3    H179358   1.755   3.792  14.334 -1.6348  0.2877 -0.4056
19289TIP3    H279359   1.812   3.926  14.293 -1.8083 -0.0492 -1.8107
19290TIP3   OH279360   0.382   2.727   5.509 -0.1094 -0.3502 -0.0570
19290TIP3    H179361   0.389   2.739   5.414 -0.6627  0.0831 -0.0464
19290TIP3    H279362   0.293   2.695   5.522  0.1156 -0.8431  0.2759
19291TIP3   OH279363   0.563   0.495  16.866  0.1589 -0.2012 -0.5958
19291TIP3    H179364   0.585   0.584  16.839 -1.4983 -0.0914 -1.7365
19291TIP3    H279365   0.633   0.440  16.830  2.3514  0.7824  1.8797
19292TIP3   OH279366   0.088   0.270   4.721 -0.3464 -0.3524 -0.1022
19292TIP3    H179367   0.089   0.269   4.816 -1.5750  0.0893 -0.0642
19292TIP3    H279368   0.173   0.235   4.695  0.7297  1.2283  1.1515
19293TIP3   OH279369   2.803   6.716   0.313 -0.0679  0.3041  0.3173
19293TIP3    H179370   2.867   6.752   0.252  0.4323 -0.3689  0.4358
19293TIP3    H279371   2.835   6.742   0.400  1.1675 -1.7062  0.5178
19294TIP3   OH279372   5.644   4.777  13.551 -0.0267  0.1784 -0.1546
19294TIP3    H179373   5.581   4.762  13.480  1.2138 -1.7571 -0.9220
19294TIP3    H279374   5.728   4.750  13.515  0.7787 -0.0636  1.7819
19295TIP3   OH279375   5.526   4.516   6.182  0.2814 -0.2696  0.3216
19295TIP3    H179376   5.584   4.588   6.205 -0.3527  0.3975 -0.0986
19295TIP3    H279377   5.563   4.439   6.225  0.1311  0.5977  2.0625
19296TIP3   OH279378   1.714   0.494   3.698 -0.4351  0.0079  0.0610
19296TIP3    H179379   1.746   0.580   3.723 -1.4173 -0.1640  2.1850
19296TIP3    H279380   1.629   0.510   3.658  0.6390  0.1879 -2.3292
19297TIP3   OH279381   4.965   3.236  16.966  0.0924 -0.9122  0.3849
19297TIP3    H179382   4.905   3.270  17.032 -0.9897 -0.4199 -0.8185
19297TIP3    H279383   4.919   3.160  16.929 -1.7132  1.6585 -3.2468
19298TIP3   OH279384   3.722   1.006   5.533 -0.3536 -0.2164  1.0690
19298TIP3    H179385   3.648   1.067   5.531  0.6062  1.0247  1.8528
19298TIP3    H279386   3.765   1.019   5.449  0.0057  0.4291  1.3392
19299TIP3   OH279387   6.743   4.686  12.485  0.3548  0.4841 -0.1951
19299TIP3    H179388   6.649   4.704  12.480  0.3887  0.6950 -0.0703
19299TIP3    H279389   6.776   4.706  12.397  0.5371  1.8751  0.1685
19300TIP3   OH279390   2.351   2.583   2.710 -0.1860 -0.0470  0.6261
19300TIP3    H179391   2.391   2.560   2.794 -1.7386 -1.5196  1.0255
19300TIP3    H279392   2.389   2.522   2.647  1.9184  1.8545 -0.0885
19301TIP3   OH279393   1.869   3.392  15.334  0.0598 -1.0765  0.4327
19301TIP3    H179394   1.925   3.315  15.343  0.0751 -1.1594 -0.2825
19301TIP3    H279395   1.785   3.366  15.370  0.1915 -1.2856  0.5878
19302TIP3   OH279396   6.122   6.694   5.225 -0.2565 -0.2881  0.1928
19302TIP3    H179397   6.072   6.759   5.275  0.4661  1.3162 -1.0586
19302TIP3    H279398   6.059   6.625   5.205 -1.1861  0.2497  1.1683
19303TIP3   OH279399   6.845   5.269  10.964  0.4979  0.6978  0.3117
19303TIP3    H179400   6.831   5.258  11.058 -1.5597 -0.3640 -0.0640
19303TIP3    H279401   6.810   5.355  10.944  0.0671  0.5342  0.3657
19304TIP3   OH279402   6.735   5.648  13.939 -0.5893  0.5261  0.1977
19304TIP3    H179403   6.663   5.592  13.910 -0.8220  0.9676 -0.0819
19304TIP3    H279404   6.814   5.603  13.908 -0.7513  0.1867  0.2631
19305TIP3   OH279405   4.222   5.824   4.404 -0.0001 -0.2793 -0.3480
19305TIP3    H179406   4.264   5.864   4.328  2.3334 -0.6972  0.6587
19305TIP3    H279407   4.185   5.742   4.370  0.5776 -0.2298 -1.1366
19306TIP3   OH279408   2.100   6.766   4.072  0.1012  0.4599 -0.3305
19306TIP3    H179409   2.063   6.783   3.986  2.8496  0.3716 -1.6259
19306TIP3    H279410   2.033   6.714   4.117 -2.1016  1.8783 -1.7505
19307TIP3   OH279411   6.097   3.334  15.050 -0.0483 -0.4053 -0.2859
19307TIP3    H179412   6.028   3.362  15.110  0.0838 -0.8480  0.0835
19307TIP3    H279413   6.176   3.377  15.082  0.4092 -2.1306  1.0579
19308TIP3   OH279414   2.594   2.883   2.675  0.1284 -0.0385 -0.5453
19308TIP3    H179415   2.638   2.798   2.675 -0.0559 -0.1384 -0.7894
19308TIP3    H279416   2.530   2.876   2.604 -1.1006 -0.3359  0.5506
19309TIP3   OH279417   3.790   2.110  16.225 -0.2099  0.0715  0.0617
19309TIP3    H179418   3.738   2.190  16.221 -0.4800 -0.1613 -1.6669
19309TIP3    H279419   3.838   2.108  16.143  1.9871 -0.1376  1.2741
19310TIP3   OH279420   3.947   0.746   3.113 -0.2375 -0.0798 -0.1929
19310TIP3    H179421   3.907   0.739   3.026  0.4274  1.9282 -0.7298
19310TIP3    H279422   3.948   0.657   3.146 -1.8832 -0.6945 -1.6207
19311TIP3   OH279423   1.535   0.402  14.033  0.2439 -0.6199  0.7177
19311TIP3    H179424   1.522   0.311  14.008  1.0565 -0.6297  0.2864
19311TIP3    H279425   1.615   0.401  14.086 -0.0677 -0.2367  1.2028
19312TIP3   OH279426   1.253   5.178   5.119 -0.3274 -0.4264  0.1198
19312TIP3    H179427   1.307   5.250   5.087 -1.3345  0.8959  1.2509
19312TIP3    H279428   1.306   5.138   5.188 -0.6257  0.6641  1.0118
19313TIP3   OH279429   5.326   5.611  11.109 -0.2119  0.0444 -0.4013
19313TIP3    H179430   5.262   5.593  11.178 -1.6020 -1.9390 -2.0510
19313TIP3    H279431   5.282   5.673  11.051  0.9153  1.6406  0.3836
19314TIP3   OH279432   6.313   0.422   4.438  0.8316  0.0245 -0.1079
19314TIP3    H179433   6.311   0.503   4.489 -0.7025 -1.0724  1.7110
19314TIP3    H279434   6.221   0.393   4.435  1.3028 -1.5123 -0.9528
19315TIP3   OH279435   0.195   2.229  11.223 -0.5305  0.3448  0.8410
19315TIP3    H179436   0.204   2.315  11.182  0.1765 -0.9219 -1.9755
19315TIP3    H279437   0.109   2.230  11.264 -1.9352  1.4203 -1.8853
19316TIP3   OH279438   6.386   3.077   5.214  0.0029 -0.0824  0.1094
19316TIP3    H179439   6.439   3.017   5.162 -0.9685  0.6340 -1.8138
19316TIP3    H279440   6.302   3.033   5.224  0.0740 -0.0675  0.7976
19317TIP3   OH279441   6.327   4.916  11.851  0.0286  0.1463 -0.1584
19317TIP3    H179442   6.344   4.973  11.776 -1.2863  2.0379  0.8730
19317TIP3    H279443   6.254   4.959  11.897 -0.1845 -1.7403  1.3885
19318TIP3   OH279444   4.547   5.035  13.342  0.4059 -0.1755 -0.1157
19318TIP3    H179445   4.496   5.090  13.283 -0.4128  0.9462  1.5375
19318TIP3    H279446   4.521   4.945  13.322  0.1962  0.1731 -1.4529
19319TIP3   OH279447   4.732   4.936  15.198  0.2027  0.1530  0.0665
19319TIP3    H179448   4.679   4.940  15.277 -0.7975 -1.2755 -0.4962
19319TIP3    H279449   4.732   4.843  15.174  1.2859  0.4255 -1.0796
19320TIP3   OH279450   4.008   2.882  14.352  0.4057  0.2347 -0.5523
19320TIP3    H179451   4.024   2.793  14.384  0.8293  0.7018  0.5996
19320TIP3    H279452   3.913   2.887  14.340  0.6010 -1.5764 -4.4308
19321TIP3   OH279453   1.010   5.858   0.103  0.1072  0.7176  0.1124
19321TIP3    H179454   0.940   5.802   0.071 -0.5066  1.7180 -0.3295
19321TIP3    H279455   1.083   5.797   0.121 -0.0962 -0.0765 -1.5496
19322TIP3   OH279456   6.781   5.252  11.928 -0.2506 -0.0856  0.2380
19322TIP3    H179457   6.698   5.289  11.898  0.1187  0.4504 -0.1445
19322TIP3    H279458   6.801   5.183  11.865 -0.1550  0.1293  0.0299
19323TIP3   OH279459   5.181   4.054  11.968  0.9862  0.0272 -0.2480
19323TIP3    H179460   5.159   3.964  11.992  2.3465 -0.7539 -1.7136
19323TIP3    H279461   5.193   4.098  12.052  0.4194 -1.1889  0.5063
19324TIP3   OH279462   6.739   3.187  16.993 -0.5451  0.1535  0.1307
19324TIP3    H179463   6.680   3.154  17.061  0.3037 -0.3542  0.6427
19324TIP3    H279464   6.818   3.134  17.002  0.2855  1.3197 -0.0524
19325TIP3   OH279465   6.712   3.275  16.509 -0.0360  0.0755 -0.6349
19325TIP3    H179466   6.692   3.193  16.464 -1.8349  0.0191  0.2061
19325TIP3    H279467   6.701   3.342  16.441  2.2923 -0.3848 -1.5571
19326TIP3   OH279468   3.917   3.280   1.821 -0.7049 -0.2384  0.3311
19326TIP3    H179469   3.971   3.238   1.754 -1.5946 -0.2843 -0.3798
19326TIP3    H279470   3.975   3.343   1.863 -0.7168  1.4886 -2.0565
19327TIP3   OH279471   1.517   5.890   4.975 -0.0859 -0.0924 -0.2875
19327TIP3    H179472   1.479   5.977   4.979  0.7240  0.2140  2.6610
19327TIP3    H279473   1.535   5.867   5.066  0.2264 -3.1334 -1.0176
19328TIP3   OH279474   2.342   4.820   2.238  0.3146 -0.1196  0.0494
19328TIP3    H179475   2.420   4.799   2.186  0.8519  0.3100  0.6652
19328TIP3    H279476   2.279   4.853   2.174  0.0987 -1.8383 -0.6802
19329TIP3   OH279477   2.602   1.534   0.453 -0.0488  0.2370  0.4423
19329TIP3    H179478   2.649   1.581   0.384 -1.5249 -0.5815 -1.2198
19329TIP3    H279479   2.538   1.597   0.487 -0.6455  0.0860 -0.3584
19330TIP3   OH279480   4.231   4.602   2.786  0.3753 -0.6445  0.4505
19330TIP3    H179481   4.223   4.693   2.758 -0.1271 -0.2858  1.7053
19330TIP3    H279482   4.155   4.558   2.749 -0.4272 -0.1178  1.4568
19331TIP3   OH279483   5.702   2.859   4.146 -0.8423  0.6583  0.2704
19331TIP3    H179484   5.728   2.942   4.187  0.4638  0.7299 -0.6470
19331TIP3    H279485   5.675   2.882   4.058  0.3328  0.0318 -0.2774
19332TIP3   OH279486   5.841   5.695   4.466  0.3453 -0.3994  0.3970
19332TIP3    H179487   5.785   5.655   4.532  0.2295 -0.6732  0.1358
19332TIP3    H279488   5.781   5.748   4.413  0.7710  1.7865  1.9535
19333TIP3   OH279489   4.532   0.558   0.245  0.1272  0.0363  0.2144
19333TIP3    H179490   4.553   0.553   0.152 -0.5989 -0.3200  0.0592
19333TIP3    H279491   4.474   0.483   0.260 -1.2853  1.1465  0.5400
19334TIP3   OH279492   5.738   6.097   1.593 -0.3625 -0.0596 -0.0595
19334TIP3    H179493   5.733   6.007   1.559 -1.1265  0.3222 -0.9815
19334TIP3    H279494   5.693   6.150   1.528  1.9450  1.3229 -0.6091
19335TIP3   OH279495   5.024   6.643  15.426 -0.0373 -0.2653  0.0899
19335TIP3    H179496   5.001   6.735  15.416 -0.1193 -0.4430 -1.8392
19335TIP3    H279497   4.947   6.602  15.465 -0.5850  0.2225 -0.4751
19336TIP3   OH279498   3.930   1.809   1.708  0.0914  0.0220 -0.2181
19336TIP3    H179499   3.867   1.738   1.705  0.3222 -0.3014  1.4454
19336TIP3    H279500   3.886   1.883   1.666 -0.6994 -0.6784 -0.6461
19337TIP3   OH279501   6.786   4.784   3.247  0.2562 -0.8862 -0.4336
19337TIP3    H179502   6.716   4.733   3.286 -0.1276 -0.6238 -0.7722
19337TIP3    H279503   6.765   4.788   3.154  0.2028  0.0016 -0.3914
19338TIP3   OH279504   1.642   0.972  11.117 -0.1056  0.2634 -0.4443
19338TIP3    H179505   1.694   0.903  11.159 -0.9653  0.1017  0.3987
19338TIP3    H279506   1.608   0.931  11.038  0.7197  0.2526 -0.8065
19339TIP3   OH279507   0.954   5.293   4.646  0.0267 -0.0484  0.2085
19339TIP3    H179508   1.033   5.341   4.673 -0.3268 -0.1302  1.3936
19339TIP3    H279509   0.981   5.201   4.643  0.8707  0.1830 -2.6330
19340TIP3   OH279510   2.007   2.437  16.376 -0.3080 -0.3157 -0.0894
19340TIP3    H179511   1.990   2.486  16.295 -2.1601 -1.2130 -0.2931
19340TIP3    H279512   1.977   2.495  16.446 -0.5734 -0.3364 -0.1854
19341TIP3   OH279513   0.499   5.470   4.778 -0.0358  0.0820  0.3041
19341TIP3    H179514   0.495   5.513   4.864 -0.7348 -0.3987  0.5219
19341TIP3    H279515   0.419   5.499   4.734  0.6194  0.8134 -0.4270
19342TIP3   OH279516   3.889   0.482   5.751 -0.2084  0.3850 -0.3802
19342TIP3    H179517   3.907   0.394   5.785 -0.3982  0.4136 -0.2010
19342TIP3    H279518   3.968   0.506   5.703 -0.4774 -0.2339 -1.1668
19343TIP3   OH279519   0.868   1.019  14.252 -0.1842 -0.1686  0.2119
19343TIP3    H179520   0.886   1.061  14.169  2.1034 -2.9792 -0.8827
19343TIP3    H279521   0.939   0.955  14.263 -1.1862 -0.9207  3.6350
19344TIP3   OH279522   1.530   6.240  13.039  0.1610  0.8648  0.2413
19344TIP3    H179523   1.550   6.223  12.947 -1.9571  0.0764 -0.1238
19344TIP3    H279524   1.610   6.215  13.085  0.0578 -2.4794 -1.0726
19345TIP3   OH279525   1.511   4.200  15.959 -0.2460  0.3848 -0.2518
19345TIP3    H179526   1.558   4.150  15.892 -1.3518  0.5226 -1.1750
19345TIP3    H279527   1.433   4.147  15.977  0.2560  0.1261  1.2968
19346TIP3   OH279528   0.040   0.362   2.804 -0.1225 -0.5415  0.1609
19346TIP3    H179529   0.089   0.426   2.855 -1.0802 -0.4172  0.9496
19346TIP3    H279530  -0.048   0.400   2.795  0.0829 -0.4541 -1.7957
19347TIP3   OH279531   2.893   2.325  10.733 -0.5874  0.2364  0.0904
19347TIP3    H179532   2.931   2.247  10.773 -1.3049  0.4152  1.1326
19347TIP3    H279533   2.964   2.360  10.679  0.7772  0.5945  2.0340
19348TIP3   OH279534   5.709   6.672  11.487 -0.2442  0.4739  0.1686
19348TIP3    H179535   5.633   6.619  11.508  0.5352 -0.6602  0.1860
19348TIP3    H279536   5.711   6.739  11.556  0.0363 -0.8289  1.4788
19349TIP3   OH279537   1.610   2.871   5.975 -0.0311  0.1104  0.2739
19349TIP3    H179538   1.682   2.823   5.934 -0.0367 -0.1538  0.5689
19349TIP3    H279539   1.653   2.934   6.033  0.0012  1.1323 -0.8319
19350TIP3   OH279540   6.399   6.781  15.779 -0.3788 -0.2754  0.0898
19350TIP3    H179541   6.390   6.857  15.836  1.1969  0.0645 -0.0623
19350TIP3    H279542   6.493   6.773  15.765 -0.6689 -0.8057 -1.8480
19351TIP3   OH279543   0.444   5.142   3.638 -0.2782 -0.5047 -0.3681
19351TIP3    H179544   0.427   5.125   3.730  0.9851 -1.5859 -0.3005
19351TIP3    H279545   0.534   5.114   3.624 -1.1963 -2.8652 -2.4650
19352TIP3   OH279546   2.643   1.564  16.105  0.2258  0.3735  0.9891
19352TIP3    H179547   2.724   1.612  16.125  1.3485 -0.7921 -0.5249
19352TIP3    H279548   2.648   1.486  16.161  1.5837 -1.0808 -1.0315
19353TIP3   OH279549   3.763   2.975   3.220 -0.5533 -0.0954  0.3215
19353TIP3    H179550   3.827   2.946   3.155 -2.1155  0.9852 -1.8560
19353TIP3    H279551   3.764   2.907   3.287  3.1040  0.0855  0.6429
19354TIP3   OH279552   6.276   6.056  13.254  0.9682 -0.6475 -0.6809
19354TIP3    H179553   6.212   6.019  13.193  1.2805 -0.6082 -1.0396
19354TIP3    H279554   6.227   6.072  13.334  0.2050  0.6126 -1.3751
19355TIP3   OH279555   3.590   6.676  16.892 -0.5403  0.3121  0.4432
19355TIP3    H179556   3.502   6.699  16.863 -0.4794  0.0291  0.0329
19355TIP3    H279557   3.596   6.581  16.882 -0.4704  0.2154  1.2558
19356TIP3   OH279558   1.649   5.150  11.827  0.4710 -0.1174 -0.1463
19356TIP3    H179559   1.650   5.242  11.854  1.1576 -0.0090 -0.5273
19356TIP3    H279560   1.561   5.137  11.792  0.3184  0.3530  0.0439
19357TIP3   OH279561   1.022   4.215  14.943  0.1606  0.2052 -0.1727
19357TIP3    H179562   0.934   4.253  14.949  0.0491  0.0797 -0.8701
19357TIP3    H279563   1.010   4.122  14.964  0.4542  0.5517  1.6614
19358TIP3   OH279564   4.074   4.137   5.769  0.1470  0.5917 -0.4960
19358TIP3    H179565   4.155   4.134   5.821 -0.0956 -0.5815 -0.1697
19358TIP3    H279566   4.099   4.184   5.689  1.4786 -0.8284 -0.9607
19359TIP3   OH279567   1.116   0.855   1.439 -0.3023 -0.2411  0.4113
19359TIP3    H179568   1.105   0.763   1.413 -0.8042 -0.0881  0.0620
19359TIP3    H279569   1.206   0.875   1.415 -1.0770  0.2838 -2.5852
19360TIP3   OH279570   1.779   3.986  16.485 -0.1488 -0.1028 -0.4569
19360TIP3    H179571   1.806   3.970  16.394 -0.9256 -3.0083 -0.2617
19360TIP3    H279572   1.861   3.992  16.533  0.2523 -0.8431 -1.0290
19361TIP3   OH279573   6.544   2.711  14.121  0.4660 -0.2876 -0.1815
19361TIP3    H179574   6.518   2.693  14.030 -0.2048 -0.9896  0.1390
19361TIP3    H279575   6.589   2.795  14.117 -1.3603  0.7139 -0.8562
19362TIP3   OH279576   2.749   6.174  13.915 -0.2770  0.2619 -0.7481
19362TIP3    H179577   2.731   6.153  13.824 -0.4215  1.9772 -1.1486
19362TIP3    H279578   2.824   6.119  13.938 -0.1718 -0.1186 -1.9381
19363TIP3   OH279579   3.562   3.407  15.838  0.0801  0.0796 -0.4846
19363TIP3    H179580   3.515   3.327  15.861 -2.3214  0.8636 -2.2713
19363TIP3    H279581   3.628   3.379  15.774 -0.4730 -0.5333 -0.7937
19364TIP3   OH279582   3.981   1.604  12.195  0.1611 -0.2491 -0.9675
19364TIP3    H179583   3.981   1.700  12.192  1.6428 -0.2162 -4.1201
19364TIP3    H279584   3.898   1.581  12.237  0.5054  2.3429  1.4850
19365TIP3   OH279585   5.660   1.638   1.445 -0.3804  0.3602 -0.3877
19365TIP3    H179586   5.678   1.594   1.528 -1.4139 -0.0476 -0.3638
19365TIP3    H279587   5.657   1.731   1.467  0.8242  0.3908 -0.2573
19366TIP3   OH279588   0.633   2.550   2.411 -0.2175 -0.1131  0.5158
19366TIP3    H179589   0.641   2.613   2.483  2.3888  0.7078 -0.3710
19366TIP3    H279590   0.591   2.600   2.341 -0.7417 -0.2269  0.7519
19367TIP3   OH279591   3.114   4.920   1.809 -0.1725  0.5616 -0.4782
19367TIP3    H179592   3.200   4.962   1.808 -1.0556  2.4411 -0.1803
19367TIP3    H279593   3.131   4.833   1.772  1.4517  1.6913 -2.6448
19368TIP3   OH279594   1.657   1.279  11.466 -0.3859 -0.1669 -0.2799
19368TIP3    H179595   1.653   1.368  11.503 -0.0411 -0.7200  1.1517
19368TIP3    H279596   1.573   1.240  11.489  0.1554 -0.7996  0.7413
19369TIP3   OH279597   4.957   6.196  14.136 -0.5449 -0.2405 -0.4343
19369TIP3    H179598   5.001   6.273  14.103  0.2974 -0.2423  0.6217
19369TIP3    H279599   4.902   6.228  14.207  0.1153 -0.6453  0.2788
19370TIP3   OH279600   3.043   4.870   0.586  0.7183  0.0213  0.1176
19370TIP3    H179601   3.055   4.848   0.678  2.1086  0.7085  0.1386
19370TIP3    H279602   2.949   4.885   0.576  0.4889 -0.5298  1.3066
19371TIP3   OH279603   0.221   3.541  11.971  0.0604  0.0849 -0.1802
19371TIP3    H179604   0.306   3.550  11.928  0.8987 -1.0218  1.1577
19371TIP3    H279605   0.217   3.615  12.032 -0.3281  0.6153 -0.8337
19372TIP3   OH279606   4.870   3.873  11.189  0.5299  0.5571  0.1824
19372TIP3    H179607   4.954   3.832  11.169 -0.1817 -2.4409  2.4954
19372TIP3    H279608   4.820   3.865  11.108  1.0982 -1.6263 -0.0418
19373TIP3   OH279609   4.108   3.323   3.997  0.4106  0.2268 -0.3354
19373TIP3    H179610   4.043   3.253   3.997  1.8823 -1.2052 -0.6621
19373TIP3    H279611   4.140   3.326   4.088  1.5646 -0.7700 -0.6723
19374TIP3   OH279612   5.637   6.316  15.857  0.2550 -0.4218  0.6934
19374TIP3    H179613   5.588   6.398  15.857  2.7945  1.1845  0.8411
19374TIP3    H279614   5.613   6.274  15.940 -0.3303  0.6311  1.0703
19375TIP3   OH279615   0.058   2.515   1.285  0.2619 -0.1991  0.4020
19375TIP3    H179616  -0.002   2.537   1.213  0.9479  0.1912 -0.0659
19375TIP3    H279617   0.119   2.452   1.246  1.7335  1.3430  0.0881
19376TIP3   OH279618   2.057   4.716  13.388  0.3439  0.1408 -0.0061
19376TIP3    H179619   2.131   4.721  13.328 -0.5439  1.4815 -1.0586
19376TIP3    H279620   2.078   4.778  13.457  1.9043 -2.2236  1.8294
19377TIP3   OH279621   6.433   5.101  12.210 -0.2295 -0.3149 -0.1203
19377TIP3    H179622   6.353   5.050  12.222 -0.2438  0.1202  1.9146
19377TIP3    H279623   6.457   5.129  12.298  1.4900  0.6044 -0.8424
19378TIP3   OH279624   4.047   3.115  15.987 -0.0747 -0.0317  0.0875
19378TIP3    H179625   4.086   3.084  15.906  1.3858 -0.4554  0.9149
19378TIP3    H279626   4.111   3.178  16.022 -0.7929  0.3298  0.7871
19379TIP3   OH279627   6.775   6.436  16.807 -0.3377 -0.9814 -0.7212
19379TIP3    H179628   6.786   6.526  16.836 -3.0868 -1.0124  0.8134
19379TIP3    H279629   6.847   6.388  16.847  0.7770  0.4021 -1.0251
19380TIP3   OH279630   1.359   1.062   1.055 -0.1738 -0.1448 -0.2370
19380TIP3    H179631   1.311   0.980   1.065 -0.8382  0.2328 -0.2472
19380TIP3    H279632   1.435   1.039   1.002 -0.0607 -0.8612  0.2233
19381TIP3   OH279633   2.277   5.787  13.956  0.5291 -0.1252  0.2385
19381TIP3    H179634   2.287   5.817  13.865  2.1754  0.4553  0.5758
19381TIP3    H279635   2.348   5.725  13.969 -1.0746 -1.9934  0.4729
19382TIP3   OH279636   3.611   4.073  17.144  0.2211  0.2411 -0.0147
19382TIP3    H179637   3.621   3.992  17.094  0.7464  0.0367  0.4248
19382TIP3    H279638   3.638   4.142  17.083 -0.2874  0.1011 -0.4097
19383TIP3   OH279639   1.356   1.097  16.963  0.1169 -0.0578 -0.5383
19383TIP3    H179640   1.449   1.107  16.981  0.1737 -0.9264 -0.2878
19383TIP3    H279641   1.353   1.043  16.884 -0.1647 -1.3540  0.3256
19384TIP3   OH279642   5.912   4.556   4.699  0.3523  0.1495 -0.1811
19384TIP3    H179643   5.938   4.609   4.623 -0.8524 -0.9761 -1.4302
19384TIP3    H279644   5.829   4.516   4.673  1.3105 -2.5625  0.5901
19385TIP3   OH279645   1.462   1.549  13.544 -0.1518  0.1668 -0.1364
19385TIP3    H179646   1.413   1.510  13.471  1.6961 -1.0964 -0.7514
19385TIP3    H279647   1.542   1.582  13.505 -0.4379  2.2335  0.8597
19386TIP3   OH279648   6.764   0.792   3.182  0.0164 -0.0186 -0.2359
19386TIP3    H179649   6.719   0.714   3.148 -0.9653  1.1707 -1.8287
19386TIP3    H279650   6.843   0.799   3.129  0.0127  0.1575 -0.2188
19387TIP3   OH279651   6.239   0.085  14.982  0.0856 -0.1088 -0.3970
19387TIP3    H179652   6.334   0.085  14.997  0.1638  0.8452 -0.8616
19387TIP3    H279653   6.220   0.171  14.947 -1.1232  0.0956  0.6913
19388TIP3   OH279654   5.532   1.468  16.641  0.1140  0.0873  0.3523
19388TIP3    H179655   5.595   1.539  16.629 -0.0853  0.1299 -0.5204
19388TIP3    H279656   5.450   1.512  16.661 -0.7387  0.3642 -3.0329
19389TIP3   OH279657   1.214   2.715  16.142  0.5068 -0.0415 -0.1397
19389TIP3    H179658   1.144   2.752  16.089  0.7048 -2.1827 -2.0671
19389TIP3    H279659   1.172   2.690  16.224  0.1708  3.2941  0.8485
19390TIP3   OH279660   4.849   6.487  13.369  0.2163 -0.6030 -0.3168
19390TIP3    H179661   4.770   6.532  13.336  0.0786  0.2864  1.1523
19390TIP3    H279662   4.820   6.397  13.384 -0.7093 -0.1385  0.8017
19391TIP3   OH279663   1.163   2.215  11.946 -0.1833  0.5072 -0.5426
19391TIP3    H179664   1.174   2.252  12.034 -0.8528  1.7009 -0.9393
19391TIP3    H279665   1.155   2.121  11.962 -1.3121  0.7773  0.8074
19392TIP3   OH279666   4.487   3.257  10.604  0.1213 -0.3011  0.0177
19392TIP3    H179667   4.574   3.291  10.584 -0.3981  2.8188  2.4214
19392TIP3    H279668   4.448   3.240  10.518  2.3716  0.0831 -1.1572
19393TIP3   OH279669   6.494   1.546  11.913 -0.3077 -0.2639  0.2678
19393TIP3    H179670   6.412   1.592  11.895 -0.5711 -1.1377 -0.8460
19393TIP3    H279671   6.468   1.472  11.968 -0.7587 -2.0676 -2.1715
19394TIP3   OH279672   0.347   3.326   4.143 -0.0017  0.5786 -0.9967
19394TIP3    H179673   0.368   3.233   4.132  1.6963  0.5933  1.3351
19394TIP3    H279674   0.431   3.371   4.137 -0.1733  1.4589  1.8565
19395TIP3   OH279675   4.526   1.224  10.597  0.1594 -0.0311  0.3075
19395TIP3    H179676   4.494   1.294  10.540 -0.9226 -1.6926 -1.2144
19395TIP3    H279677   4.447   1.180  10.628  0.7537  0.3596  2.5581
19396TIP3   OH279678   5.299   6.527  10.624 -0.0952  0.4234  0.2023
19396TIP3    H179679   5.369   6.577  10.666  0.7778  0.2587 -1.0169
19396TIP3    H279680   5.341   6.447  10.594 -0.3685  1.0372 -2.0121
19397TIP3   OH279681   3.043   6.535   3.199 -0.4336  0.6350 -0.6166
19397TIP3    H179682   2.975   6.468   3.199  0.7308 -0.5879  0.0975
19397TIP3    H279683   3.013   6.600   3.263 -1.6298  0.8928 -1.4050
19398TIP3   OH279684   5.816   5.717   0.778  0.0348 -0.0357  0.2145
19398TIP3    H179685   5.758   5.671   0.839 -0.2577 -1.0824 -0.8155
19398TIP3    H279686   5.757   5.764   0.719  0.1519 -1.5795 -1.2110
19399TIP3   OH279687   1.106   0.297   6.191  0.2622 -0.0846 -0.0644
19399TIP3    H179688   1.057   0.235   6.244  1.5192 -1.4016 -0.3832
19399TIP3    H279689   1.039   0.354   6.153 -1.1656 -2.4259 -1.2753
19400TIP3   OH279690   0.458   3.500  11.856  0.3357 -0.1172  0.0218
19400TIP3    H179691   0.528   3.435  11.855 -0.0835 -0.5774 -1.1898
19400TIP3    H279692   0.494   3.575  11.808  0.8111  0.5620  1.3951
19401TIP3   OH279693   0.062   0.904   6.126  0.0619 -0.5006  0.1002
19401TIP3    H179694   0.148   0.875   6.158 -0.0502  0.0259  0.9087
19401TIP3    H279695   0.036   0.973   6.188 -0.3773  0.2217 -0.8681
19402TIP3   OH279696   6.839   5.554   5.423  1.3222 -0.1440  0.2850
19402TIP3    H179697   6.807   5.531   5.510  1.9859  3.1550  1.5557
19402TIP3    H279698   6.774   5.616   5.389  2.4746  0.7825 -0.3195
19403TIP3   OH279699   6.527   0.367  15.678  0.4529 -0.7928 -0.5479
19403TIP3    H179700   6.522   0.449  15.629  0.8462 -1.7799 -2.3419
19403TIP3    H279701   6.477   0.383  15.758 -1.7353  0.3910 -2.0308
19404TIP3   OH279702   6.541   2.962   1.339 -0.1628  0.1703 -0.3019
19404TIP3    H179703   6.579   2.875   1.321 -0.1932 -0.0073  0.4732
19404TIP3    H279704   6.617   3.020   1.345 -0.0357 -0.0816  0.6785
19405TIP3   OH279705   3.623   2.378  16.617  0.1152  0.0106  0.5718
19405TIP3    H179706   3.653   2.294  16.581 -0.3827 -0.1870  0.6107
19405TIP3    H279707   3.691   2.440  16.593  1.0060 -0.6012  1.4284
19406TIP3   OH279708   4.824   5.426  14.256  0.3725 -0.1753 -0.0862
19406TIP3    H179709   4.890   5.359  14.242  0.3104 -0.5944  1.4598
19406TIP3    H279710   4.828   5.481  14.177 -0.7612 -2.9262 -2.1920
19407TIP3   OH279711   6.623   1.727   3.165  0.2504  0.0155 -0.6483
19407TIP3    H179712   6.644   1.640   3.198 -0.1209  0.0464 -0.3333
19407TIP3    H279713   6.537   1.717   3.124  0.6531 -0.0007 -1.5160
19408TIP3   OH279714   5.549   0.411   2.091 -0.5207  0.1461  0.3365
19408TIP3    H179715   5.632   0.366   2.077  0.3465  1.0256  2.2982
19408TIP3    H279716   5.511   0.370   2.169 -1.2946  0.6342  0.2320
19409TIP3   OH279717   6.184   5.611   5.305 -0.0034  0.0148  0.3266
19409TIP3    H179718   6.123   5.597   5.377 -1.4591  1.5491 -0.5309
19409TIP3    H279719   6.231   5.692   5.327 -0.1020  0.2254 -0.2030
19410TIP3   OH279720   5.077   3.618  15.000  0.0134  0.0701  0.0816
19410TIP3    H179721   5.006   3.679  15.019 -1.2861 -1.0621 -0.9110
19410TIP3    H279722   5.156   3.663  15.029 -0.8994  2.1522 -0.4800
19411TIP3   OH279723   1.375   6.572   4.562  0.1949  0.3707  0.0724
19411TIP3    H179724   1.394   6.595   4.471  0.0694  0.8715  0.1679
19411TIP3    H279725   1.292   6.524   4.557  0.5008 -0.1372 -0.1399
19412TIP3   OH279726   1.762   4.396  12.424 -0.1349  0.0828 -0.3146
19412TIP3    H179727   1.779   4.490  12.412 -2.0933  0.3800 -1.1373
19412TIP3    H279728   1.672   4.392  12.456  0.2560 -1.4947  0.6992
19413TIP3   OH279729   2.488   4.495  13.854 -0.8836 -0.3997 -0.5674
19413TIP3    H179730   2.555   4.563  13.840  0.0424 -1.0478  0.5603
19413TIP3    H279731   2.412   4.543  13.888 -0.6735  0.2299 -0.9713
19414TIP3   OH279732   5.741   1.103   4.642  0.4639  0.1692 -0.1787
19414TIP3    H179733   5.755   1.014   4.673 -2.2310 -0.7512 -1.2969
19414TIP3    H279734   5.646   1.116   4.648  0.7696  2.9897 -0.0458
19415TIP3   OH279735   6.823   1.606   4.419  0.4535  0.3418 -0.0804
19415TIP3    H179736   6.810   1.636   4.329  1.0800  0.2484 -0.2102
19415TIP3    H279737   6.755   1.649   4.469 -0.4313 -0.2496 -0.7401
19416TIP3   OH279738   3.095   0.330   0.510 -0.1420 -0.0869 -0.0053
19416TIP3    H179739   3.156   0.402   0.521 -1.1925  0.4621  3.2847
19416TIP3    H279740   3.150   0.253   0.496  1.1099  0.8477 -0.3859
19417TIP3   OH279741   0.102   3.189   3.447  0.3005  0.2996 -0.2874
19417TIP3    H179742   0.009   3.172   3.431  0.6559  0.2472 -2.7232
19417TIP3    H279743   0.129   3.119   3.506 -1.1095  0.0894  0.1538
19418TIP3   OH279744   5.631   1.813  13.001 -0.1047  0.2349  0.0876
19418TIP3    H179745   5.618   1.893  12.950  0.6982 -0.3041 -1.0161
19418TIP3    H279746   5.621   1.742  12.938 -1.6943 -0.6156  1.2316
19419TIP3   OH279747   1.881   4.980   4.119 -0.1341 -0.2918 -0.1417
19419TIP3    H179748   1.938   5.057   4.125 -0.4424  0.0030 -0.8314
19419TIP3    H279749   1.810   4.999   4.180 -0.3724  0.1241 -0.5360
19420TIP3   OH279750   6.381   1.305   4.129 -0.0644  0.3697  0.4517
19420TIP3    H179751   6.354   1.215   4.112 -1.5221  1.0429 -1.0350
19420TIP3    H279752   6.474   1.299   4.151  0.2691 -1.3337 -1.2152
19421TIP3   OH279753   2.393   0.049  11.247 -0.2990 -0.6090  0.5391
19421TIP3    H179754   2.487   0.034  11.263  0.0780 -0.7043 -1.5361
19421TIP3    H279755   2.373   0.128  11.297  1.2074  0.1443  0.0315
19422TIP3   OH279756   5.565   3.751  12.180 -0.1698  0.2298 -0.8175
19422TIP3    H179757   5.566   3.819  12.113 -1.0344 -0.1606 -1.2380
19422TIP3    H279758   5.654   3.715  12.180 -0.8121 -1.6911 -3.7546
19423TIP3   OH279759   1.106   0.081  14.529 -0.5974 -1.0009  0.6631
19423TIP3    H179760   1.089   0.132  14.450  1.0930  0.5930  1.2560
19423TIP3    H279761   1.077  -0.008  14.507  0.5360 -0.7970 -2.0518
19424TIP3   OH279762   3.860   0.395  12.845 -0.0371 -0.0622  0.1198
19424TIP3    H179763   3.817   0.309  12.841 -1.4842  0.6633 -0.6324
19424TIP3    H279764   3.878   0.416  12.753  1.2796 -0.0061  0.3723
19425TIP3   OH279765   1.564   3.891   4.253 -0.7485  0.4209  0.1189
19425TIP3    H179766   1.519   3.816   4.214  2.0812 -0.9527 -0.6903
19425TIP3    H279767   1.597   3.859   4.336  0.3184  0.8270 -0.1375
19426TIP3   OH279768   5.561   1.217  12.858 -0.5332 -0.2418  0.0898
19426TIP3    H179769   5.604   1.295  12.894 -0.4313 -0.5612  0.6671
19426TIP3    H279770   5.613   1.195  12.781 -0.1250 -0.1637  0.3387
19427TIP3   OH279771   3.295   3.421   6.150  0.1383 -0.2929  0.1987
19427TIP3    H179772   3.214   3.379   6.122  0.2391  0.4267 -1.2792
19427TIP3    H279773   3.267   3.503   6.191  0.0847 -0.2133  0.0073
19428TIP3   OH279774   4.078   3.160   0.246  0.0193 -0.3276  0.5213
19428TIP3    H179775   4.062   3.254   0.237 -1.0317 -0.1377  3.3995
19428TIP3    H279776   4.159   3.154   0.296  1.0918 -1.0513 -1.2141
19429TIP3   OH279777   2.908   2.991  12.919  0.3747  0.1296  0.1450
19429TIP3    H179778   2.976   2.944  12.871  0.6837  0.9724 -0.2616
19429TIP3    H279779   2.841   3.011  12.853 -1.5518 -2.8400  0.9567
19430TIP3   OH279780   1.095   2.497  12.428 -0.1055 -0.2116 -0.1487
19430TIP3    H179781   1.133   2.415  12.398 -0.2969 -0.2032 -0.4228
19430TIP3    H279782   1.138   2.564  12.375  1.1671  0.0131  1.1314
19431TIP3   OH279783   1.906   1.886   4.519  0.2900  0.3883 -0.5809
19431TIP3    H179784   1.894   1.947   4.592  2.3213  0.4327 -0.2247
19431TIP3    H279785   1.860   1.926   4.445 -1.7316  0.3925  0.6016
19432TIP3   OH279786   0.078   0.242   0.572  1.2008  0.1867 -0.4167
19432TIP3    H179787   0.108   0.282   0.654 -2.1539  2.1680 -0.0005
19432TIP3    H279788  -0.002   0.195   0.595  0.3125  0.5680 -2.4939
19433TIP3   OH279789   2.130   1.668  14.426 -0.0793  0.2830  0.7271
19433TIP3    H179790   2.127   1.617  14.507  0.8495 -2.0545 -0.6210
19433TIP3    H279791   2.197   1.735  14.443 -0.1079  0.0274  1.9722
19434TIP3   OH279792   4.265   5.948   2.288 -0.4730 -0.6678  0.4667
19434TIP3    H179793   4.301   6.023   2.240 -0.3846  0.0735  1.6479
19434TIP3    H279794   4.171   5.952   2.272 -0.6672  0.6127  1.7035
19435TIP3   OH279795   3.583   6.767   4.262 -0.3167 -0.2076  0.6391
19435TIP3    H179796   3.628   6.824   4.200 -2.7482 -0.0337 -1.1173
19435TIP3    H279797   3.569   6.685   4.214 -1.2738 -0.4612  1.3132
19436TIP3   OH279798   5.909   1.367   2.564  0.4702  0.0896  0.7152
19436TIP3    H179799   5.989   1.351   2.615  1.9651 -1.1934 -1.8293
19436TIP3    H279800   5.891   1.460   2.576  1.9125  0.2443  1.9665
19437TIP3   OH279801   6.550   6.802  14.203  0.1140  0.3721  0.4303
19437TIP3    H179802   6.528   6.774  14.114  3.0881  0.9878 -0.6359
19437TIP3    H279803   6.476   6.855  14.231 -0.2705  1.4501 -2.3206
19438TIP3   OH279804   1.559   5.066   3.635  0.3245 -0.1933 -0.2605
19438TIP3    H179805   1.542   4.973   3.627 -1.0102 -0.1574  1.6097
19438TIP3    H279806   1.655   5.074   3.631  0.4768 -1.6892  0.1361
19439TIP3   OH279807   1.058   6.753   5.803 -0.0138  0.0110  0.0311
19439TIP3    H179808   1.034   6.684   5.865 -0.0752 -0.6802 -0.7593
19439TIP3    H279809   1.138   6.721   5.762 -0.7417 -0.1847 -1.2661
19440TIP3   OH279810   0.600   4.060   3.648 -0.3157  0.1572 -0.3486
19440TIP3    H179811   0.638   4.136   3.604 -0.7819 -0.1871 -1.3981
19440TIP3    H279812   0.672   3.998   3.656  0.1031  0.7579  0.6567
19441TIP3   OH279813   4.122   5.649  11.496 -0.2639 -0.1759  0.2364
19441TIP3    H179814   4.108   5.565  11.540  0.7561 -0.7233 -0.4471
19441TIP3    H279815   4.177   5.699  11.556 -0.6029 -0.1150  0.4994
19442TIP3   OH279816   6.800   0.565  14.744  0.2544  0.5138 -1.2208
19442TIP3    H179817   6.717   0.518  14.750  1.2809 -1.2014  1.1060
19442TIP3    H279818   6.794   0.632  14.813  0.9992 -0.0168 -0.6240
19443TIP3   OH279819   2.901   3.883  10.375  0.2350 -0.1138 -0.0980
19443TIP3    H179820   2.901   3.792  10.404  1.1655  0.9216  3.7057
19443TIP3    H279821   2.836   3.926  10.431  2.0580  2.1248  0.4381
19444TIP3   OH279822   6.091   0.818   5.590  0.3162 -0.0316  0.3106
19444TIP3    H179823   6.122   0.737   5.630  1.2929  0.1613 -0.0334
19444TIP3    H279824   6.040   0.861   5.659 -0.5906 -1.1374  0.3538
19445TIP3   OH279825   1.576   1.035   0.858  0.4993  0.2285  0.3683
19445TIP3    H179826   1.555   1.086   0.780 -2.4848 -0.1603  0.8288
19445TIP3    H279827   1.594   0.947   0.824 -1.7243 -0.1767  0.1165
19446TIP3   OH279828   3.065   5.048   4.030  0.5759  0.1059  0.4215
19446TIP3    H179829   3.086   4.959   4.004 -0.0375 -0.0979  0.6014
19446TIP3    H279830   2.970   5.053   4.023  0.4073  0.1677  2.2108
19447TIP3   OH279831   3.415   5.510  13.775  0.1616 -0.1200 -0.2883
19447TIP3    H179832   3.365   5.581  13.816 -1.8491  0.3455 -3.2309
19447TIP3    H279833   3.506   5.531  13.795 -0.2582  3.7341 -1.4892
19448TIP3   OH279834   6.275   4.778   5.150  0.2220 -0.1977  0.2090
19448TIP3    H179835   6.287   4.847   5.084  0.3543  0.0967  0.5372
19448TIP3    H279836   6.279   4.696   5.100  1.9986 -0.0616  0.0428
19449TIP3   OH279837   4.840   1.284  17.045  0.4945 -0.0660  0.1806
19449TIP3    H179838   4.907   1.276  17.113  2.3902  0.2492 -1.5586
19449TIP3    H279839   4.791   1.202  17.051  2.5952 -1.4010 -0.0548
19450TIP3   OH279840   6.759   1.968   5.466 -0.3161 -0.2842 -0.2270
19450TIP3    H179841   6.843   1.935   5.497  0.0163  0.6836 -0.0601
19450TIP3    H279842   6.701   1.959   5.541  0.3155  1.4307  0.5121
19451TIP3   OH279843   1.960   4.722   1.236 -0.4166  0.6031  0.0100
19451TIP3    H179844   1.891   4.659   1.255 -0.1278  0.5909  1.0891
19451TIP3    H279845   2.003   4.688   1.158 -1.9729  0.9126 -1.0292
19452TIP3   OH279846   5.443   6.201   3.376  0.3343 -0.3711 -0.1954
19452TIP3    H179847   5.406   6.185   3.462 -0.0649  1.1121 -0.0639
19452TIP3    H279848   5.370   6.232   3.323  1.4031  3.5540  0.3292
19453TIP3   OH279849   0.496   0.632   4.051 -0.1526  0.0686  0.6834
19453TIP3    H179850   0.568   0.639   4.115 -0.5542  1.1363  1.0409
19453TIP3    H279851   0.446   0.713   4.063 -0.1896  0.3356 -1.0475
19454TIP3   OH279852   5.675   3.572   6.206 -0.3660  0.2941  0.0357
19454TIP3    H179853   5.660   3.616   6.290  1.4767 -0.2570  0.6895
19454TIP3    H279854   5.767   3.547   6.208 -1.0169 -2.4815 -0.8555
19455TIP3   OH279855   2.248   3.327   4.251 -0.1053 -0.1111  0.4232
19455TIP3    H179856   2.208   3.372   4.177  2.2060  1.7248  0.1897
19455TIP3    H279857   2.186   3.338   4.323 -0.6187  1.5098 -0.2353
19456TIP3   OH279858   2.860   3.424  11.615  0.3723 -0.0882  0.7328
19456TIP3    H179859   2.794   3.356  11.600  0.4758 -0.1375  0.5020
19456TIP3    H279860   2.862   3.435  11.710  0.7487 -0.7915  0.8072
19457TIP3   OH279861   2.602   3.759  11.887 -0.2784  0.2452 -0.0528
19457TIP3    H179862   2.597   3.743  11.981 -0.5867 -0.9995 -0.2706
19457TIP3    H279863   2.522   3.719  11.852  0.1584  0.1170 -0.9202
19458TIP3   OH279864   0.472   5.878   3.877 -0.6131 -0.4057  0.0970
19458TIP3    H179865   0.495   5.960   3.920  1.2005 -0.3164 -0.9341
19458TIP3    H279866   0.523   5.812   3.924 -0.2806 -0.6044 -0.5357
19459TIP3   OH279867   6.766   6.541  13.778  0.4768  0.2120 -0.5999
19459TIP3    H179868   6.721   6.615  13.738  1.4352  0.3418 -1.4859
19459TIP3    H279869   6.696   6.486  13.812 -0.4067  0.2016 -2.3149
19460TIP3   OH279870   0.564   0.453  15.224 -0.1223  0.6944 -0.5388
19460TIP3    H179871   0.492   0.416  15.274  0.0607  0.0249 -0.7630
19460TIP3    H279872   0.541   0.437  15.132  1.4772 -1.8661 -0.5885
19461TIP3   OH279873   4.343   2.021  11.831 -0.1871 -0.1140  0.1569
19461TIP3    H179874   4.256   2.018  11.871 -1.4227  3.5216 -1.7998
19461TIP3    H279875   4.391   2.086  11.882  0.1129  0.5192 -0.9084
19462TIP3   OH279876   6.780   4.399   2.241  0.0164 -0.3704 -0.7035
19462TIP3    H179877   6.787   4.410   2.146 -0.3828  1.0782 -0.5901
19462TIP3    H279878   6.692   4.364   2.254 -0.3602  0.4926 -0.8187
19463TIP3   OH279879   1.043   0.584   1.366  0.2145  0.5352 -0.3324
19463TIP3    H179880   0.949   0.567   1.351  0.3779  0.7592 -1.7966
19463TIP3    H279881   1.074   0.505   1.411 -0.4387 -0.1032 -0.9490
19464TIP3   OH279882   0.353   5.982  13.460  0.7194  0.3788  0.0065
19464TIP3    H179883   0.289   6.012  13.524  2.4313  3.6259  0.4065
19464TIP3    H279884   0.437   6.016  13.492  2.4043 -2.0565 -1.4745
19465TIP3   OH279885   4.562   5.482  15.309 -0.1651 -0.0546  0.0508
19465TIP3    H179886   4.649   5.474  15.348 -0.7499  0.5496  1.5553
19465TIP3    H279887   4.532   5.392  15.299  0.8804 -0.3072 -1.1584
19466TIP3   OH279888   0.448   3.754  16.338  0.7155  0.5135 -0.2400
19466TIP3    H179889   0.391   3.783  16.267  0.0542  0.9855  0.4684
19466TIP3    H279890   0.499   3.832  16.361  0.1700  0.6561  0.5062
19467TIP3   OH279891   3.399   4.963  17.052 -0.7103  0.2229  0.1881
19467TIP3    H179892   3.463   4.924  17.112  0.3617  1.4782 -0.0867
19467TIP3    H279893   3.450   5.024  16.999 -1.9524  0.4176 -0.8360
19468TIP3   OH279894   0.082   0.181   3.473  0.6554 -0.3186 -0.3320
19468TIP3    H179895   0.066   0.272   3.497  1.7996 -0.7623  2.4588
19468TIP3    H279896   0.175   0.179   3.449  0.6370 -0.7600 -0.3670
19469TIP3   OH279897   0.074   0.236  16.891  0.0564 -0.5715  0.4089
19469TIP3    H179898   0.081   0.209  16.983 -1.3295 -0.5155  0.5572
19469TIP3    H279899  -0.020   0.239  16.875  0.2681  0.4638 -0.7211
19470TIP3   OH279900   4.233   6.083   2.613  0.1806 -0.0229  0.2940
19470TIP3    H179901   4.299   6.049   2.552 -0.8431 -3.3786  0.8312
19470TIP3    H279902   4.283   6.128   2.681  1.5897  0.6265 -1.1144
19471TIP3   OH279903   2.062   0.880   1.322 -0.1242 -0.4665 -0.2545
19471TIP3    H179904   2.041   0.917   1.236 -0.9424  0.6159  0.3919
19471TIP3    H279905   1.993   0.912   1.380  1.4722  0.4531  1.2349
19472TIP3   OH279906   6.590   6.677  15.264 -0.6277 -0.6068  0.3944
19472TIP3    H179907   6.577   6.651  15.173  0.1153  0.6583 -0.0948
19472TIP3    H279908   6.512   6.728  15.286 -0.0298  0.5476 -0.1023
19473TIP3   OH279909   6.212   0.245   5.057 -0.1360  0.2346 -0.1872
19473TIP3    H179910   6.263   0.166   5.075  0.1504  0.7171  1.2566
19473TIP3    H279911   6.257   0.287   4.984  1.8020  0.8217  1.2574
19474TIP3   OH279912   3.284   2.163  17.163  0.2525  0.0019 -0.1485
19474TIP3    H179913   3.339   2.098  17.119  2.9468  2.6642 -1.0479
19474TIP3    H279914   3.325   2.176  17.248 -0.9319 -0.2209  0.4845
19475TIP3   OH279915   2.531   1.693   6.038  0.3993  0.2969  0.1214
19475TIP3    H179916   2.499   1.604   6.027  0.8280 -0.3459  3.2102
19475TIP3    H279917   2.506   1.718   6.127  0.5395  3.1815 -0.5213
19476TIP3   OH279918   0.376   1.766   1.037 -0.0658 -0.2113 -0.3904
19476TIP3    H179919   0.386   1.672   1.023  0.2753 -0.1867 -0.3325
19476TIP3    H279920   0.373   1.803   0.949 -3.9805 -0.6024 -0.6138
19477TIP3   OH279921   3.860   0.977  15.847 -0.3883 -0.0786 -0.4549
19477TIP3    H179922   3.864   1.068  15.817 -0.7425  0.0276 -0.1923
19477TIP3    H279923   3.933   0.969  15.908  1.2250 -0.6893 -2.3367
19478TIP3   OH279924   1.114   0.950   4.254  0.1944  0.1676  0.0408
19478TIP3    H179925   1.138   0.909   4.337  1.0883  0.2787 -0.1468
19478TIP3    H279926   1.074   1.033   4.278  0.9209  0.4351  0.3498
19479TIP3   OH279927   6.112   6.674  14.141  0.4719  0.2892  0.0985
19479TIP3    H179928   6.105   6.661  14.047 -1.1934 -0.6955  0.2993
19479TIP3    H279929   6.161   6.755  14.152  1.8264 -0.2634 -1.5721
19480TIP3   OH279930   5.458   4.672  12.387 -0.8879 -0.3399  0.5410
19480TIP3    H179931   5.406   4.652  12.466 -0.4555 -0.8444  0.7006
19480TIP3    H279932   5.546   4.639  12.407 -0.6391  0.0209  0.0568
19481TIP3   OH279933   0.718   1.212   5.486  0.7588 -0.0342 -0.3022
19481TIP3    H179934   0.626   1.189   5.492  1.1976 -1.9007 -0.1419
19481TIP3    H279935   0.720   1.292   5.434 -0.8007 -1.2560 -2.3716
19482TIP3   OH279936   0.200   5.027  11.761 -0.0608  0.1311  0.0138
19482TIP3    H179937   0.239   5.012  11.675 -2.3191  0.9831 -1.2735
19482TIP3    H279938   0.272   5.057  11.816  1.4504 -0.4064 -1.5813
19483TIP3   OH279939   2.909   0.070  11.883 -0.1863 -0.3915 -0.5007
19483TIP3    H179940   2.925   0.086  11.789 -0.7588 -0.4302 -0.6064
19483TIP3    H279941   2.817   0.093  11.896 -0.2168 -0.7645 -0.0305
19484TIP3   OH279942   2.703   4.970   0.122  0.1196 -0.8594  0.8171
19484TIP3    H179943   2.641   4.905   0.155 -2.6828  1.0157 -0.3111
19484TIP3    H279944   2.718   5.029   0.196 -1.4644  0.0122  0.5032
19485TIP3   OH279945   0.508   4.242   4.008 -0.0045  0.7893  0.3873
19485TIP3    H179946   0.559   4.299   3.949  1.5564 -0.8630  0.0470
19485TIP3    H279947   0.497   4.161   3.959 -0.3093  0.0391  1.6650
19486TIP3   OH279948   5.027   5.006   5.842 -0.3675  0.3351 -0.3420
19486TIP3    H179949   5.108   5.025   5.891 -0.7122 -1.5933  1.1070
19486TIP3    H279950   5.016   4.912   5.851 -1.7886  0.2861 -2.1512
19487TIP3   OH279951   4.389   5.849   3.071  0.3139  0.6826 -0.0724
19487TIP3    H179952   4.410   5.803   2.989  0.2203 -0.0187  0.2939
19487TIP3    H279953   4.360   5.935   3.042 -1.8534 -0.2504 -0.9582
19488TIP3   OH279954   5.810   3.217   5.910  0.1582  0.2263 -0.5188
19488TIP3    H179955   5.781   3.270   5.835  1.7389  1.4155 -0.3476
19488TIP3    H279956   5.730   3.202   5.961 -0.6751  0.7182 -1.6329
19489TIP3   OH279957   0.914   1.911   3.844 -0.4238 -0.4208 -0.1457
19489TIP3    H179958   0.919   1.817   3.829  0.9185 -0.6803  1.6392
19489TIP3    H279959   0.825   1.925   3.877  0.0301 -1.4310  1.6074
19490TIP3   OH279960   2.185   1.336  11.116 -0.2394 -0.5878 -0.0331
19490TIP3    H179961   2.229   1.254  11.092 -0.8780 -0.5132 -1.5501
19490TIP3    H279962   2.219   1.356  11.203  0.8083 -1.8550 -0.1138
19491TIP3   OH279963   6.518   1.955   2.339  0.4798  0.2475 -0.3639
19491TIP3    H179964   6.545   2.031   2.287  0.6025  0.0631 -0.5724
19491TIP3    H279965   6.422   1.956   2.334  0.5120 -0.4344 -1.5751
19492TIP3   OH279966   4.577   0.177   5.582 -0.3291  0.4111  0.4817
19492TIP3    H179967   4.549   0.268   5.591 -1.3280  0.1339  0.3451
19492TIP3    H279968   4.555   0.154   5.491 -0.0211  0.0594  0.4941
19493TIP3   OH279969   6.821   2.409   3.947 -0.3581  0.3671  0.1483
19493TIP3    H179970   6.895   2.408   4.008 -0.4097 -0.5754  0.2112
19493TIP3    H279971   6.749   2.370   3.996  0.1120 -2.2615 -1.1130
19494TIP3   OH279972   4.694   1.421  15.839  0.4301 -0.0876 -0.3197
19494TIP3    H179973   4.774   1.429  15.892 -0.5329 -0.1268  1.1824
19494TIP3    H279974   4.636   1.489  15.873 -0.9756 -1.4352  0.0626
19495TIP3   OH279975   2.436   3.901  15.383 -0.4187 -0.5894 -0.4625
19495TIP3    H179976   2.398   3.986  15.361  1.7151  0.0194 -2.0972
19495TIP3    H279977   2.408   3.843  15.312 -0.2561 -0.7612 -0.3868
19496TIP3   OH279978   5.729   2.987   0.377  0.2109 -0.3390  0.2711
19496TIP3    H179979   5.663   2.982   0.446 -1.1186  0.8932 -0.8304
19496TIP3    H279980   5.681   2.967   0.297  1.1821  0.4820 -0.5412
19497TIP3   OH279981   3.898   4.653  11.624  0.1902  0.0550 -0.7946
19497TIP3    H179982   3.924   4.564  11.649 -0.2609  0.0437 -0.3389
19497TIP3    H279983   3.897   4.652  11.528  0.8732 -0.2287 -0.8029
19498TIP3   OH279984   5.148   5.542  16.027 -0.2036  0.0650 -0.1611
19498TIP3    H179985   5.075   5.516  16.083 -0.6235  0.4893 -0.5004
19498TIP3    H279986   5.195   5.608  16.078  0.0687 -0.3580  0.1431
19499TIP3   OH279987   3.914   2.297   3.330  0.5770  0.2908  0.1610
19499TIP3    H179988   3.949   2.246   3.403  1.3333  2.0952  1.1074
19499TIP3    H279989   3.972   2.277   3.257 -0.3920 -1.8051 -0.1101
19500TIP3   OH279990   4.375   3.785  13.975 -0.6731  0.2401 -0.1720
19500TIP3    H179991   4.448   3.833  13.937  0.1851  0.4599  1.6422
19500TIP3    H279992   4.321   3.852  14.017 -0.3136 -0.1997  1.0256
19501TIP3   OH279993   0.536   6.723   4.609 -0.4011  0.3770 -0.0873
19501TIP3    H179994   0.590   6.681   4.542  1.2450  1.6622  0.3573
19501TIP3    H279995   0.556   6.816   4.600  0.6584  0.5155  2.8055
19502TIP3   OH279996   6.713   5.178   5.422  0.8110 -0.3129 -0.0532
19502TIP3    H179997   6.710   5.173   5.517  2.1424  2.0699  0.1781
19502TIP3    H279998   6.634   5.226   5.398  1.6499  1.1744  0.0839
19503TIP3   OH279999   2.265   0.328  15.184 -0.1941 -0.0581 -0.1365
19503TIP3    H180000   2.218   0.381  15.248 -1.2307 -0.5409 -0.4739
19503TIP3    H280001   2.351   0.371  15.175 -0.6119  0.9155  0.3988
19504TIP3   OH280002   4.249   0.476   0.344  0.5365  0.2101 -0.4070
19504TIP3    H180003   4.214   0.417   0.410 -0.9056  2.5949  1.0805
19504TIP3    H280004   4.300   0.541   0.393  0.3657  1.4151 -1.7272
19505TIP3   OH280005   3.919   0.056   3.519 -0.0837  0.0161  0.1068
19505TIP3    H180006   3.973  -0.001   3.464  0.3299  0.1321  0.3905
19505TIP3    H280007   3.956   0.048   3.606 -0.0265  0.7082  0.1549
19506TIP3   OH280008   6.252   2.794   3.927  0.1649 -0.1928  0.9484
19506TIP3    H180009   6.196   2.830   3.995  0.0853 -1.9782  1.8780
19506TIP3    H280010   6.196   2.733   3.879  0.8053 -0.5851  0.6829
19507TIP3   OH280011   4.365   2.433  13.950  0.1267 -0.2302 -0.2535
19507TIP3    H180012   4.301   2.366  13.926 -0.5355  0.2916  0.0427
19507TIP3    H280013   4.447   2.401  13.913 -0.8119  0.5491 -3.3135
19508TIP3   OH280014   0.002   3.515   6.288  0.2593  0.0480  0.0972
19508TIP3    H180015  -0.041   3.587   6.335  0.6960  0.2570  0.1793
19508TIP3    H280016   0.083   3.553   6.255 -0.4413  0.1458 -1.5872
19509TIP3   OH280017   0.589   0.204   4.260  0.3608 -0.4405  0.0511
19509TIP3    H180018   0.546   0.264   4.321 -1.1091  0.0104 -1.3539
19509TIP3    H280019   0.521   0.142   4.234  1.8367 -2.8724  1.5053
19510TIP3   OH280020   6.476   2.919   6.369 -0.7620  0.5305 -0.1056
19510TIP3    H180021   6.522   2.839   6.396  1.5399  1.9659  0.4913
19510TIP3    H280022   6.392   2.888   6.335 -0.1725 -2.0828  0.6075
19511TIP3   OH280023   6.498   2.280   3.392  0.0438  0.0717  0.3770
19511TIP3    H180024   6.468   2.297   3.481  1.6328 -0.1265  0.9651
19511TIP3    H280025   6.564   2.347   3.375  1.0780 -0.9997  0.0387
19512TIP3   OH280026   6.558   5.646   3.062 -0.1432 -0.5575  0.2849
19512TIP3    H180027   6.503   5.716   3.025  0.0633 -0.7393 -0.3841
19512TIP3    H280028   6.496   5.589   3.108 -0.6463 -1.1937 -1.1247
19513TIP3   OH280029   3.441   3.292  11.366  0.1209 -0.6722  0.5292
19513TIP3    H180030   3.494   3.347  11.423  0.2673 -1.6140  1.3312
19513TIP3    H280031   3.480   3.205  11.374 -0.2268 -0.9421 -0.5518
19514TIP3   OH280032   1.282   1.687  13.897 -0.2211  0.2776  0.7250
19514TIP3    H180033   1.271   1.669  13.991  0.6060  0.2423  0.8230
19514TIP3    H280034   1.300   1.601  13.859  0.2333  0.3962  0.6626
19515TIP3   OH280035   5.802   2.583   5.603  0.1609 -0.2684  0.1013
19515TIP3    H180036   5.745   2.555   5.532  1.3709  0.0761 -1.0475
19515TIP3    H280037   5.816   2.676   5.587  2.1508 -0.6169 -0.4924
19516TIP3   OH280038   3.483   2.233  11.891  0.4331 -0.2485  0.1214
19516TIP3    H180039   3.538   2.155  11.887  0.7917 -0.0955  1.4780
19516TIP3    H280040   3.413   2.216  11.829  0.6289 -1.5578  0.2266
19517TIP3   OH280041   1.899   2.732  13.050  0.2424 -0.2332  0.3881
19517TIP3    H180042   1.893   2.819  13.090 -0.0382  0.2152 -0.6064
19517TIP3    H280043   1.809   2.703  13.041  0.3624 -1.0923  1.6565
19518TIP3   OH280044   6.271   4.179  16.404 -0.3788 -0.2983 -0.0017
19518TIP3    H180045   6.301   4.159  16.316 -0.4559 -0.7310  0.0651
19518TIP3    H280046   6.208   4.109  16.424 -0.0879 -0.4154  0.5279
19519TIP3   OH280047   2.285   3.231  11.451  0.2867  0.0770  0.1873
19519TIP3    H180048   2.306   3.181  11.372  2.3475  0.4620  0.4180
19519TIP3    H280049   2.282   3.322  11.421  0.2017  0.1457  0.4019
19520TIP3   OH280050   0.345   5.562   1.975  0.4338  0.1064 -0.3680
19520TIP3    H180051   0.339   5.498   2.047  0.7395  0.0795 -0.3632
19520TIP3    H280052   0.417   5.529   1.921 -1.0551 -0.9816 -1.7987
19521TIP3   OH280053   0.130   4.007   6.380  1.1407 -0.3823  0.4434
19521TIP3    H180054   0.172   4.088   6.411  1.3065 -0.4222  0.3281
19521TIP3    H280055   0.199   3.941   6.385  1.5288 -0.1407 -1.1207
19522TIP3   OH280056   5.141   3.967   2.501 -0.0726  0.1693  0.3988
19522TIP3    H180057   5.215   3.963   2.441  0.0806  0.7408  0.5449
19522TIP3    H280058   5.166   4.034   2.565 -2.0917  2.9088 -1.4476
19523TIP3   OH280059   1.104   3.369   3.678  0.2733 -0.2952 -0.4209
19523TIP3    H180060   1.151   3.346   3.759  0.4030 -1.9067 -0.9117
19523TIP3    H280061   1.040   3.299   3.667 -1.3456  1.1387 -0.5168
19524TIP3   OH280062   5.260   1.567   4.738  0.1271  0.2991 -0.1543
19524TIP3    H180063   5.339   1.576   4.791 -0.3811  0.3871  0.6119
19524TIP3    H280064   5.200   1.517   4.794 -0.8817  1.5002 -0.1217
19525TIP3   OH280065   4.666   2.985  16.180  0.0075 -0.0741 -0.5276
19525TIP3    H180066   4.642   2.950  16.094  0.8450 -1.0523 -0.3829
19525TIP3    H280067   4.761   2.979  16.182 -0.0758 -3.0903  1.6479
19526TIP3   OH280068   4.438   5.910  14.626  0.0098 -0.6141 -0.0436
19526TIP3    H180069   4.363   5.954  14.586 -0.2342 -1.1580 -0.2066
19526TIP3    H280070   4.513   5.935  14.572  0.2329  1.1835  1.0314
19527TIP3   OH280071   3.111   5.546  14.866 -0.1173  0.0292  0.8338
19527TIP3    H180072   3.147   5.615  14.809 -0.5827 -1.1452 -0.9810
19527TIP3    H280073   3.187   5.512  14.913  0.9138 -0.9756 -1.3724
19528TIP3   OH280074   0.052   3.063  12.497 -0.2168  0.0609  0.1550
19528TIP3    H180075   0.043   3.152  12.463 -1.0950  0.0364  0.2991
19528TIP3    H280076   0.054   3.007  12.419  2.0089  0.3026 -0.0241
19529TIP3   OH280077   6.258   1.505   4.884  0.8453  0.1149 -0.8487
19529TIP3    H180078   6.227   1.481   4.971  1.8858 -0.1527 -0.5335
19529TIP3    H280079   6.196   1.464   4.824 -0.5304  1.2233 -0.2432
19530TIP3   OH280080   0.315   1.556   2.410 -0.3806  0.2244 -0.2488
19530TIP3    H180081   0.336   1.646   2.388  1.2658 -0.1444 -0.3219
19530TIP3    H280082   0.400   1.513   2.420 -1.1019 -0.8909  1.5783
19531TIP3   OH280083   5.617   1.911  10.771 -0.0529  0.0644  0.4546
19531TIP3    H180084   5.709   1.905  10.798  0.7613 -2.0984 -2.3514
19531TIP3    H280085   5.611   1.994  10.724  0.8903 -0.4427 -0.5999
19532TIP3   OH280086   2.084   2.852  14.112  0.6841  0.3370 -0.1156
19532TIP3    H180087   2.009   2.905  14.084  1.9823  3.8395  2.2974
19532TIP3    H280088   2.052   2.804  14.188 -0.0969 -1.4027 -1.4633
19533TIP3   OH280089   3.225   3.933   6.104  0.4735 -0.2905  0.2711
19533TIP3    H180090   3.320   3.932   6.118  0.7761 -0.9764 -1.5316
19533TIP3    H280091   3.199   4.023   6.119  1.9043  0.5716 -1.9466
19534TIP3   OH280092   2.674   0.081  16.190  0.3498  0.2647 -0.2782
19534TIP3    H180093   2.722   0.089  16.108  0.1097  2.0958 -0.2736
19534TIP3    H280094   2.599   0.139  16.180  0.8275  1.2853  1.5827
19535TIP3   OH280095   6.232   1.321  15.858 -0.2615 -0.0360  0.1043
19535TIP3    H180096   6.320   1.334  15.893 -0.4547 -0.5412  0.7995
19535TIP3    H280097   6.246   1.278  15.774  0.1612  0.0806  0.1107
19536TIP3   OH280098   5.919   0.578   2.500 -0.3276  0.0893  0.4292
19536TIP3    H180099   5.849   0.550   2.442 -0.0041 -1.5039  0.7655
19536TIP3    H280100   5.960   0.652   2.454 -1.3133  0.1249 -0.4219
19537TIP3   OH280101   4.643   4.559   4.760 -0.5491  0.3874 -0.2516
19537TIP3    H180102   4.602   4.510   4.831  0.2772 -0.9952 -0.6818
19537TIP3    H280103   4.661   4.645   4.797 -1.7827  0.2964  0.6239
19538TIP3   OH280104   6.746   6.687  16.897 -0.6337 -0.2728 -0.4600
19538TIP3    H180105   6.652   6.670  16.899 -0.6895 -0.3985 -2.6724
19538TIP3    H280106   6.761   6.732  16.814  0.9191  2.0362  0.9281
19539TIP3   OH280107   5.970   5.258   3.261  0.0968 -0.9203 -0.1811
19539TIP3    H180108   5.924   5.200   3.200 -1.5630 -2.0819  2.0233
19539TIP3    H280109   5.906   5.324   3.285 -0.7017 -2.6950  3.1273
19540TIP3   OH280110   2.469   3.295  13.000  0.2845 -0.1845  0.7019
19540TIP3    H180111   2.488   3.249  12.918  2.6728 -0.4070  1.3212
19540TIP3    H280112   2.463   3.227  13.066  1.7962  0.1921  1.2679
19541TIP3   OH280113   6.694   2.858  10.459 -0.3932 -0.2652 -0.2674
19541TIP3    H180114   6.618   2.863  10.518  0.9444 -1.9156  1.7437
19541TIP3    H280115   6.691   2.769  10.424  0.6517 -0.3687 -0.1020
19542TIP3   OH280116   3.980   3.985   0.978 -0.6587  0.0085 -0.3732
19542TIP3    H180117   3.895   4.012   0.945  0.0590 -1.4743 -3.8150
19542TIP3    H280118   4.017   3.930   0.909  1.5754 -2.4759  2.4943
19543TIP3   OH280119   3.487   4.183  10.985 -0.1641  0.4798  0.1250
19543TIP3    H180120   3.562   4.218  11.034  0.5073  0.5458 -0.9055
19543TIP3    H280121   3.435   4.136  11.050  0.2385  1.2802  1.0581
19544TIP3   OH280122   2.517   4.484   0.631 -0.2708  0.4913 -0.5136
19544TIP3    H180123   2.529   4.578   0.643 -0.2753  0.5596 -1.0099
19544TIP3    H280124   2.424   4.474   0.610  0.2694  0.7280 -3.4449
19545TIP3   OH280125   2.516   5.300  12.853 -0.0168  0.2900  0.6001
19545TIP3    H180126   2.478   5.368  12.798  0.3885 -0.3251 -0.4833
19545TIP3    H280127   2.443   5.239  12.869  0.2373 -0.4115 -0.7122
19546TIP3   OH280128   4.305   5.339   6.695 -0.7719  0.0578  0.3748
19546TIP3    H180129   4.383   5.361   6.746 -1.3233  0.3859  1.0939
19546TIP3    H280130   4.319   5.382   6.610  0.7390 -1.5580 -0.2494
19547TIP3   OH280131   2.326   5.147  11.099 -0.2879  0.0173  0.1539
19547TIP3    H180132   2.349   5.181  11.013 -0.9636 -1.4723 -0.6478
19547TIP3    H280133   2.244   5.191  11.121  2.1033  4.1199  2.3164
19548TIP3   OH280134   2.951   0.659  16.393 -0.1912  0.0605 -0.3500
19548TIP3    H180135   2.914   0.609  16.320 -0.6557  0.9581 -0.7578
19548TIP3    H280136   2.933   0.606  16.470  1.6197 -1.6126 -1.0189
19549TIP3   OH280137   3.901   3.148  13.846  0.2799 -0.5937  0.2253
19549TIP3    H180138   3.840   3.087  13.888  0.1008 -0.8318 -0.3766
19549TIP3    H280139   3.951   3.094  13.785  0.0520 -0.1271 -0.3850
19550TIP3   OH280140   4.391   5.348   5.165 -0.1203 -0.1062  0.3070
19550TIP3    H180141   4.379   5.435   5.126 -2.0732 -0.0348  0.9549
19550TIP3    H280142   4.328   5.292   5.119 -1.0108 -0.4783  1.9005
19551TIP3   OH280143   0.793   2.045  14.604  0.0861  1.0431  0.4366
19551TIP3    H180144   0.716   1.988  14.607 -0.5924  1.9571  1.1795
19551TIP3    H280145   0.868   1.986  14.615 -0.4974  0.1265 -0.4686
19552TIP3   OH280146   6.492   4.598  13.684  0.0798 -0.1672  0.4349
19552TIP3    H180147   6.585   4.596  13.662 -0.4484 -0.5052 -2.0177
19552TIP3    H280148   6.465   4.506  13.682 -0.6459  0.0505 -0.6027
19553TIP3   OH280149   0.048   4.385  16.225  0.1946 -0.4580  0.0483
19553TIP3    H180150  -0.001   4.458  16.264 -1.3093 -1.4190  0.0697
19553TIP3    H280151  -0.019   4.332  16.182  1.5041 -0.7618 -1.7357
19554TIP3   OH280152   6.493   0.113  16.335  0.2684 -0.1709  0.0208
19554TIP3    H180153   6.461   0.064  16.411 -0.4342  0.0435 -0.1230
19554TIP3    H280154   6.445   0.196  16.339 -0.3977 -0.4850 -1.1171
19555TIP3   OH280155   3.509   1.013   1.868  0.3609  0.2208 -0.2252
19555TIP3    H180156   3.484   0.963   1.790 -0.3600 -1.8118  1.1918
19555TIP3    H280157   3.546   1.094   1.835  0.8510 -0.9216 -2.6830
19556TIP3   OH280158   1.233   4.791   0.597  0.3248  0.2124 -0.2165
19556TIP3    H180159   1.324   4.763   0.586  0.1703 -0.0974 -0.7139
19556TIP3    H280160   1.203   4.813   0.509  0.6861  2.7819  0.2120
19557TIP3   OH280161   2.586   0.678   5.393 -0.0489 -0.3394  0.1702
19557TIP3    H180162   2.492   0.689   5.381 -0.1968 -2.7743 -1.5108
19557TIP3    H280163   2.611   0.609   5.331  2.6164 -0.6602  1.4475
19558TIP3   OH280164   5.941   3.279   5.232 -0.5752 -0.2023  0.1355
19558TIP3    H180165   5.963   3.244   5.319  2.4813 -1.2288 -0.9442
19558TIP3    H280166   5.911   3.203   5.183  0.0898 -0.1086 -0.4201
19559TIP3   OH280167   6.417   4.723   1.677  0.3271  0.3276 -0.2916
19559TIP3    H180168   6.394   4.631   1.680  0.5612  0.2623 -0.4332
19559TIP3    H280169   6.398   4.756   1.765  1.5940 -0.1851  0.1982
19560TIP3   OH280170   2.187   3.196   0.041  0.1551 -0.6111  0.7028
19560TIP3    H180171   2.223   3.108   0.052  0.4642 -0.4237  1.2288
19560TIP3    H280172   2.204   3.239   0.125  1.3462  0.4331 -0.0437
19561TIP3   OH280173   5.209   2.863   4.200 -0.5806 -0.0090 -0.2579
19561TIP3    H180174   5.173   2.816   4.275  0.3121  0.3634  0.4295
19561TIP3    H280175   5.265   2.931   4.239  0.5484 -0.3290 -1.2523
19562TIP3   OH280176   6.368   2.161   1.448 -0.2064 -0.5629 -0.6496
19562TIP3    H180177   6.384   2.070   1.424  1.0708 -0.6910  0.5570
19562TIP3    H280178   6.432   2.211   1.397  0.5252 -0.5643  0.2377
19563TIP3   OH280179   2.984   2.078   3.864 -0.4149 -0.4767  0.1532
19563TIP3    H180180   2.971   2.126   3.945  0.6585 -1.1005  0.7063
19563TIP3    H280181   3.079   2.078   3.850 -0.3793 -2.2463  0.0817
19564TIP3   OH280182   5.712   1.713  11.047 -0.5390  0.4438 -0.1707
19564TIP3    H180183   5.740   1.674  11.130 -0.1093  0.6485 -0.2126
19564TIP3    H280184   5.757   1.662  10.980 -1.3752 -0.1239 -0.3157
19565TIP3   OH280185   6.084   5.423  10.982  0.2860  0.1254  0.5176
19565TIP3    H180186   6.080   5.475  11.062  2.0951  0.7326  0.2696
19565TIP3    H280187   6.177   5.405  10.970  0.0060 -0.3812 -1.1741
19566TIP3   OH280188   1.069   5.867  11.232 -0.0093  0.3764  0.3360
19566TIP3    H180189   1.141   5.930  11.236 -0.0772  0.4214  0.8661
19566TIP3    H280190   1.009   5.894  11.302  0.1800 -0.5400  0.8693
19567TIP3   OH280191   1.427   5.561   5.235  0.3645  0.0983 -0.1074
19567TIP3    H180192   1.360   5.565   5.303  0.0220  2.7762 -0.4979
19567TIP3    H280193   1.380   5.534   5.156 -0.4744  2.4305 -0.4927
19568TIP3   OH280194   5.403   5.083   3.408 -0.0922  0.0149 -0.2296
19568TIP3    H180195   5.434   5.171   3.386 -0.2192 -0.0710 -0.7710
19568TIP3    H280196   5.372   5.048   3.324 -0.9166 -0.1908  0.1589
19569TIP3   OH280197   1.743   2.997  11.304 -0.4079  0.4348  0.4201
19569TIP3    H180198   1.779   3.030  11.222  1.4663 -0.2863  0.8979
19569TIP3    H280199   1.775   2.907  11.309  1.8466  1.2579  3.1781
19570TIP3   OH280200   3.453   0.902  11.636  0.6204 -0.2454  0.0486
19570TIP3    H180201   3.370   0.859  11.656  1.0864 -1.1268  0.1459
19570TIP3    H280202   3.433   0.959  11.562  0.6369 -3.0759 -2.3652
19571TIP3   OH280203   1.293   1.164   5.205 -0.0805 -0.4379  0.2854
19571TIP3    H180204   1.294   1.105   5.129 -0.0356  0.8533 -0.7384
19571TIP3    H280205   1.379   1.205   5.204  0.4128 -1.3322  1.8211
19572TIP3   OH280206   2.705   5.418  14.118 -0.4395 -0.3132 -0.2161
19572TIP3    H180207   2.690   5.387  14.208 -0.8536 -1.2499 -0.5946
19572TIP3    H280208   2.720   5.339  14.068  2.8791  0.3534 -0.4676
19573TIP3   OH280209   5.333   5.462   1.373  0.2253  0.1742 -0.1111
19573TIP3    H180210   5.372   5.376   1.357  0.7835  0.3860  0.0950
19573TIP3    H280211   5.326   5.501   1.286  0.7558  0.2499 -0.1254
19574TIP3   OH280212   4.290   4.397   1.032  0.0805 -0.1642  0.1701
19574TIP3    H180213   4.363   4.335   1.039  1.0162  0.8923  0.1008
19574TIP3    H280214   4.212   4.342   1.035  0.8700 -1.3282  0.3115
19575TIP3   OH280215   5.960   5.763   1.276  0.1153 -0.2341 -0.2586
19575TIP3    H180216   6.030   5.714   1.318  0.3648 -0.2554 -0.7006
19575TIP3    H280217   5.912   5.699   1.224  0.3374 -0.0446 -0.6997
19576TIP3   OH280218   2.512   4.618  14.869 -0.3766 -0.3883  0.0956
19576TIP3    H180219   2.510   4.628  14.774 -1.2547 -1.3154  0.0069
19576TIP3    H280220   2.420   4.622  14.895 -0.0788  1.3023  1.0878
19577TIP3   OH280221   1.858   2.399   2.895  0.2040  0.4567 -0.2010
19577TIP3    H180222   1.850   2.433   2.984  2.5457  0.8063 -0.0845
19577TIP3    H280223   1.911   2.320   2.903  1.2136  0.9804 -1.3765
19578TIP3   OH280224   4.389   6.370   4.876 -0.0794  0.4031  0.7293
19578TIP3    H180225   4.345   6.311   4.936 -1.7795  0.7446 -0.1304
19578TIP3    H280226   4.331   6.446   4.868 -0.0421  0.2915 -1.4472
19579TIP3   OH280227   3.296   3.525  16.611 -0.3489  0.0039 -0.2256
19579TIP3    H180228   3.344   3.606  16.630 -0.6284 -0.1720  1.4068
19579TIP3    H280229   3.313   3.508  16.518  1.0699  1.0417 -0.1928
19580TIP3   OH280230   2.276   1.227   0.288  0.7146  0.0004  0.3858
19580TIP3    H180231   2.240   1.298   0.341  0.8666  0.2862  0.1068
19580TIP3    H280232   2.240   1.242   0.201 -0.2632 -0.9850  0.5898
19581TIP3   OH280233   6.362   0.300   4.834 -0.1385  0.4633 -0.0815
19581TIP3    H180234   6.406   0.330   4.754 -0.5103 -1.8996 -1.2810
19581TIP3    H280235   6.372   0.205   4.831 -0.7299  0.2708  2.3996
19582TIP3   OH280236   2.443   5.814  15.307  0.3894 -0.2492 -0.4957
19582TIP3    H180237   2.389   5.890  15.285  2.0282  0.9885 -0.4709
19582TIP3    H280238   2.533   5.848  15.307  1.0306 -1.7656  1.3326
19583TIP3   OH280239   5.206   0.201   4.729 -0.5132  0.6474  0.3218
19583TIP3    H180240   5.242   0.123   4.771 -0.4157 -0.2085 -1.2790
19583TIP3    H280241   5.124   0.218   4.776 -0.3367 -0.1716  0.9500
19584TIP3   OH280242   4.211   6.510  10.623  0.0067  0.4191 -0.2263
19584TIP3    H180243   4.168   6.565  10.558 -2.0896  1.5305  1.9438
19584TIP3    H280244   4.244   6.571  10.689 -0.2875 -0.7782  1.0774
19585TIP3   OH280245   1.837   5.694   3.851 -0.2724 -0.7711 -0.6334
19585TIP3    H180246   1.754   5.685   3.898 -0.0963 -0.4742 -0.2550
19585TIP3    H280247   1.885   5.761   3.900 -0.7904  0.8655 -2.2382
19586TIP3   OH280248   3.599   2.729  12.039 -0.1734  0.2090  0.0144
19586TIP3    H180249   3.640   2.695  11.960  1.0906 -0.8063  1.0621
19586TIP3    H280250   3.514   2.685  12.044 -0.4134  0.5511 -0.9474
19587TIP3   OH280251   1.786   1.996  15.126  0.1971  0.4691 -0.4587
19587TIP3    H180252   1.819   1.978  15.038  0.0923 -0.0831 -0.3844
19587TIP3    H280253   1.861   2.033  15.172  1.3718 -2.6393  0.3196
19588TIP3   OH280254   6.306   5.038  11.606 -0.0301  0.3358  0.0428
19588TIP3    H180255   6.340   5.088  11.532 -0.8476 -1.4261 -1.6035
19588TIP3    H280256   6.225   4.999  11.573  0.4447 -1.8604  1.3131
19589TIP3   OH280257   4.377   6.588  11.957  0.0902  0.1361  0.8396
19589TIP3    H180258   4.293   6.603  11.913  0.5648  0.5781  0.0352
19589TIP3    H280259   4.435   6.557  11.887  0.5855 -0.1948  1.3902
19590TIP3   OH280260   6.157   3.212  16.882 -0.2079 -0.1571 -0.2930
19590TIP3    H180261   6.108   3.208  16.964 -0.0620  0.6770 -0.1495
19590TIP3    H280262   6.165   3.306  16.865  1.6646 -0.2482 -0.1047
19591TIP3   OH280263   6.179   5.930  14.573  0.0680 -0.4949 -0.5281
19591TIP3    H180264   6.213   6.016  14.597 -0.6522 -0.3393 -0.0210
19591TIP3    H280265   6.240   5.868  14.612  0.1155 -0.2174 -0.1568
19592TIP3   OH280266   2.494   3.701  11.312 -0.3630  0.3172  0.3404
19592TIP3    H180267   2.486   3.611  11.281  0.6640  0.3359  0.0008
19592TIP3    H280268   2.479   3.695  11.406 -1.7572  0.0144  0.1236
19593TIP3   OH280269   2.427   3.409   4.514 -0.2685 -0.1134  0.2537
19593TIP3    H180270   2.445   3.372   4.427  1.3542 -0.8797  0.8935
19593TIP3    H280271   2.398   3.498   4.496  2.4968  0.6406 -1.0069
19594TIP3   OH280272   4.857   1.233  13.429 -0.1856  0.5636  1.0869
19594TIP3    H180273   4.893   1.267  13.511  1.0379 -1.3305  1.4051
19594TIP3    H280274   4.877   1.139  13.431 -4.3112 -0.4981  0.7625
19595TIP3   OH280275   1.688   3.371  13.783 -0.6007 -0.2963  0.1257
19595TIP3    H180276   1.675   3.301  13.719 -1.7549 -0.6907  0.7678
19595TIP3    H280277   1.611   3.367  13.839 -0.0020  0.5769  1.0456
19596TIP3   OH280278   2.168   2.927  13.233 -0.3863 -0.0418 -0.0983
19596TIP3    H180279   2.102   2.893  13.294  0.1434 -2.4543 -0.7650
19596TIP3    H280280   2.117   2.966  13.162 -1.0677 -0.3617  0.2068
19597TIP3   OH280281   2.738   2.143  15.006  0.3668  0.8756  0.5147
19597TIP3    H180282   2.706   2.204  14.939  0.3147  0.9477  0.6034
19597TIP3    H280283   2.763   2.200  15.079 -0.5832  0.7281  0.9696
19598TIP3   OH280284   5.792   3.846   0.832 -0.4888 -0.0699  0.4981
19598TIP3    H180285   5.755   3.933   0.816  0.7798  0.5232  0.7048
19598TIP3    H280286   5.870   3.862   0.884  1.1675 -1.1050 -1.5015
19599TIP3   OH280287   1.734   3.934  14.641  0.5777  0.7821  0.0273
19599TIP3    H180288   1.784   3.859  14.671  0.1886 -0.0696 -1.3837
19599TIP3    H280289   1.750   3.938  14.547 -2.0796  0.3827 -0.5105
19600TIP3   OH280290   4.693   4.208  15.873 -0.1403 -0.3013 -0.1721
19600TIP3    H180291   4.704   4.224  15.967  0.2915 -0.2469 -0.2295
19600TIP3    H280292   4.600   4.190  15.862  0.0397 -1.7861  0.4943
19601TIP3   OH280293   0.681   5.504  15.337 -0.6770  0.2718  0.0160
19601TIP3    H180294   0.635   5.587  15.349 -0.2415  0.5073  0.0748
19601TIP3    H280295   0.765   5.528  15.297 -1.0940 -0.2709 -1.2096
19602TIP3   OH280296   3.599   6.421   5.792  0.1380 -0.4984 -0.4954
19602TIP3    H180297   3.516   6.378   5.773  0.7318 -1.7116 -0.4593
19602TIP3    H280298   3.666   6.360   5.760  1.0597 -0.5927  1.4484
19603TIP3   OH280299   6.473   5.481   2.130 -0.2366 -0.3546 -0.1407
19603TIP3    H180300   6.502   5.555   2.076  0.5991  0.5695  1.4855
19603TIP3    H280301   6.536   5.411   2.110 -0.1964 -0.1651 -0.6833
19604TIP3   OH280302   1.040   3.139  15.372  0.2003  0.1939 -0.5397
19604TIP3    H180303   1.122   3.089  15.369  0.1173 -0.0063  0.4046
19604TIP3    H280304   1.043   3.194  15.294  1.0930 -0.0359 -0.6778
19605TIP3   OH280305   3.819   0.444  16.248 -0.3605  0.2244 -0.1255
19605TIP3    H180306   3.871   0.518  16.215 -0.6873  0.8819  0.7828
19605TIP3    H280307   3.863   0.367  16.214  0.5887  0.8085 -0.2759
19606TIP3   OH280308   1.827   6.181  17.158  0.5312  0.6132  0.6675
19606TIP3    H180309   1.874   6.252  17.201 -0.8570  1.8754  0.1976
19606TIP3    H280310   1.747   6.170  17.210  0.1090  0.3292 -0.0277
19607TIP3   OH280311   4.940   6.604   3.101 -0.4712  0.1081 -0.1849
19607TIP3    H180312   4.867   6.658   3.130 -1.0860 -0.8566  0.1281
19607TIP3    H280313   5.018   6.650   3.132 -0.8634  1.7016 -1.4133
19608TIP3   OH280314   5.361   2.920  11.087 -0.6970  0.5730 -0.0079
19608TIP3    H180315   5.325   2.923  11.175  0.1640  0.9114  0.3427
19608TIP3    H280316   5.456   2.909  11.100 -0.6102  0.1807 -0.8929
19609TIP3   OH280317   1.157   6.214  15.735  0.4867  0.1580 -0.1993
19609TIP3    H180318   1.079   6.162  15.714 -0.5279  1.3948  0.3837
19609TIP3    H280319   1.145   6.296  15.688  1.7208  0.1792 -0.5286
19610TIP3   OH280320   2.484   1.695  14.718  0.6317  0.2819  0.1130
19610TIP3    H180321   2.498   1.745  14.798  0.9626 -1.5569  1.2667
19610TIP3    H280322   2.567   1.703  14.670  1.3024 -0.5339  1.0996
19611TIP3   OH280323   5.966   1.608  11.618 -0.0726  0.6438 -0.6334
19611TIP3    H180324   5.951   1.534  11.559  0.8442 -0.3553  0.3266
19611TIP3    H280325   5.878   1.639  11.640 -0.6214 -1.5832  0.6422
19612TIP3   OH280326   4.861   4.998  11.361  0.8444  0.4440  0.0176
19612TIP3    H180327   4.913   4.931  11.404 -3.2771 -1.7276  2.1639
19612TIP3    H280328   4.803   4.950  11.302 -1.9210  2.0206  1.2489
19613TIP3   OH280329   3.723   1.727  11.589 -0.3348 -0.1925 -0.2735
19613TIP3    H180330   3.705   1.634  11.607 -0.4762 -0.2774 -0.8327
19613TIP3    H280331   3.776   1.755  11.663 -2.2771 -0.0683  1.1549
19614TIP3   OH280332   1.719   5.767  11.962 -0.2784  0.2562  0.0140
19614TIP3    H180333   1.669   5.790  12.040 -2.1818  0.0833 -1.1108
19614TIP3    H280334   1.654   5.756  11.893  0.9836 -2.7850 -0.8766
19615TIP3   OH280335   4.281   4.121   1.294 -0.3345  0.3792  0.0578
19615TIP3    H180336   4.245   4.139   1.380  1.5100  0.5528  0.8524
19615TIP3    H280337   4.271   4.026   1.282 -1.6650  0.5180 -0.0890
19616TIP3   OH280338   4.367   6.329   5.832 -0.0941 -0.0478 -0.4438
19616TIP3    H180339   4.382   6.378   5.751 -1.3296 -0.5924 -1.0324
19616TIP3    H280340   4.272   6.321   5.838 -0.1574  1.5630  2.0471
19617TIP3   OH280341   1.139   1.214  14.291  0.5222 -0.4882 -0.4001
19617TIP3    H180342   1.150   1.162  14.211 -1.6048  0.3781 -1.3465
19617TIP3    H280343   1.113   1.301  14.260 -0.3676 -0.1318  1.2083
19618TIP3   OH280344   3.999   1.089  10.736  0.5745  0.4602  0.2357
19618TIP3    H180345   4.089   1.058  10.725  0.0636 -1.5593  1.1743
19618TIP3    H280346   3.953   1.015  10.775 -1.3716  1.6501  0.3472
19619TIP3   OH280347   5.816   0.172  17.038 -0.9695  0.4675  0.1476
19619TIP3    H180348   5.841   0.088  17.076  0.0204 -0.3447 -2.1138
19619TIP3    H280349   5.724   0.162  17.017 -1.0021  0.1613  0.4266
19620TIP3   OH280350   1.503   4.589  10.919 -0.0500  0.1982  0.2417
19620TIP3    H180351   1.429   4.643  10.946 -0.6519 -0.5471  0.1034
19620TIP3    H280352   1.500   4.590  10.823  1.8980  2.5863  0.1004
19621TIP3   OH280353   6.052   4.892   0.416  0.3414 -0.7558  0.4468
19621TIP3    H180354   5.965   4.895   0.375  0.7262  0.2008 -0.3556
19621TIP3    H280355   6.095   4.972   0.386  1.1866 -0.7632  1.5612
19622TIP3   OH280356   3.176   4.043   3.821  0.4777  0.2546  0.0435
19622TIP3    H180357   3.142   3.970   3.770 -1.3602  2.0383 -1.4498
19622TIP3    H280358   3.271   4.033   3.816  0.3119 -0.8480 -1.9344
19623TIP3   OH280359   4.868   4.267  14.558  0.1780 -0.1507 -0.1579
19623TIP3    H180360   4.885   4.284  14.465  2.6869 -0.4054  0.1857
19623TIP3    H280361   4.923   4.192  14.579  0.4380  0.5210  1.7651
19624TIP3   OH280362   2.465   4.153  14.437 -0.3187 -0.1407  0.2557
19624TIP3    H180363   2.424   4.193  14.514 -1.0292  0.6244 -0.4913
19624TIP3    H280364   2.486   4.064  14.464  0.8026  0.5478  1.8123
19625TIP3   OH280365   1.575   6.128  12.756 -0.0337  0.6644 -0.1981
19625TIP3    H180366   1.655   6.181  12.760  0.7718 -0.5999  2.2105
19625TIP3    H280367   1.601   6.048  12.711  0.1244  0.2243  0.6445
19626TIP3   OH280368   0.291   2.355   1.191 -0.0715  0.5945 -0.2645
19626TIP3    H180369   0.341   2.305   1.256 -0.2895 -0.4098 -0.8549
19626TIP3    H280370   0.346   2.431   1.174  0.8556 -0.0481 -0.2472
19627TIP3   OH280371   6.136   3.072  10.488 -0.1733 -0.1774 -0.2966
19627TIP3    H180372   6.137   3.114  10.402 -1.6991 -2.0828 -1.3267
19627TIP3    H280373   6.103   2.984  10.471 -0.5447 -0.6046  2.2708
19628TIP3   OH280374   2.860   2.760  11.044 -0.0356  0.0061 -0.0401
19628TIP3    H180375   2.845   2.749  10.950 -1.3261 -1.0066  0.2561
19628TIP3    H280376   2.772   2.757  11.083  0.5313 -0.2868  1.2619
19629TIP3   OH280377   0.666   1.149   0.542 -0.2874  0.2233 -0.4691
19629TIP3    H180378   0.652   1.094   0.619 -0.4259  0.3421 -0.4094
19629TIP3    H280379   0.667   1.239   0.575 -2.5629  0.4671 -0.8496
19630TIP3   OH280380   4.132   1.412  14.152 -0.5263  0.4497  0.1847
19630TIP3    H180381   4.159   1.396  14.061 -0.3374  2.3963 -0.1490
19630TIP3    H280382   4.181   1.348  14.203 -0.0360 -0.1716 -1.0107
19631TIP3   OH280383   4.384   2.480   1.389  0.1792  0.1612  0.1814
19631TIP3    H180384   4.430   2.398   1.407 -2.6067 -1.7314 -0.6169
19631TIP3    H280385   4.341   2.502   1.471  0.8439  0.8095  0.3666
19632TIP3   OH280386   2.184   2.682   5.189 -0.4879  0.4329 -0.3612
19632TIP3    H180387   2.226   2.640   5.265  0.2083  1.1674 -0.3289
19632TIP3    H280388   2.224   2.768   5.185 -0.7524  0.5139 -1.3891
19633TIP3   OH280389   0.189   1.194   5.482 -0.2308  0.1634 -0.6537
19633TIP3    H180390   0.239   1.249   5.422  2.3724 -0.9914  0.2940
19633TIP3    H280391   0.183   1.110   5.437  0.7789 -0.3793  0.1764
19634TIP3   OH280392   1.837   5.009   3.512 -0.1596 -0.0817 -0.3921
19634TIP3    H180393   1.798   5.020   3.426 -0.7452  0.0825 -0.1091
19634TIP3    H280394   1.921   4.965   3.495  0.3850  1.2034 -1.1736
19635TIP3   OH280395   5.715   3.818  16.285  0.4937  0.5962 -0.3810
19635TIP3    H180396   5.750   3.787  16.201 -0.2131  0.5797 -0.6750
19635TIP3    H280397   5.621   3.822  16.271  0.4342  1.2510  0.2056
19636TIP3   OH280398   0.426   6.239  12.880 -0.3313 -0.2749  0.4078
19636TIP3    H180399   0.433   6.152  12.920  0.2717 -0.3071  0.2422
19636TIP3    H280400   0.498   6.289  12.918 -0.0868 -0.1415 -0.2165
19637TIP3   OH280401   0.669   4.440  13.460 -0.1726 -0.0101 -0.2335
19637TIP3    H180402   0.622   4.519  13.432 -2.6449 -1.2766  0.0774
19637TIP3    H280403   0.624   4.412  13.540  0.3970 -1.9328 -0.5331
19638TIP3   OH280404   1.581   0.643  15.441  0.2596 -1.0502 -0.6231
19638TIP3    H180405   1.674   0.652  15.461  0.2566 -3.6271  0.9812
19638TIP3    H280406   1.547   0.732  15.445  2.4619 -0.1599 -0.2674
19639TIP3   OH280407   2.364   0.851  14.025  0.4387  0.4682  0.4457
19639TIP3    H180408   2.363   0.862  13.930 -0.8815 -0.4674  0.3299
19639TIP3    H280409   2.381   0.758  14.039 -2.0343  0.0327  1.0201
19640TIP3   OH280410   3.729   3.274   4.293 -0.5154  0.2706 -0.0577
19640TIP3    H180411   3.639   3.243   4.292 -0.7859  1.0033  0.5143
19640TIP3    H280412   3.781   3.197   4.315 -0.8838 -0.4055 -1.4218
19641TIP3   OH280413   4.091   4.062  16.570  0.1724 -0.4370 -0.0268
19641TIP3    H180414   4.077   4.097  16.482  0.2244  0.4456  0.3093
19641TIP3    H280415   4.058   3.973  16.566  2.2894 -1.2360 -1.5999
19642TIP3   OH280416   2.606   4.534  11.931  0.2538 -0.1444  0.0774
19642TIP3    H180417   2.624   4.591  12.006 -0.6564 -0.9816  0.9506
19642TIP3    H280418   2.552   4.588  11.873 -1.4159 -0.4007  1.3462
19643TIP3   OH280419   5.186   1.268   3.582  0.4422  0.1935 -1.3403
19643TIP3    H180420   5.268   1.219   3.572  1.8811  1.9049  0.9501
19643TIP3    H280421   5.214   1.357   3.601 -2.0399  1.3349 -2.6212
19644TIP3   OH280422   4.950   3.654  16.558 -0.0334 -1.1696  0.1385
19644TIP3    H180423   4.896   3.730  16.579 -1.0442 -1.6310 -0.7199
19644TIP3    H280424   4.971   3.615  16.643  0.6659  0.1601  0.6041
19645TIP3   OH280425   3.992   4.265  15.928  0.2494  0.8397 -0.0449
19645TIP3    H180426   4.045   4.190  15.902  0.7218  1.1530 -0.0008
19645TIP3    H280427   4.007   4.330  15.858 -1.2349  0.3963 -0.8092
19646TIP3   OH280428   2.470   4.355   1.796  0.4319  0.5539  0.0598
19646TIP3    H180429   2.520   4.372   1.876  2.8922  3.4275 -1.8540
19646TIP3    H280430   2.512   4.279   1.757  2.4684  1.9942 -0.7316
19647TIP3   OH280431   1.541   2.783  16.262  0.2309  0.4777  0.2317
19647TIP3    H180432   1.559   2.773  16.355 -2.0566  0.1530  0.6914
19647TIP3    H280433   1.547   2.693  16.227 -0.0448  0.4390  0.2863
19648TIP3   OH280434   2.631   5.537  13.187 -0.6391  0.4059  0.1163
19648TIP3    H180435   2.582   5.563  13.108 -1.4489 -1.4080 -0.0425
19648TIP3    H280436   2.648   5.444  13.174 -2.4384 -0.4389  2.8846
19649TIP3   OH280437   3.229   3.383  13.914  0.8687 -0.0990  0.6440
19649TIP3    H180438   3.181   3.381  13.996  1.4541 -0.0022  0.9993
19649TIP3    H280439   3.168   3.420  13.851  0.2134 -0.7178  0.8951
19650TIP3   OH280440   3.090   6.566  15.866  0.0404  0.0923  0.1662
19650TIP3    H180441   3.119   6.638  15.922 -2.6315  1.9183 -0.6178
19650TIP3    H280442   3.145   6.572  15.788  0.9083  0.2356  0.7786
19651TIP3   OH280443   4.494   2.503  11.831 -0.0834 -0.6678  0.8965
19651TIP3    H180444   4.467   2.593  11.851  1.6584  0.3342 -0.8423
19651TIP3    H280445   4.444   2.480  11.753  0.6565 -0.5776  0.3913
19652TIP3   OH280446   1.725   3.962   5.531 -0.0867  0.1434 -0.3632
19652TIP3    H180447   1.687   3.939   5.446 -2.1041  1.1211  0.2220
19652TIP3    H280448   1.670   3.917   5.595  0.9349  0.0464  0.4724
19653TIP3   OH280449   2.170   2.083  14.617  0.7404  0.6041 -0.0449
19653TIP3    H180450   2.126   2.005  14.649 -0.3541  0.9677 -0.6072
19653TIP3    H280451   2.147   2.088  14.524  0.4485  1.7867  0.0642
19654TIP3   OH280452   4.696   3.172  15.675 -0.1032  0.4888  0.1391
19654TIP3    H180453   4.628   3.230  15.708  0.2111  0.8034  0.2379
19654TIP3    H280454   4.711   3.201  15.585  0.3700  0.8563  0.3325
19655TIP3   OH280455   5.896   4.045  14.502  0.2745  0.2268  0.2395
19655TIP3    H180456   5.948   4.118  14.466 -1.6737  1.3161 -0.5191
19655TIP3    H280457   5.936   3.967  14.464  1.5624  0.9848 -0.0377
19656TIP3   OH280458   5.584   2.889   4.609 -0.0377  0.3321 -0.0148
19656TIP3    H180459   5.616   2.957   4.550  1.5516  0.9200  1.4376
19656TIP3    H280460   5.506   2.854   4.565  1.3306  0.3498 -2.7046
19657TIP3   OH280461   6.412   4.266   3.849  0.2837 -0.4706 -0.1915
19657TIP3    H180462   6.331   4.224   3.877  0.0852 -0.1142 -0.2216
19657TIP3    H280463   6.452   4.298   3.930  0.2362 -0.3682 -0.2082
19658TIP3   OH280464   0.642   0.314  13.572 -0.2710 -0.0622 -0.0780
19658TIP3    H180465   0.643   0.218  13.562  2.6378 -0.0830 -0.4832
19658TIP3    H280466   0.598   0.329  13.655  0.8963 -1.9117  0.9352
19659TIP3   OH280467   0.735   2.240   5.178  0.3226  0.2741 -0.0626
19659TIP3    H180468   0.670   2.258   5.109 -0.9765  2.3118  1.5800
19659TIP3    H280469   0.759   2.326   5.211  4.8245 -0.2855 -1.2608
19660TIP3   OH280470   1.238   1.102  14.522 -0.0959 -0.3414 -0.4207
19660TIP3    H180471   1.216   1.120  14.431 -0.2629 -0.7732 -0.4717
19660TIP3    H280472   1.157   1.067  14.559  0.4012 -1.6481 -0.5222
19661TIP3   OH280473   0.409   0.305  13.270  0.2422 -0.0673  0.5360
19661TIP3    H180474   0.382   0.239  13.334 -1.4851 -0.5249 -0.5819
19661TIP3    H280475   0.437   0.254  13.194  0.0473  0.4713  0.0958
19662TIP3   OH280476   1.970   3.812  13.671  0.3101  0.5381 -0.5980
19662TIP3    H180477   1.933   3.724  13.681  0.2914  0.6845  0.8666
19662TIP3    H280478   1.908   3.858  13.614 -0.9411  0.3006  0.5216
19663TIP3   OH280479   5.356   0.437   5.365 -0.0486 -0.5507 -0.2427
19663TIP3    H180480   5.368   0.444   5.271 -1.6751 -0.7787 -0.5000
19663TIP3    H280481   5.273   0.481   5.382 -0.3576 -1.5303  0.9077
19664TIP3   OH280482   4.679   5.169   2.376 -0.4236 -0.0760  0.8309
19664TIP3    H180483   4.585   5.170   2.355 -0.2303  1.0149 -0.0828
19664TIP3    H280484   4.689   5.095   2.436 -2.0813  0.5350  1.9475
19665TIP3   OH280485   1.696   4.867   5.076  0.1325 -0.4852  0.0577
19665TIP3    H180486   1.714   4.789   5.024 -0.5298 -2.0482  2.0227
19665TIP3    H280487   1.739   4.850   5.160  0.2708  1.4403  0.4125
19666TIP3   OH280488   2.705   0.632   1.949  0.3192 -0.0313  0.0276
19666TIP3    H180489   2.780   0.610   1.894  0.5050  0.1204  0.2180
19666TIP3    H280490   2.630   0.592   1.905  0.4650  0.0960 -0.3342
19667TIP3   OH280491   0.766   5.307  13.905  0.0547 -0.4737  0.6898
19667TIP3    H180492   0.815   5.341  13.830 -0.9077 -0.0931  0.2137
19667TIP3    H280493   0.829   5.307  13.977  0.2624  1.8288  0.5782
19668TIP3   OH280494   6.592   2.727  15.389 -0.1076 -0.4554  0.3141
19668TIP3    H180495   6.677   2.711  15.350 -0.2991  1.5446 -1.0911
19668TIP3    H280496   6.529   2.714  15.318 -0.8436 -0.5164  0.9604
19669TIP3   OH280497   1.364   3.185  14.503 -0.3648  0.2349  0.2702
19669TIP3    H180498   1.401   3.197  14.590  1.6687 -1.5170 -0.2735
19669TIP3    H280499   1.278   3.227  14.507 -0.1704  0.5104  2.9806
19670TIP3   OH280500   2.008   0.986  16.519  0.4604  0.1356 -0.7045
19670TIP3    H180501   2.027   1.058  16.459  0.2143 -0.1526 -1.1450
19670TIP3    H280502   2.051   0.910  16.479 -0.9907 -0.3870 -1.3628
19671TIP3   OH280503   0.145   5.900   2.178 -0.0242 -0.0032 -0.1012
19671TIP3    H180504   0.061   5.945   2.165  1.4911  3.3264  0.5921
19671TIP3    H280505   0.123   5.823   2.229 -2.7861  0.1898 -0.8352
19672TIP3   OH280506   5.093   5.677  14.803 -0.2608 -0.2020  0.5028
19672TIP3    H180507   5.171   5.692  14.856 -0.0336 -0.1875  0.1663
19672TIP3    H280508   5.026   5.649  14.866  0.2792 -1.1801  0.6642
19673TIP3   OH280509   3.323   5.016   2.274  0.0427 -0.7276 -0.7221
19673TIP3    H180510   3.415   4.990   2.274  0.2972  0.1660 -0.5623
19673TIP3    H280511   3.290   4.984   2.189  0.0263 -2.6319 -0.0557
19674TIP3   OH280512   0.159   1.939   4.797  0.2668 -0.0640  0.3310
19674TIP3    H180513   0.088   1.880   4.823  1.0935 -0.3215  2.1940
19674TIP3    H280514   0.196   1.899   4.718  0.0214 -1.3903  0.8568
19675TIP3   OH280515   5.843   4.875   6.382  0.3814 -0.1540  0.1027
19675TIP3    H180516   5.914   4.937   6.400  0.7313 -0.8935  1.3986
19675TIP3    H280517   5.827   4.832   6.466 -1.6567  0.0229 -0.1378
19676TIP3   OH280518   5.481   6.435  16.127  0.0455  0.0713 -0.0385
19676TIP3    H180519   5.483   6.387  16.210  0.8695 -0.4744 -0.3505
19676TIP3    H280520   5.554   6.497  16.134  0.7836 -0.6979 -0.7536
19677TIP3   OH280521   3.089   6.634  15.051  0.0407 -0.3794  0.4178
19677TIP3    H180522   3.177   6.597  15.045  1.0251  1.6786  1.2212
19677TIP3    H280523   3.080   6.658  15.143 -0.9805  0.3190  0.1519
19678TIP3   OH280524   5.912   0.449   3.936  0.0387  0.7070 -0.0551
19678TIP3    H180525   5.959   0.442   4.020  0.4695  1.4623 -0.2235
19678TIP3    H280526   5.981   0.455   3.871 -0.2975  0.0255 -0.4825
19679TIP3   OH280527   4.872   5.923  12.403  0.1498  0.0762 -0.5177
19679TIP3    H180528   4.811   5.877  12.461 -0.2807  1.3834  0.1199
19679TIP3    H280529   4.955   5.922  12.450  0.0355  0.2926 -0.3029
19680TIP3   OH280530   6.135   6.320   1.609  0.1494  0.5516  0.1837
19680TIP3    H180531   6.052   6.314   1.657 -1.2414  1.1848 -1.9881
19680TIP3    H280532   6.147   6.413   1.591 -0.4823  0.2335 -2.3526
19681TIP3   OH280533   5.743   0.397  17.179 -0.2727  0.1256  0.6074
19681TIP3    H180534   5.777   0.316  17.140 -4.6048 -0.7315 -2.0688
19681TIP3    H280535   5.681   0.368  17.246 -0.4854  1.3187  0.9539
19682TIP3   OH280536   5.236   5.754  16.184  0.0820  0.0531  0.0795
19682TIP3    H180537   5.248   5.783  16.274 -0.6893  2.0115 -0.3984
19682TIP3    H280538   5.312   5.789  16.137 -1.6424  2.9599 -0.8158
19683TIP3   OH280539   5.001   6.316   3.453  0.2914  0.3047 -0.7129
19683TIP3    H180540   5.065   6.369   3.501 -1.4293  1.4245  0.4684
19683TIP3    H280541   4.953   6.269   3.521  0.0477 -0.7467 -1.5908
19684TIP3   OH280542   2.627   5.065   1.599  0.2721 -0.1235  0.0182
19684TIP3    H180543   2.626   5.041   1.507 -1.0349 -1.6800  0.3875
19684TIP3    H280544   2.692   5.008   1.639  0.6862  0.3990  0.0959
19685TIP3   OH280545   1.527   3.374   2.495  0.1621  0.0087 -0.4489
19685TIP3    H180546   1.604   3.385   2.550 -0.0128 -0.8098 -0.0391
19685TIP3    H280547   1.458   3.421   2.541  0.3550  0.5832 -0.7236
19686TIP3   OH280548   6.231   3.511   5.759  0.5237  0.2319 -0.1953
19686TIP3    H180549   6.248   3.555   5.676 -0.0555 -0.8548 -0.9095
19686TIP3    H280550   6.287   3.434   5.758 -0.3187 -0.4001 -0.0998
19687TIP3   OH280551   4.663   6.812  15.449  1.0621  0.0291  0.3044
19687TIP3    H180552   4.663   6.770  15.363 -1.2326  1.0627 -0.2893
19687TIP3    H280553   4.697   6.900  15.433  0.1840  0.3826  0.3388
19688TIP3   OH280554   6.022   3.140   4.121 -0.5669  0.5271 -0.4925
19688TIP3    H180555   6.037   3.135   4.215 -0.2566  0.1038 -0.5625
19688TIP3    H280556   5.983   3.056   4.099  0.9403 -0.0645 -1.0237
19689TIP3   OH280557   2.899   2.622  12.408 -0.1861  0.0820  0.1369
19689TIP3    H180558   2.971   2.654  12.462 -0.4924  0.3312  0.4056
19689TIP3    H280559   2.881   2.535  12.441 -0.8519  0.5065  0.9387
19690TIP3   OH280560   2.895   5.309  15.493 -0.1628  0.0879  0.0334
19690TIP3    H180561   2.854   5.243  15.549  0.2098 -0.3774 -0.2398
19690TIP3    H280562   2.829   5.331  15.428 -0.0595 -0.4924 -0.2682
19691TIP3   OH280563   4.468   3.106   0.158 -0.2148  0.1104 -0.1150
19691TIP3    H180564   4.427   3.176   0.106 -0.0038  1.2850  1.2418
19691TIP3    H280565   4.398   3.076   0.216 -0.4381 -1.1761 -0.9963
19692TIP3   OH280566   0.325   1.992  12.355  0.1758  0.2497  0.1445
19692TIP3    H180567   0.386   1.972  12.426 -1.4466 -2.9643  0.8144
19692TIP3    H280568   0.252   2.036  12.399 -1.0580 -2.1861  0.7021
19693TIP3   OH280569   0.280   4.111   4.210  0.2163  0.2460 -0.2487
19693TIP3    H180570   0.257   4.167   4.135 -0.6800 -1.6138 -1.4392
19693TIP3    H280571   0.281   4.022   4.174  1.8146 -0.5218  1.5181
19694TIP3   OH280572   1.369   6.615  12.449 -0.2823 -0.0084 -0.1696
19694TIP3    H180573   1.394   6.532  12.408  0.6492  0.6324 -0.9869
19694TIP3    H280574   1.436   6.676  12.418 -0.7230  0.9521  0.7439
19695TIP3   OH280575   5.530   3.680   0.144 -0.3905  0.5744  0.0583
19695TIP3    H180576   5.443   3.715   0.121 -0.9780 -0.1339  1.1416
19695TIP3    H280577   5.568   3.747   0.200 -0.5634  0.5289  0.2311
19696TIP3   OH280578   5.716   3.611  13.225  0.2342 -0.1821  0.2128
19696TIP3    H180579   5.723   3.518  13.202  0.6161  0.0941 -0.8262
19696TIP3    H280580   5.667   3.650  13.152  2.8722  1.0196 -1.0395
19697TIP3   OH280581   2.312   5.258   3.840  0.5526  0.2261 -0.1782
19697TIP3    H180582   2.338   5.341   3.878 -0.0242  1.4959 -2.3578
19697TIP3    H280583   2.244   5.281   3.776  0.2511 -1.9344 -0.7354
19698TIP3   OH280584   0.499   3.114  15.964  0.0861  1.0930  0.3940
19698TIP3    H180585   0.473   3.205  15.973  1.1441  1.2659  2.2319
19698TIP3    H280586   0.550   3.095  16.043  2.4721 -0.2220 -1.3018
19699TIP3   OH280587   4.252   5.444  13.761 -0.8028 -0.0294 -0.4286
19699TIP3    H180588   4.333   5.402  13.731 -1.7472 -0.3115 -2.7266
19699TIP3    H280589   4.239   5.518  13.702  0.2111  3.0314  2.8477
19700TIP3   OH280590   6.465   5.424  15.172  0.4567 -0.4848  0.2160
19700TIP3    H180591   6.480   5.380  15.256 -1.0062 -1.2336  0.1282
19700TIP3    H280592   6.414   5.502  15.194 -0.6965 -1.1344 -0.0047
19701TIP3   OH280593   4.088   6.356  11.445 -0.6534 -0.0523 -0.1915
19701TIP3    H180594   4.080   6.331  11.537 -0.7555  0.8283  0.0536
19701TIP3    H280595   4.083   6.452  11.446 -2.4480 -0.0966 -1.2857
19702TIP3   OH280596   2.613   5.606   2.654  0.3666 -0.0551  0.0175
19702TIP3    H180597   2.701   5.642   2.642  0.8700 -1.7282 -1.8627
19702TIP3    H280598   2.594   5.562   2.571 -2.2631  0.2488  0.3872
19703TIP3   OH280599   4.381   2.707   0.432 -0.2402 -0.4097 -0.0002
19703TIP3    H180600   4.445   2.640   0.455  0.3601  0.0900 -0.1719
19703TIP3    H280601   4.375   2.704   0.336  2.0994  1.7899 -0.3165
19704TIP3   OH280602   0.632   6.114  16.154  0.2259 -0.2374 -0.6946
19704TIP3    H180603   0.550   6.133  16.109  0.6403  1.1746 -0.8999
19704TIP3    H280604   0.687   6.071  16.087 -1.0806 -3.3694  0.0623
19705TIP3   OH280605   0.200   0.490   3.031 -0.4481 -0.1660 -0.4851
19705TIP3    H180606   0.210   0.426   3.101  3.0449  1.2724  0.5260
19705TIP3    H280607   0.268   0.467   2.968 -1.5327  0.4153 -1.9188
19706TIP3   OH280608   5.861   1.403  14.874 -0.2514  0.1865  0.0686
19706TIP3    H180609   5.912   1.480  14.848  2.1099 -0.8408  1.3151
19706TIP3    H280610   5.927   1.335  14.889 -2.2191 -1.9779 -0.5688
19707TIP3   OH280611   1.737   5.764   0.800 -0.7568 -0.1408 -0.0549
19707TIP3    H180612   1.694   5.691   0.844  1.2643 -1.0666  0.4994
19707TIP3    H280613   1.700   5.842   0.840 -2.3768 -0.8485 -0.0956
19708TIP3   OH280614   5.740   2.828   2.539 -0.4118  0.1400 -0.0219
19708TIP3    H180615   5.652   2.798   2.561 -0.6537  2.0239  1.8113
19708TIP3    H280616   5.727   2.915   2.501  0.6046  0.1306 -0.4144
19709TIP3   OH280617   0.550   0.325  12.865 -0.2236  0.3432 -0.1306
19709TIP3    H180618   0.476   0.374  12.832 -0.0354  0.0582 -0.9937
19709TIP3    H280619   0.627   0.367  12.826  0.1409  1.1136  1.3452
19710TIP3   OH280620   5.441   0.679  10.585  0.0365  0.3547  0.4528
19710TIP3    H180621   5.362   0.626  10.589  0.2286 -0.1154 -1.1898
19710TIP3    H280622   5.512   0.617  10.569  0.6452  0.8448  1.1571
19711TIP3   OH280623   2.408   1.450  14.414  0.4272  0.1983  1.0939
19711TIP3    H180624   2.351   1.433  14.489 -0.4380  0.7449  0.5830
19711TIP3    H280625   2.410   1.546  14.408  1.5569  0.1877  1.2147
19712TIP3   OH280626   4.609   0.169  16.592  0.4996 -0.0546 -0.3991
19712TIP3    H180627   4.700   0.200  16.591  0.9491 -1.1003 -4.1554
19712TIP3    H280628   4.615   0.076  16.614 -0.3055  0.7213  4.3047
19713TIP3   OH280629   3.061   4.078  15.707  0.0282  0.2521  0.3744
19713TIP3    H180630   3.080   4.053  15.798  1.9181 -0.9906 -0.3033
19713TIP3    H280631   3.074   4.173  15.705 -0.5103  0.3711  1.4884
19714TIP3   OH280632   3.646   5.178   1.137  0.1042 -0.4561 -0.0726
19714TIP3    H180633   3.727   5.221   1.110 -0.2535  0.5914  0.4608
19714TIP3    H280634   3.581   5.248   1.139 -0.5467 -1.0571  0.6429
19715TIP3   OH280635   4.048   3.314  11.490  0.1179  0.1776  0.3859
19715TIP3    H180636   4.040   3.220  11.473  1.1446  0.0306  0.6829
19715TIP3    H280637   3.998   3.355  11.419  2.2642 -0.4939 -1.6377
19716TIP3   OH280638   5.643   2.444  12.145  0.1750 -0.3164  0.3971
19716TIP3    H180639   5.595   2.498  12.209 -0.7979  0.1072 -0.6687
19716TIP3    H280640   5.616   2.477  12.060  0.5997 -1.6211 -0.2690
19717TIP3   OH280641   2.841   4.865  11.623  0.5342  0.0187  0.8845
19717TIP3    H180642   2.895   4.806  11.674  2.0678  2.3774  2.2012
19717TIP3    H280643   2.892   4.946  11.618 -1.8972  1.6314  0.1930
19718TIP3   OH280644   6.658   4.391  14.588 -0.2245 -0.5464  0.3241
19718TIP3    H180645   6.651   4.363  14.497 -1.2562  2.2691 -0.6009
19718TIP3    H280646   6.579   4.357  14.630 -0.8349 -0.1111 -0.4356
19719TIP3   OH280647   3.362   3.104   5.491  0.2818 -0.1368 -0.8533
19719TIP3    H180648   3.339   3.021   5.449 -1.1071  1.0396 -2.5225
19719TIP3    H280649   3.351   3.087   5.584 -1.9748 -1.2904 -1.2528
19720TIP3   OH280650   1.579   5.839   3.776  0.6171 -0.1199 -0.6344
19720TIP3    H180651   1.513   5.809   3.713 -0.2781  1.1393 -0.3455
19720TIP3    H280652   1.554   5.797   3.858  0.3006  0.1611 -0.5818
19721TIP3   OH280653   4.163   4.563   6.418  0.3321 -0.1969  0.3129
19721TIP3    H180654   4.248   4.561   6.374  0.7911  0.4018  1.1391
19721TIP3    H280655   4.132   4.652   6.406 -0.1932 -0.4187  0.0024
19722TIP3   OH280656   1.200   6.136  11.126 -0.1400 -0.3488  0.0071
19722TIP3    H180657   1.194   6.178  11.211  0.3723 -1.7570  0.7700
19722TIP3    H280658   1.290   6.150  11.097  0.3522 -1.7911  0.7616
19723TIP3   OH280659   0.568   5.860  12.379 -0.0814 -0.0497 -0.0536
19723TIP3    H180660   0.655   5.891  12.405 -0.0706  0.9080 -1.1753
19723TIP3    H280661   0.545   5.913  12.303 -0.5525 -2.0303 -1.3642
19724TIP3   OH280662   2.542   0.490   1.787  0.1377 -0.1314 -0.4184
19724TIP3    H180663   2.570   0.425   1.723 -1.0206 -1.1316  0.0536
19724TIP3    H280664   2.450   0.506   1.767 -0.0532  0.0668  0.5386
19725TIP3   OH280665   2.009   6.356   0.103 -0.1052 -0.5046  0.1116
19725TIP3    H180666   2.024   6.440   0.059 -0.6660 -0.4396  0.0457
19725TIP3    H280667   2.095   6.333   0.139  0.1509 -0.1183 -0.2418
19726TIP3   OH280668   1.137   0.747   4.076  0.2823  0.6267 -0.4084
19726TIP3    H180669   1.132   0.785   3.988  3.0332  0.8674 -0.5733
19726TIP3    H280670   1.117   0.820   4.135  1.4693  1.3217 -0.8199
19727TIP3   OH280671   0.875   6.324   3.810 -0.2686  0.3928  0.0034
19727TIP3    H180672   0.789   6.284   3.823 -0.6341  1.0690 -0.2618
19727TIP3    H280673   0.866   6.373   3.729  1.3290 -2.0397 -1.7633
19728TIP3   OH280674   3.510   5.864  11.556  0.6673 -0.6831  0.0911
19728TIP3    H180675   3.571   5.792  11.543  2.7521  0.9559  0.1361
19728TIP3    H280676   3.548   5.936  11.505 -0.1635  0.9632  1.6827
19729TIP3   OH280677   6.822   2.167  17.031 -0.1463 -0.1351  0.1538
19729TIP3    H180678   6.917   2.160  17.035  0.3410  3.4885 -1.1503
19729TIP3    H280679   6.798   2.218  17.109 -1.0683 -1.1332  0.5483
19730TIP3   OH280680   4.866   1.364  14.755 -0.1128  0.2474 -0.4594
19730TIP3    H180681   4.901   1.344  14.842 -0.5871  0.3543 -0.2353
19730TIP3    H280682   4.917   1.439  14.725 -1.1762  1.4306  0.5422
19731TIP3   OH280683   3.637   2.836   5.430 -0.4229 -0.1617  0.0424
19731TIP3    H180684   3.597   2.762   5.477  0.5645 -0.0603  1.0985
19731TIP3    H280685   3.569   2.866   5.371 -0.7930 -2.0615 -0.5857
19732TIP3   OH280686   0.662   0.870  14.367  0.3615  0.0217 -0.7455
19732TIP3    H180687   0.610   0.812  14.312  0.7402  0.0047 -1.0856
19732TIP3    H280688   0.718   0.918  14.307 -0.4575  1.2899 -0.5419
19733TIP3   OH280689   0.421   5.482  16.690  0.0836  0.2209  0.0018
19733TIP3    H180690   0.454   5.464  16.602 -2.4754 -0.9708 -0.8056
19733TIP3    H280691   0.465   5.563  16.716  0.7925  0.6962 -2.4274
19734TIP3   OH280692   1.914   5.606   4.524 -0.2930  0.7376 -0.2961
19734TIP3    H180693   1.846   5.620   4.458  0.9703  1.3974 -1.5080
19734TIP3    H280694   1.934   5.693   4.557 -1.1758  0.3815  1.2950
19735TIP3   OH280695   2.644   3.801  15.908 -0.1270 -0.1919  0.1962
19735TIP3    H180696   2.615   3.889  15.883 -1.0006 -1.1575 -2.5631
19735TIP3    H280697   2.582   3.774  15.976  0.5670  1.5315  1.5703
19736TIP3   OH280698   2.033   3.275   5.028 -0.6834 -0.1929 -0.3165
19736TIP3    H180699   2.054   3.263   4.936  0.5593  0.2879 -0.1110
19736TIP3    H280700   2.107   3.324   5.064 -0.7966 -0.9916  1.0946
19737TIP3   OH280701   1.830   5.055   4.811 -0.2361  0.6638 -0.4710
19737TIP3    H180702   1.791   4.971   4.786 -0.1146  1.0074 -1.9294
19737TIP3    H280703   1.761   5.119   4.794 -0.7541  0.7774  1.7895
19738TIP3   OH280704   5.753   1.917  16.835  0.0168 -0.0642  0.2627
19738TIP3    H180705   5.701   1.997  16.835 -0.4156 -0.2839  2.3734
19738TIP3    H280706   5.768   1.897  16.742 -2.3315  0.8474 -0.3773
19739TIP3   OH280707   2.052   1.898   0.339  0.3757 -0.0133  0.0261
19739TIP3    H180708   2.096   1.820   0.372  1.8410  0.6139 -0.3949
19739TIP3    H280709   2.060   1.962   0.410 -1.8111 -0.5398  0.8329
19740TIP3   OH280710   0.479   2.891  16.636 -0.3093 -0.1106  0.4599
19740TIP3    H180711   0.464   2.904  16.730 -1.0585 -0.4979  0.3939
19740TIP3    H280712   0.477   2.797  16.624  1.9154 -0.2001  0.3874
19741TIP3   OH280713   2.257   1.639   1.651 -0.1676  0.0532  0.3029
19741TIP3    H180714   2.243   1.556   1.696  1.2201 -1.1352 -1.3361
19741TIP3    H280715   2.340   1.671   1.685  0.5368 -0.5043 -0.8279
19742TIP3   OH280716   0.558   1.762  13.766  1.0725 -0.4464  0.2331
19742TIP3    H180717   0.625   1.719  13.819  0.7509 -0.6412  0.4842
19742TIP3    H280718   0.486   1.700  13.763 -0.1201  0.7635  2.0938
19743TIP3   OH280719   6.383   4.789  16.371  0.2114  0.2175 -0.0514
19743TIP3    H180720   6.434   4.845  16.430 -0.1757  0.4425  0.0748
19743TIP3    H280721   6.348   4.849  16.305 -0.0661  0.0998 -0.0126
19744TIP3   OH280722   1.404   3.276   4.863 -0.4578 -0.0942 -0.0920
19744TIP3    H180723   1.379   3.219   4.935  0.5167 -1.6824 -0.9447
19744TIP3    H280724   1.395   3.221   4.785 -1.0059  1.4215 -1.1463
19745TIP3   OH280725   6.489   1.429  16.990  0.2214 -0.0458 -0.4687
19745TIP3    H180726   6.528   1.490  17.052 -0.1047  1.5134 -1.7401
19745TIP3    H280727   6.559   1.368  16.968  0.5478 -0.1703  0.8462
19746TIP3   OH280728   2.366   3.168  10.573  0.5849 -0.2105 -0.2270
19746TIP3    H180729   2.413   3.235  10.622  1.1522 -0.1936 -0.7813
19746TIP3    H280730   2.358   3.203  10.485 -1.4651  0.2669  0.1118
19747TIP3   OH280731   1.376   5.193  11.690  0.0227  0.3446  0.5809
19747TIP3    H180732   1.316   5.226  11.757 -0.2876  0.2566  0.3534
19747TIP3    H280733   1.348   5.102  11.677 -0.8241  0.7630 -0.6529
19748TIP3   OH280734   3.612   1.848  13.070  0.0111  0.3995  0.2065
19748TIP3    H180735   3.534   1.815  13.026  0.4377 -0.1415 -0.1559
19748TIP3    H280736   3.684   1.800  13.030  0.4656  0.3810  1.0424
19749TIP3   OH280737   5.865   2.471  11.011 -0.4649  0.4175  0.6524
19749TIP3    H180738   5.894   2.560  10.994  0.9407  0.1408  1.4597
19749TIP3    H280739   5.933   2.416  10.974 -0.7991 -0.2974  1.0800
19750TIP3   OH280740   0.384   4.839   4.609 -0.0318  0.0448 -0.0635
19750TIP3    H180741   0.474   4.862   4.587 -0.9619  3.0000 -1.2669
19750TIP3    H280742   0.372   4.869   4.699  0.4210 -1.2453  0.4461
19751TIP3   OH280743   5.150   4.153  14.208 -0.2101  0.4464  0.1210
19751TIP3    H180744   5.123   4.207  14.134  1.7939  2.6173  0.8244
19751TIP3    H280745   5.240   4.181  14.226  0.5268 -2.3755  1.3151
19752TIP3   OH280746   5.473   3.845  11.477 -0.6403 -0.1263  0.8746
19752TIP3    H180747   5.549   3.827  11.533 -1.2827  1.0284  2.1875
19752TIP3    H280748   5.492   3.930  11.438 -1.2386  0.1630  1.2016
19753TIP3   OH280749   6.439   3.902  15.438  0.7403  0.2375  0.0207
19753TIP3    H180750   6.378   3.878  15.509  1.2743 -0.2507  0.3277
19753TIP3    H280751   6.448   3.997  15.445 -0.5238  0.4053 -0.4700
19754TIP3   OH280752   3.583   6.042  17.002  0.1164  0.0498  0.2301
19754TIP3    H180753   3.581   6.070  17.094 -0.1145 -2.9632  1.2441
19754TIP3    H280754   3.674   6.016  16.986  0.0654  0.1606 -0.2587
19755TIP3   OH280755   3.904   0.154   5.558  0.3742  0.0351 -0.4025
19755TIP3    H180756   3.999   0.163   5.549  0.3313  0.2060 -0.7070
19755TIP3    H280757   3.874   0.131   5.470  0.0289  0.9606 -0.5395
19756TIP3   OH280758   6.786   6.153   1.872  0.0172 -0.2003 -0.1161
19756TIP3    H180759   6.783   6.071   1.923  1.2479 -1.5548 -2.0618
19756TIP3    H280760   6.705   6.153   1.822  1.0597 -1.6006 -1.9527
19757TIP3   OH280761   0.036   6.272   0.950 -0.0775 -0.0019  0.3630
19757TIP3    H180762   0.008   6.220   0.875  3.0665 -0.3662 -0.7146
19757TIP3    H280763  -0.005   6.229   1.025 -0.8211 -1.5633 -0.8748
19758TIP3   OH280764   0.255   4.683  11.598 -0.4622  0.0875  0.0629
19758TIP3    H180765   0.329   4.725  11.641 -0.6210 -0.3120  0.7357
19758TIP3    H280766   0.239   4.737  11.520 -2.0416  2.5786  1.9829
19759TIP3   OH280767   3.907   5.650  13.823  0.1481  0.0363  0.2821
19759TIP3    H180768   3.891   5.743  13.841  2.3818  0.5430 -0.0324
19759TIP3    H280769   3.997   5.635  13.852 -0.3338 -2.1879  0.8214
19760TIP3   OH280770   2.507   5.171   5.970  0.0830  0.4606 -0.1245
19760TIP3    H180771   2.475   5.162   6.060 -1.7550  0.8032 -0.6961
19760TIP3    H280772   2.593   5.211   5.979 -1.0741  2.8918  1.4485
19761TIP3   OH280773   2.021   3.031  11.679 -0.1123  0.3295 -0.0846
19761TIP3    H180774   2.109   3.045  11.713 -0.4939  1.9034  0.3494
19761TIP3    H280775   1.964   3.074  11.742 -0.9812  1.6403 -1.6854
19762TIP3   OH280776   0.257   4.420   6.343  0.1660 -0.2534 -0.6994
19762TIP3    H180777   0.343   4.385   6.366  0.1526  0.4859  0.5301
19762TIP3    H280778   0.275   4.505   6.302  0.0850 -0.7251 -1.7426
19763TIP3   OH280779   0.377   4.072   1.748 -0.4412  0.4966  0.2438
19763TIP3    H180780   0.349   4.161   1.728 -0.1222  1.0994  2.2743
19763TIP3    H280781   0.297   4.029   1.780 -0.4053  0.3073  0.0808
19764TIP3   OH280782   6.346   1.754   1.028 -1.0246 -0.0814  0.4067
19764TIP3    H180783   6.399   1.723   1.101 -0.6278 -2.4248 -0.7709
19764TIP3    H280784   6.398   1.825   0.989 -0.4840  0.0969  1.4267
19765TIP3   OH280785   6.578   1.701   6.093  0.3536  0.3251 -0.5962
19765TIP3    H180786   6.599   1.681   6.184  1.1035  2.2425 -0.2913
19765TIP3    H280787   6.504   1.762   6.099 -1.2050 -1.3757 -1.4215
19766TIP3   OH280788   5.170   4.833   5.337  0.0107  0.1952  0.3413
19766TIP3    H180789   5.118   4.777   5.280  0.6555 -2.2972  2.0342
19766TIP3    H280790   5.112   4.855   5.410  0.2980  0.2953  0.5439
19767TIP3   OH280791   0.765   5.346   1.626 -0.0390 -0.7934  0.4263
19767TIP3    H180792   0.741   5.430   1.585 -0.3418 -1.3436 -0.5738
19767TIP3    H280793   0.817   5.370   1.702  0.2060  0.2994 -0.0655
19768TIP3   OH280794   2.814   1.714  14.316  0.5921 -0.2871 -0.3356
19768TIP3    H180795   2.766   1.738  14.236 -0.3637  0.2785  0.3837
19768TIP3    H280796   2.906   1.713  14.290  0.2054 -1.5949 -1.8088
19769TIP3   OH280797   2.190   3.966   1.429  0.1422 -0.1880 -0.1085
19769TIP3    H180798   2.263   3.908   1.408  1.0777  0.5103  1.0938
19769TIP3    H280799   2.157   3.936   1.513  0.5484  0.9049  0.4662
19770TIP3   OH280800   2.010   4.148   1.096  0.0145  0.2410  0.0740
19770TIP3    H180801   1.993   4.138   1.003  1.3788 -1.0095 -0.0833
19770TIP3    H280802   2.105   4.149   1.103 -0.0612  1.4508  1.3634
19771TIP3   OH280803   5.452   3.656  15.552  0.3182  0.1777  0.4026
19771TIP3    H180804   5.504   3.598  15.608  1.4130  1.4122  0.7183
19771TIP3    H280805   5.474   3.630  15.463  2.3688  1.3778  0.5096
19772TIP3   OH280806   2.203   1.436   0.457 -0.2180 -0.2942 -0.5776
19772TIP3    H180807   2.269   1.401   0.517 -2.4955 -2.7414  0.7114
19772TIP3    H280808   2.153   1.499   0.510  0.0970  0.3872 -1.0792
19773TIP3   OH280809   5.596   2.793  16.551  0.1860 -0.4452  0.1513
19773TIP3    H180810   5.522   2.833  16.505 -2.1536 -1.6875  2.5492
19773TIP3    H280811   5.607   2.707  16.509  1.5508  0.4353 -1.3894
19774TIP3   OH280812   0.600   2.578  11.778  0.2930  0.4192  0.5045
19774TIP3    H180813   0.563   2.585  11.689 -0.1478  0.2183  0.6679
19774TIP3    H280814   0.674   2.519  11.768  1.5746  2.0651 -0.1270
19775TIP3   OH280815   0.562   2.010   3.145 -0.1682 -0.5556 -0.1643
19775TIP3    H180816   0.572   1.922   3.108 -1.2507 -0.4995 -0.6256
19775TIP3    H280817   0.624   2.012   3.218  0.4412 -1.4226 -0.6308
19776TIP3   OH280818   4.595   0.395  13.736 -0.2774 -0.9726  0.0228
19776TIP3    H180819   4.594   0.299  13.735  1.0625 -1.0067  0.1479
19776TIP3    H280820   4.688   0.418  13.734 -0.5361  0.3213  1.5310
19777TIP3   OH280821   3.239   2.960  13.099 -0.5209  0.6020  0.3453
19777TIP3    H180822   3.148   2.942  13.123  0.0052  0.9348  2.8667
19777TIP3    H280823   3.290   2.892  13.144  0.4582 -0.2884 -1.9510
19778TIP3   OH280824   1.276   0.996  11.923  0.2923 -0.3031  0.8657
19778TIP3    H180825   1.218   1.059  11.967  0.1229  0.4441 -0.3831
19778TIP3    H280826   1.223   0.916  11.917 -0.6353  0.3557 -0.2232
19779TIP3   OH280827   2.879   1.343  10.338 -0.1718 -0.2061  0.0206
19779TIP3    H180828   2.842   1.424  10.304  1.3269  0.5672  0.1685
19779TIP3    H280829   2.815   1.313  10.403 -0.8160  0.7702 -0.1437
19780TIP3   OH280830   0.111   6.258  14.073  0.0366 -0.6570  0.0263
19780TIP3    H180831   0.118   6.354  14.072 -0.1555 -0.6406  0.0860
19780TIP3    H280832   0.034   6.239  14.019  2.2385 -1.0059 -3.2207
19781TIP3   OH280833   3.607   0.237  14.862 -0.0259 -0.0234 -0.4280
19781TIP3    H180834   3.681   0.224  14.921  0.4912 -0.2321 -1.1070
19781TIP3    H280835   3.546   0.291  14.912  0.0430 -0.8482  0.5885
19782TIP3   OH280836   5.928   6.156   0.235  0.1241 -1.2292 -1.0200
19782TIP3    H180837   5.958   6.067   0.214 -1.8973 -1.4448 -3.4362
19782TIP3    H280838   5.968   6.211   0.167  1.5810 -0.1736  0.6141
19783TIP3   OH280839   4.056   4.030   0.462  0.8968  0.3402 -0.1672
19783TIP3    H180840   4.089   3.967   0.398 -0.1965 -1.2411  0.7660
19783TIP3    H280841   4.134   4.059   0.509  1.3399 -0.8663 -0.1347
19784TIP3   OH280842   6.417   2.355  12.444  0.5548  0.1998  0.5042
19784TIP3    H180843   6.493   2.347  12.502  0.8125 -0.3968  0.0938
19784TIP3    H280844   6.454   2.349  12.356 -0.3179 -3.8505  0.2511
19785TIP3   OH280845   1.994   2.850   6.018 -0.2128  0.1996  0.3672
19785TIP3    H180846   1.960   2.792   5.949  0.5314  0.1155  0.0614
19785TIP3    H280847   1.916   2.880   6.064 -0.6343 -0.8621  0.3829
19786TIP3   OH280848   0.541   2.715   2.160 -0.1095  0.4628  0.0536
19786TIP3    H180849   0.541   2.791   2.219  1.6936  1.3171 -0.9599
19786TIP3    H280850   0.454   2.677   2.169 -0.3995  1.5009  2.0596
19787TIP3   OH280851   5.524   1.265  14.679 -0.1820 -0.0417 -0.1635
19787TIP3    H180852   5.555   1.256  14.769  1.0163  0.6321 -0.4928
19787TIP3    H280853   5.555   1.351  14.651  1.0576 -0.9711 -1.8180
19788TIP3   OH280854   5.264   6.437  15.223 -0.0751 -0.1553 -0.1092
19788TIP3    H180855   5.312   6.509  15.265  0.6075 -0.2072 -0.7806
19788TIP3    H280856   5.235   6.382  15.296  1.2867 -0.3688  0.2871
19789TIP3   OH280857   2.140   2.670  15.174 -0.5859  0.1325 -0.2537
19789TIP3    H180858   2.075   2.734  15.204  0.0670  0.5651  0.2797
19789TIP3    H280859   2.224   2.717  15.180 -0.1960 -0.5002 -0.6671
19790TIP3   OH280860   4.228   0.002   5.802 -0.2019  0.1146  0.7137
19790TIP3    H180861   4.153  -0.024   5.748 -0.7418  2.2187  0.3699
19790TIP3    H280862   4.285  -0.076   5.803  0.1511  0.1010 -3.3830
19791TIP3   OH280863   1.207   0.143  13.182 -0.3172 -0.2252  0.3218
19791TIP3    H180864   1.283   0.170  13.129 -0.0640  0.9932  1.2709
19791TIP3    H280865   1.167   0.225  13.211 -1.6300 -0.8620  0.3793
19792TIP3   OH280866   6.251   1.513  15.550  0.3534 -0.1864  0.6559
19792TIP3    H180867   6.195   1.589  15.536 -1.1179 -0.8506  2.6009
19792TIP3    H280868   6.191   1.439  15.549  1.6949 -1.3089 -0.6728
19793TIP3   OH280869   5.219   1.837  12.920 -0.4808 -0.1374 -0.4611
19793TIP3    H180870   5.172   1.769  12.969  0.4997 -0.9236 -0.5737
19793TIP3    H280871   5.160   1.860  12.849 -1.1194 -0.3718 -0.0193
19794TIP3   OH280872   3.865   4.168   3.513 -0.0123  0.3830  0.5014
19794TIP3    H180873   3.863   4.177   3.608  2.5715 -0.1982  0.6632
19794TIP3    H280874   3.851   4.074   3.497 -1.9718  0.6794  0.1583
19795TIP3   OH280875   3.767   4.111   1.822  0.3187  0.0812 -0.4371
19795TIP3    H180876   3.686   4.152   1.852  0.6355 -0.2035  0.9070
19795TIP3    H280877   3.833   4.141   1.885  1.4299  0.8957 -1.9180
19796TIP3   OH280878   0.372   3.529   4.690 -0.0970  0.5321  0.2175
19796TIP3    H180879   0.313   3.504   4.620  0.9237 -0.9779 -0.1418
19796TIP3    H280880   0.434   3.589   4.649  0.5510 -0.4160 -0.2163
19797TIP3   OH280881   5.163   5.186  15.828 -0.2925 -0.2817 -0.0939
19797TIP3    H180882   5.141   5.131  15.903 -0.5357 -0.1630 -0.0754
19797TIP3    H280883   5.079   5.199  15.783  0.0300 -1.3026 -1.0370
19798TIP3   OH280884   1.052   4.708   5.051  0.1100 -0.1424 -0.0506
19798TIP3    H180885   1.114   4.777   5.075  0.6516 -0.7671  0.3843
19798TIP3    H280886   1.076   4.686   4.960  0.2967 -0.1348 -0.0041
19799TIP3   OH280887   2.287   5.540   3.724 -0.6732 -0.4621  0.1126
19799TIP3    H180888   2.382   5.533   3.717 -0.5996  1.2936 -1.2144
19799TIP3    H280889   2.264   5.618   3.674 -2.9813 -1.7093 -0.9768
19800TIP3   OH280890   4.854   0.174  16.057 -0.6228 -0.0399  0.0916
19800TIP3    H180891   4.881   0.142  15.971 -0.0834  0.2141  0.1627
19800TIP3    H280892   4.772   0.220  16.040  0.2634  1.3760 -0.5674
19801TIP3   OH280893   0.814   0.974   1.105 -0.8075  0.7041 -0.1105
19801TIP3    H180894   0.838   0.882   1.090 -1.7683  0.4187 -0.0077
19801TIP3    H280895   0.755   0.971   1.181 -0.7359  1.4270 -0.0200
19802TIP3   OH280896   4.801   1.167   5.877 -0.5325 -0.3617  0.0806
19802TIP3    H180897   4.780   1.191   5.786  0.4894 -0.8778 -0.3081
19802TIP3    H280898   4.716   1.158   5.919 -1.0929 -1.5919 -1.2329
19803TIP3   OH280899   0.925   5.752  10.975 -0.0803 -0.3865 -0.1847
19803TIP3    H180900   0.947   5.799  11.055  0.1973 -0.6345 -0.1133
19803TIP3    H280901   0.839   5.713  10.993 -0.8682  1.0615 -0.6770
19804TIP3   OH280902   2.760   4.593  14.617 -0.0320 -0.1696  0.7193
19804TIP3    H180903   2.695   4.557  14.557  0.2962 -1.3349  1.0362
19804TIP3    H280904   2.760   4.687  14.599  0.0203 -0.4720 -1.0697
19805TIP3   OH280905   0.718   3.396   5.634 -1.0185  0.7112  0.1786
19805TIP3    H180906   0.715   3.462   5.566 -0.2669  0.8100  0.2294
19805TIP3    H280907   0.691   3.315   5.591 -0.5405  0.7726 -0.2399
19806TIP3   OH280908   2.103   3.042   1.162 -0.3074  0.2484 -0.2146
19806TIP3    H180909   2.142   2.985   1.228  0.4761 -0.9213 -1.6436
19806TIP3    H280910   2.017   3.003   1.145 -0.8729  1.0408  0.6764
19807TIP3   OH280911   3.154   2.040  11.447 -0.1633  0.9469 -0.3331
19807TIP3    H180912   3.095   1.966  11.431  2.2603 -1.2535  0.2376
19807TIP3    H280913   3.162   2.043  11.542  0.7780  1.0761 -0.4115
19808TIP3   OH280914   4.329   4.859  16.497  0.1890  0.2416 -0.0338
19808TIP3    H180915   4.414   4.890  16.466 -1.6115  3.3993 -2.3932
19808TIP3    H280916   4.301   4.796  16.432  0.7035 -0.8916  0.8096
19809TIP3   OH280917   4.685   0.329  12.818  0.1223  0.1819  0.4297
19809TIP3    H180918   4.711   0.273  12.745 -0.9060  0.8069 -0.4511
19809TIP3    H280919   4.596   0.300  12.840 -0.5315  1.6048 -0.2150
19810TIP3   OH280920   1.032   2.396  12.880  0.0875  0.1359 -0.5982
19810TIP3    H180921   1.077   2.477  12.904  0.3345 -0.1785  0.0473
19810TIP3    H280922   1.048   2.337  12.955 -1.1021 -0.0994 -0.5134
19811TIP3   OH280923   3.891   3.597   0.653 -0.0880  0.1594 -0.3374
19811TIP3    H180924   3.856   3.552   0.730  0.1267 -1.1360 -0.9772
19811TIP3    H280925   3.831   3.575   0.582 -0.1283  1.1189 -0.6158
19812TIP3   OH280926   2.463   3.195  11.201  0.5159 -0.2354 -0.0334
19812TIP3    H180927   2.460   3.117  11.146  0.6263 -0.1129 -0.2117
19812TIP3    H280928   2.377   3.235  11.190 -0.8757 -2.1322  2.6846
19813TIP3   OH280929   3.326   4.268   5.850  0.5886  0.2563 -0.2955
19813TIP3    H180930   3.348   4.185   5.808  2.2172  0.5163 -0.0243
19813TIP3    H280931   3.381   4.271   5.928  1.4466  2.1124 -0.9318
19814TIP3   OH280932   6.090   6.440  14.702 -0.3280 -0.2084  0.0762
19814TIP3    H180933   5.998   6.463  14.709 -0.3841 -0.2642 -0.4474
19814TIP3    H280934   6.133   6.493  14.770 -0.9809 -1.6322  1.6912
19815TIP3   OH280935   2.672   2.300  10.899 -0.6777  0.7330  0.7221
19815TIP3    H180936   2.583   2.283  10.867 -0.1406  0.7751 -0.8698
19815TIP3    H280937   2.727   2.296  10.821  0.7302  0.7351  1.6784
19816TIP3   OH280938   3.280   1.491   1.546  0.0246  0.2289 -0.4732
19816TIP3    H180939   3.286   1.522   1.455 -2.8316 -1.6362 -1.3995
19816TIP3    H280940   3.348   1.423   1.552  0.2771  0.4039 -1.1770
19817TIP3   OH280941   0.362   6.828   1.410 -0.6067 -0.1934 -0.2689
19817TIP3    H180942   0.356   6.899   1.347  0.3254  0.0035 -0.1477
19817TIP3    H280943   0.274   6.790   1.412 -1.0680  0.8377 -0.4622
19818TIP3   OH280944   3.421   3.400  16.390  0.1820 -0.3086 -0.1546
19818TIP3    H180945   3.497   3.413  16.447  0.0101  0.9676 -0.1956
19818TIP3    H280946   3.458   3.369  16.307  0.8133  1.5172 -0.6000
19819TIP3   OH280947   6.611   1.438   5.250 -0.1013  0.4650  0.3089
19819TIP3    H180948   6.698   1.478   5.252  0.0241  0.2915 -0.9941
19819TIP3    H280949   6.626   1.350   5.215 -0.5940 -0.1590  1.5986
19820TIP3   OH280950   6.512   0.011   4.368 -0.6001 -0.4637  0.5129
19820TIP3    H180951   6.578   0.057   4.420  0.0888 -1.5370  0.6098
19820TIP3    H280952   6.480   0.078   4.307  1.0156 -0.0600  0.0500
19821TIP3   OH280953   2.154   2.462  12.415 -0.0385 -0.3586  0.4374
19821TIP3    H180954   2.122   2.496  12.498 -0.5585  0.0513  0.0695
19821TIP3    H280955   2.227   2.405  12.440 -1.5908 -2.0446  1.3708
19822TIP3   OH280956   1.128   3.773  13.684 -0.2882 -0.1529  1.2770
19822TIP3    H180957   1.186   3.848  13.667 -0.4154 -0.2485  0.3976
19822TIP3    H280958   1.139   3.716  13.608 -0.2137 -1.0313  1.9243
19823TIP3   OH280959   3.534   0.585   4.543  0.0236 -0.2117 -0.0318
19823TIP3    H180960   3.520   0.676   4.519 -1.1459 -0.4618 -0.3264
19823TIP3    H280961   3.616   0.586   4.594 -0.2132  1.0578  0.3449
19824TIP3   OH280962   0.418   1.608   1.921 -0.5418  0.1643  0.0189
19824TIP3    H180963   0.426   1.696   1.886  0.4331  1.7258  3.6517
19824TIP3    H280964   0.358   1.618   1.996 -0.1946 -2.1953  0.6925
19825TIP3   OH280965   2.418   1.762   5.047  0.1593  0.7762 -0.3848
19825TIP3    H180966   2.381   1.677   5.074  1.6461  0.8037  2.0486
19825TIP3    H280967   2.350   1.801   4.992  0.4319 -3.0534 -3.9548
19826TIP3   OH280968   3.857   3.147  12.862  0.2093 -0.0604  0.2844
19826TIP3    H180969   3.850   3.060  12.902  1.5768 -1.2596 -1.9226
19826TIP3    H280970   3.916   3.195  12.920  1.0314 -1.2704  0.4691
19827TIP3   OH280971   6.142   1.530   5.614 -0.2524  0.5783  0.2059
19827TIP3    H180972   6.049   1.518   5.592 -0.0045 -0.2334 -0.4299
19827TIP3    H280973   6.172   1.601   5.557  0.2068 -1.0316 -1.6695
19828TIP3   OH280974   1.132   2.621  14.906  0.2067 -0.8607 -0.5164
19828TIP3    H180975   1.068   2.620  14.978  0.6835 -0.4494 -0.0770
19828TIP3    H280976   1.150   2.714  14.892 -0.6693 -0.8687 -1.8871
19829TIP3   OH280977   2.830   5.256   4.681  0.4239  0.3157 -0.3463
19829TIP3    H180978   2.833   5.349   4.657 -1.4254  1.0263  1.8037
19829TIP3    H280979   2.742   5.228   4.653  0.5348 -0.4671  0.0782
19830TIP3   OH280980   4.802   1.366   3.091  0.1615 -0.1802  0.1568
19830TIP3    H180981   4.826   1.303   3.024  2.9517  0.6764  0.2388
19830TIP3    H280982   4.836   1.450   3.059 -1.6640  0.9578  0.9840
19831TIP3   OH280983   5.115   3.155  13.981 -0.0730  0.9354 -0.7350
19831TIP3    H180984   5.198   3.194  13.954  1.2928 -0.7414  0.7354
19831TIP3    H280985   5.089   3.099  13.908 -0.0259  1.6273 -1.2863
19832TIP3   OH280986   3.608   3.913  16.042 -0.3085 -0.2404 -0.1570
19832TIP3    H180987   3.570   3.988  16.088 -0.8739 -0.6314  0.0193
19832TIP3    H280988   3.534   3.857  16.021 -0.0550 -0.1205 -1.4713
19833TIP3   OH280989   1.204   5.140   5.730  0.1820 -0.1534  0.4990
19833TIP3    H180990   1.251   5.220   5.709  0.2654 -0.4004 -0.2706
19833TIP3    H280991   1.232   5.118   5.819 -1.4629  1.8338  1.5896
19834TIP3   OH280992   0.650   6.028  11.613  0.2409 -0.0566 -0.5676
19834TIP3    H180993   0.580   5.976  11.574 -0.9993 -0.0443  1.4891
19834TIP3    H280994   0.667   6.097  11.549 -2.9281  1.0103 -0.4150
19835TIP3   OH280995   2.766   3.871  11.707  0.3458  0.3826 -0.2423
19835TIP3    H180996   2.707   3.841  11.776  0.8867  1.0143  0.5204
19835TIP3    H280997   2.826   3.797  11.693 -0.2872 -0.0618 -0.6429
19836TIP3   OH280998   1.529   2.915   1.567  0.5338 -0.3481  0.5132
19836TIP3    H180999   1.504   3.003   1.540  1.3145  0.1635  1.3943
19836TIP3    H281000   1.483   2.901   1.650  1.9997  0.0761  1.4515
19837TIP3   OH281001   5.987   5.488  11.886  0.2528 -0.2033 -0.4122
19837TIP3    H181002   6.073   5.530  11.887 -0.4935  1.3835  0.0970
19837TIP3    H281003   5.973   5.463  11.794  0.3875  1.4236 -0.9011
19838TIP3   OH281004   0.309   1.323   2.846 -0.3880 -0.4838  0.4478
19838TIP3    H181005   0.305   1.255   2.779 -0.5407 -0.1490  0.1158
19838TIP3    H281006   0.343   1.400   2.801 -2.7186  0.4468  0.1500
19839TIP3   OH281007   3.598   3.509  12.770  0.0512 -0.1038 -0.0001
19839TIP3    H181008   3.579   3.552  12.687 -0.1593 -0.4196 -0.1143
19839TIP3    H281009   3.589   3.416  12.753  0.1498 -0.1796  0.3411
19840TIP3   OH281010   6.201   2.460  15.273  0.0745  0.0049 -0.0017
19840TIP3    H181011   6.113   2.479  15.240 -0.1656  0.7916  1.0577
19840TIP3    H281012   6.259   2.477  15.198 -0.5750  0.4972 -0.4030
19841TIP3   OH281013   2.329   4.514  14.392  0.1435 -0.1447 -0.0819
19841TIP3    H181014   2.241   4.552  14.387 -0.5997 -1.6983  0.4791
19841TIP3    H281015   2.331   4.450  14.321  1.6702  1.4192 -1.5461
19842TIP3   OH281016   6.811   5.934  15.525  0.2053 -0.0887  0.0079
19842TIP3    H181017   6.806   5.968  15.435 -0.8441 -1.4634 -0.4895
19842TIP3    H281018   6.735   5.973  15.569  0.9214  0.8719  0.4296
19843TIP3   OH281019   5.194   5.159  12.249  0.2195 -0.2764 -0.0533
19843TIP3    H181020   5.165   5.217  12.179 -0.5905 -0.5713  0.0254
19843TIP3    H281021   5.286   5.142  12.229 -0.3458 -1.5956 -1.9624
19844TIP3   OH281022   6.725   4.329   3.494 -0.4514  0.1067  0.5053
19844TIP3    H181023   6.641   4.285   3.507 -1.4327  1.3052 -1.4323
19844TIP3    H281024   6.775   4.268   3.440 -0.8837  0.2865 -0.1078
19845TIP3   OH281025   3.800   3.685  16.110  0.4349 -0.4007 -0.6618
19845TIP3    H181026   3.887   3.707  16.077  1.2299  0.9704  2.0469
19845TIP3    H281027   3.742   3.753  16.076  1.3483  1.3388  1.1054
19846TIP3   OH281028   0.993   6.323   3.467  0.0259  0.3151 -0.1633
19846TIP3    H181029   1.002   6.413   3.434 -1.2519  0.5006 -0.0731
19846TIP3    H281030   0.903   6.299   3.445 -0.1356 -0.3777  1.1742
19847TIP3   OH281031   5.981   3.408  11.316  0.7547 -0.3827 -0.1449
19847TIP3    H181032   5.988   3.398  11.411  1.2985 -0.7388 -0.2130
19847TIP3    H281033   6.070   3.430  11.288  0.2706  1.4423 -0.3945
19848TIP3   OH281034   2.183   2.192  12.742 -0.1638  0.3027  0.5545
19848TIP3    H181035   2.252   2.193  12.809 -2.3276  1.1254  2.9746
19848TIP3    H281036   2.130   2.115  12.763  0.2594 -0.6541 -1.6210
19849TIP3   OH281037   4.836   6.505  11.789  0.2671  0.0880 -0.1140
19849TIP3    H181038   4.877   6.548  11.864  1.1180 -3.7886  1.9022
19849TIP3    H281039   4.907   6.455  11.748 -0.9545 -0.8343 -1.1909
19850TIP3   OH281040   3.621   4.168   2.425  0.3593  0.1147  0.4351
19850TIP3    H181041   3.630   4.075   2.403  0.5900  0.0082  0.9631
19850TIP3    H281042   3.552   4.199   2.367  2.0052  0.2418 -1.6028
19851TIP3   OH281043   5.842   6.708   1.902 -0.1483  0.3371 -0.3015
19851TIP3    H181044   5.829   6.619   1.871  0.1320  0.7490 -1.6994
19851TIP3    H281045   5.844   6.701   1.997 -1.4304 -0.9516 -0.3487
19852TIP3   OH281046   3.551   5.715   0.575  0.6922 -0.0484  0.3338
19852TIP3    H181047   3.538   5.808   0.595  0.8670 -0.1724  1.0398
19852TIP3    H281048   3.574   5.675   0.659  4.6054 -0.0502 -0.5594
19853TIP3   OH281049   5.722   3.913  14.145  0.3936  0.8122  0.2027
19853TIP3    H181050   5.754   3.970  14.076 -0.1096 -0.3139 -0.9997
19853TIP3    H281051   5.649   3.865  14.105 -0.1911  0.4313  1.6405
19854TIP3   OH281052   0.763   0.547   1.337 -0.0572 -0.3548 -0.0118
19854TIP3    H181053   0.775   0.470   1.393  1.9911 -0.4574 -0.5046
19854TIP3    H281054   0.684   0.590   1.371 -0.9486 -2.3714  0.5948
19855TIP3   OH281055   1.662   3.294   3.016 -0.1197  0.9162  0.4244
19855TIP3    H181056   1.654   3.227   3.083 -0.8797  0.8705  0.3022
19855TIP3    H281057   1.598   3.361   3.040 -1.0886  0.4515 -0.7479
19856TIP3   OH281058   3.507   5.336   2.165 -0.2324  0.2507 -0.1673
19856TIP3    H181059   3.464   5.377   2.089  0.5314  0.1277 -0.6796
19856TIP3    H281060   3.439   5.334   2.232 -0.8520  0.6016 -0.7613
19857TIP3   OH281061   3.021   6.397   1.378  0.2451  0.3705 -0.6815
19857TIP3    H181062   2.982   6.426   1.460 -1.3462  1.8745 -1.8927
19857TIP3    H281063   2.959   6.330   1.345  1.7406 -1.4856  0.0907
19858TIP3   OH281064   6.326   6.384   3.048  0.2125 -0.2863  0.3067
19858TIP3    H181065   6.279   6.335   3.115 -0.6790  1.2735  0.8920
19858TIP3    H281066   6.328   6.326   2.972 -1.5927 -0.8933  0.6680
19859TIP3   OH281067   1.461   3.220  13.377 -0.3134 -0.1211  0.1908
19859TIP3    H181068   1.401   3.246  13.307 -0.5068 -0.4043  0.2457
19859TIP3    H281069   1.409   3.160  13.432  0.0993 -0.5788  0.0921
19860TIP3   OH281070   2.357   6.268  11.876  0.7207 -0.1221  0.1688
19860TIP3    H181071   2.424   6.214  11.918  0.5895  0.2709  0.9177
19860TIP3    H281072   2.367   6.251  11.783  1.8945 -0.0383  0.2645
19861TIP3   OH281073   0.310   5.217   4.647  0.2722 -0.2211 -0.3049
19861TIP3    H181074   0.394   5.172   4.645  0.6176  0.4136 -0.3232
19861TIP3    H281075   0.326   5.300   4.601 -0.3288 -0.0494 -0.2132
19862TIP3   OH281076   1.627   3.076  15.707 -0.1011  0.1032 -0.2004
19862TIP3    H181077   1.537   3.082  15.676 -1.1364  0.5353  2.5724
19862TIP3    H281078   1.630   3.135  15.782  2.1468 -0.8481  0.5474
19863TIP3   OH281079   0.640   3.516   1.665 -0.1947  0.2802 -0.3567
19863TIP3    H181080   0.677   3.434   1.630 -0.1753  0.1486 -0.0234
19863TIP3    H281081   0.645   3.577   1.591  2.2289  0.7564  0.1102
19864TIP3   OH281082   2.181   1.810  15.477  0.8009  0.0448  0.0248
19864TIP3    H181083   2.247   1.781  15.414  2.3263  0.2243  1.4898
19864TIP3    H281084   2.228   1.818  15.560 -0.5992  2.1121  0.7021
19865TIP3   OH281085   6.569   1.323  13.911 -0.0196 -0.5306 -0.9449
19865TIP3    H181086   6.613   1.241  13.933  2.3111  0.7628 -0.4346
19865TIP3    H281087   6.608   1.349  13.827 -0.2845  0.3105 -0.8207
19866TIP3   OH281088   6.224   6.488   0.916 -0.0647  0.0170 -0.4147
19866TIP3    H181089   6.164   6.424   0.954  0.3985  0.8210  1.9020
19866TIP3    H281090   6.309   6.444   0.915 -0.4786 -0.8454 -2.9445
19867TIP3   OH281091   3.666   1.161   5.076  0.0206 -0.0002  0.0226
19867TIP3    H181092   3.591   1.220   5.077 -0.1757 -0.2339 -0.6207
19867TIP3    H281093   3.717   1.188   4.999 -0.0488 -0.6318 -0.2516
19868TIP3   OH281094   5.902   2.239   1.432  0.3020 -0.0486 -0.3558
19868TIP3    H181095   5.843   2.272   1.499  0.3496 -0.7001  0.0206
19868TIP3    H281096   5.872   2.280   1.351 -1.1360 -0.9160 -0.2970
19869TIP3   OH281097   3.044   0.295  13.197 -0.0356  0.1151 -0.1791
19869TIP3    H181098   3.130   0.333  13.214  0.4855 -1.1305  0.0666
19869TIP3    H281099   3.028   0.235  13.270 -0.0822 -1.3860 -1.3665
19870TIP3   OH281100   3.861   2.293   1.617  0.4756 -0.7481  0.1588
19870TIP3    H181101   3.910   2.374   1.626 -0.6034  0.1007 -1.1872
19870TIP3    H281102   3.903   2.232   1.678  3.0963 -0.0446 -0.8431
19871TIP3   OH281103   0.733   0.298   1.797  0.4353 -0.2278  0.2680
19871TIP3    H181104   0.646   0.315   1.762  0.2920 -1.1878  0.1339
19871TIP3    H281105   0.793   0.329   1.729  0.2242  0.9821  0.6133
19872TIP3   OH281106   4.982   5.056   2.433  0.6011 -0.0407 -0.5299
19872TIP3    H181107   5.005   5.015   2.516 -0.5925 -0.6336 -0.4699
19872TIP3    H281108   5.020   5.144   2.438 -1.0013  0.6084  1.4437
19873TIP3   OH281109   3.456   3.850   3.974 -0.2758 -0.3786  0.3496
19873TIP3    H181110   3.451   3.913   3.902  1.3829 -0.3470  0.2090
19873TIP3    H281111   3.484   3.901   4.050  5.6107 -1.2614 -0.6706
19874TIP3   OH281112   6.277   6.430   1.234 -0.0413 -0.3286 -0.2922
19874TIP3    H181113   6.228   6.512   1.227 -0.6486 -0.4467  1.7524
19874TIP3    H281114   6.368   6.454   1.216  0.1080  1.2523  2.0958
19875TIP3   OH281115   4.527   6.626  12.940  0.9748 -0.3510  0.1914
19875TIP3    H181116   4.585   6.578  12.881  1.1989  0.0677  0.0708
19875TIP3    H281117   4.575   6.706  12.963  0.3689  0.0972 -0.0680
19876TIP3   OH281118   2.277   2.700  10.935 -0.1005  0.2268 -0.1636
19876TIP3    H181119   2.337   2.656  10.995  0.9633  0.0038 -1.3597
19876TIP3    H281120   2.239   2.629  10.883  0.2763  0.5462 -0.8907
19877TIP3   OH281121   3.900   5.028   3.896 -1.1547  0.0832 -0.4744
19877TIP3    H181122   3.839   4.972   3.943 -0.8563 -0.4917 -0.7564
19877TIP3    H281123   3.860   5.115   3.898 -0.6950  0.3105  1.6982
19878TIP3   OH281124   5.628   5.213  15.499  0.4725  0.8459  0.2645
19878TIP3    H181125   5.545   5.165  15.499  0.4693  0.8373  1.2508
19878TIP3    H281126   5.645   5.232  15.406 -0.4022  0.4615  0.0183
19879TIP3   OH281127   5.435   0.399  16.564  0.2870 -0.1478 -0.0467
19879TIP3    H181128   5.438   0.351  16.482  3.1582  0.8837 -0.6652
19879TIP3    H281129   5.386   0.479  16.544  0.1512 -0.3395 -0.4896
19880TIP3   OH281130   2.245   3.335  14.407  0.4242  0.1616  0.0939
19880TIP3    H181131   2.252   3.428  14.426 -1.5822  0.6476 -1.2428
19880TIP3    H281132   2.197   3.331  14.325  0.5998 -2.0605  0.0432
19881TIP3   OH281133   4.934   1.532   3.372 -0.1099  0.0567 -0.3283
19881TIP3    H181134   4.901   1.526   3.282  1.0636 -0.7749 -0.7279
19881TIP3    H281135   4.857   1.516   3.426 -0.3124 -2.6541 -1.2338
19882TIP3   OH281136   4.862   2.919  12.660 -0.4791  0.1613  0.5432
19882TIP3    H181137   4.839   3.007  12.688 -0.1776  0.3337  0.2630
19882TIP3    H281138   4.848   2.920  12.565 -0.7499 -0.1769  0.5791
19883TIP3   OH281139   2.499   6.691   1.774  0.4206 -0.4859 -0.1162
19883TIP3    H181140   2.523   6.603   1.747 -0.1428 -0.7774  0.3244
19883TIP3    H281141   2.578   6.743   1.759  0.7140 -1.0341 -0.4963
19884TIP3   OH281142   0.051   0.063   2.279 -0.0753  0.1891  0.3362
19884TIP3    H181143   0.028   0.066   2.186 -0.6723 -0.3336  0.4622
19884TIP3    H281144  -0.008  -0.002   2.316  0.1062  0.4554  1.1010
19885TIP3   OH281145   1.977   4.452  11.526 -0.8005 -0.3356 -0.6877
19885TIP3    H181146   1.949   4.437  11.436  1.1017  2.8083 -1.9566
19885TIP3    H281147   1.914   4.515  11.561  0.9393  1.9655 -1.4683
19886TIP3   OH281148   0.515   6.423   1.370 -0.4262 -0.5457 -0.1145
19886TIP3    H181149   0.495   6.453   1.459 -0.7666 -0.7172 -0.1337
19886TIP3    H281150   0.595   6.372   1.380  0.7551  1.1736 -0.2192
19887TIP3   OH281151   5.894   1.319   5.932 -0.8100 -0.0559 -0.1616
19887TIP3    H181152   5.858   1.304   5.845 -1.6529  0.5327  0.0758
19887TIP3    H281153   5.969   1.260   5.937 -1.4441 -0.9601 -0.8559
19888TIP3   OH281154   4.571   6.031  13.029  0.1384  0.3930 -0.3751
19888TIP3    H181155   4.653   6.009  13.072 -0.0594  0.0700 -0.1615
19888TIP3    H281156   4.597   6.078  12.950  0.4926  1.8572  0.5704
19889TIP3   OH281157   5.656   0.933   5.024 -0.5106  0.6363  0.1915
19889TIP3    H181158   5.678   0.924   5.116  0.3786  1.8473  0.1252
19889TIP3    H281159   5.635   1.026   5.013 -1.7628  0.2882 -0.5950
19890TIP3   OH281160   5.229   0.103  16.874 -0.1721 -0.0412 -0.4214
19890TIP3    H181161   5.238   0.008  16.871 -0.3375 -0.1677  1.5560
19890TIP3    H281162   5.228   0.124  16.967  2.0538  2.1374 -0.7845
19891TIP3   OH281163   3.177   5.727  15.686 -0.8610 -0.5361 -0.2189
19891TIP3    H181164   3.193   5.715  15.779 -0.4779  0.1174 -0.1943
19891TIP3    H281165   3.086   5.756  15.680 -0.9096 -0.6573 -0.0592
19892TIP3   OH281166   6.026   6.238   2.369 -0.1991  0.2169  0.5730
19892TIP3    H181167   6.041   6.328   2.398  2.0785 -0.3845  1.5201
19892TIP3    H281168   6.079   6.229   2.290 -1.0542 -0.0924  0.0189
19893TIP3   OH281169   0.696   0.523  12.712 -0.0311  0.0300  0.0140
19893TIP3    H181170   0.728   0.607  12.678  0.0697  0.4383  1.0733
19893TIP3    H281171   0.770   0.486  12.759  0.2056 -1.1042 -1.1772
19894TIP3   OH281172   3.057   5.978  16.032  0.2125  0.0990  0.4406
19894TIP3    H181173   3.093   5.985  15.944  0.8049 -1.8912  0.4649
19894TIP3    H281174   2.971   6.019  16.026 -1.0446 -2.4938 -1.9273
19895TIP3   OH281175   5.684   4.629  16.618  0.1974 -0.0326  0.4549
19895TIP3    H181176   5.761   4.632  16.562  0.1111  0.6665  0.3704
19895TIP3    H281177   5.707   4.567  16.688  1.0238  0.5630  0.7196
19896TIP3   OH281178   0.133   5.853   4.637 -0.2862 -0.0764  0.0976
19896TIP3    H181179   0.077   5.837   4.562 -1.7820  1.4807  0.8026
19896TIP3    H281180   0.073   5.865   4.710  0.9195  1.7603  0.8848
19897TIP3   OH281181   5.466   1.792  11.147 -0.1858  0.3218 -0.1193
19897TIP3    H181182   5.549   1.763  11.109  0.6303  3.2524 -0.8243
19897TIP3    H281183   5.435   1.861  11.088 -2.8818 -0.3128  0.4209
19898TIP3   OH281184   3.629   3.847  14.839  0.0926 -0.5059  0.3290
19898TIP3    H181185   3.687   3.822  14.911  0.3860 -1.9044 -0.3627
19898TIP3    H281186   3.604   3.764  14.798 -2.0881  0.0859  0.3526
19899TIP3   OH281187   4.727   2.384   3.733 -0.0084 -0.2137  0.0691
19899TIP3    H181188   4.783   2.389   3.810 -0.9940 -0.9178  0.8607
19899TIP3    H281189   4.689   2.296   3.737 -2.0909  0.6520  0.2304
19900TIP3   OH281190   6.288   6.544   6.180 -0.3075  0.5830  0.1060
19900TIP3    H181191   6.312   6.533   6.272  1.9505 -0.3310 -0.5224
19900TIP3    H281192   6.340   6.619   6.150 -0.9153  0.7890 -0.4514
19901TIP3   OH281193   2.987   5.762   3.993  0.3991  0.0231  0.5157
19901TIP3    H181194   2.925   5.820   4.036  1.6114  0.9022  1.1616
19901TIP3    H281195   2.940   5.728   3.916 -0.5060  1.4966  0.3817
19902TIP3   OH281196   0.797   2.137   0.974  0.5093 -0.6614  0.3669
19902TIP3    H181197   0.793   2.065   0.912 -0.6984 -0.7864  0.5746
19902TIP3    H281198   0.716   2.186   0.961  0.7166 -0.0861  1.1191
19903TIP3   OH281199   6.064   1.113  12.194 -0.6826 -0.4345  0.1111
19903TIP3    H181200   6.080   1.043  12.257 -1.7854 -0.1925  0.6898
19903TIP3    H281201   6.065   1.193  12.247 -0.7854 -0.1450 -0.3163
19904TIP3   OH281202   1.595   1.339  12.994  0.8256  0.5753  0.2986
19904TIP3    H181203   1.668   1.291  12.954 -0.1599 -0.4526 -0.3449
19904TIP3    H281204   1.539   1.270  13.030 -1.0331  1.1709 -1.3312
19905TIP3   OH281205   4.907   0.715   3.848 -0.0843  0.0866 -0.5717
19905TIP3    H181206   4.941   0.634   3.810  1.6040  0.9022 -0.8665
19905TIP3    H281207   4.972   0.739   3.914  0.3532  2.1164 -1.6878
19906TIP3   OH281208   2.073   6.562   5.659  0.0503  0.4725  0.1088
19906TIP3    H181209   2.157   6.602   5.679 -0.5211  2.4630 -1.1009
19906TIP3    H281210   2.046   6.519   5.740  0.8387  2.4274  1.4937
19907TIP3   OH281211   3.339   1.729   4.369  0.4845 -0.1903  0.0067
19907TIP3    H181212   3.317   1.639   4.394  0.5592 -0.9473 -2.3905
19907TIP3    H281213   3.254   1.769   4.349  0.1883  1.1094  3.2819
19908TIP3   OH281214   0.843   6.408   2.435 -0.1221  1.0556  0.5432
19908TIP3    H181215   0.785   6.332   2.427  0.7349  0.3858  0.5432
19908TIP3    H281216   0.807   6.458   2.508 -0.4703  0.4478  0.7936
19909TIP3   OH281217   3.262   1.477   4.456 -0.2483 -0.3677 -0.0865
19909TIP3    H181218   3.273   1.410   4.524  1.7099  0.0023  0.0324
19909TIP3    H281219   3.198   1.440   4.396 -0.0888 -1.8321  0.6044
19910TIP3   OH281220   1.332   6.336  10.587  0.4321 -0.0023 -0.1487
19910TIP3    H181221   1.385   6.357  10.664 -0.5913 -3.2452  1.6305
19910TIP3    H281222   1.393   6.343  10.514  1.8643  1.6197  1.1082
19911TIP3   OH281223   2.318   1.296   5.823 -0.4842  0.5088  0.0010
19911TIP3    H181224   2.293   1.207   5.847  1.6608  0.4729  2.5902
19911TIP3    H281225   2.344   1.290   5.731  0.5631 -1.7943  0.3741
19912TIP3   OH281226   6.522   3.412  12.074 -0.3088 -0.0476  0.0256
19912TIP3    H181227   6.477   3.414  11.989  3.0505 -1.4462 -1.9936
19912TIP3    H281228   6.476   3.344  12.123 -1.9371  0.3497 -0.8494
19913TIP3   OH281229   4.383   2.137  16.731 -0.1079 -0.0542 -0.6954
19913TIP3    H181230   4.417   2.057  16.692 -0.8903 -0.1719 -1.1690
19913TIP3    H281231   4.407   2.206  16.669 -0.7980 -0.1528 -1.0870
19914TIP3   OH281232   5.165   6.383   0.601  0.3063 -0.2518 -0.0857
19914TIP3    H181233   5.253   6.352   0.581 -0.0559 -1.6338  0.3083
19914TIP3    H281234   5.132   6.320   0.666 -0.0539  1.6638  1.7077
19915TIP3   OH281235   5.094   4.742   5.784 -0.3534 -0.7215  0.5129
19915TIP3    H181236   5.099   4.760   5.878  0.2748  0.6657  0.2497
19915TIP3    H281237   5.178   4.702   5.762  0.7838  1.6841  0.0761
19916TIP3   OH281238   0.291   4.252  14.563 -0.8197 -0.0463 -1.2385
19916TIP3    H181239   0.243   4.279  14.641  0.0098  1.4642 -1.2075
19916TIP3    H281240   0.253   4.305  14.492 -1.1126 -0.9214 -1.7542
19917TIP3   OH281241   6.013   1.060  16.719 -0.4338  0.2207  1.0957
19917TIP3    H181242   6.062   1.119  16.777  0.8452 -0.2891  0.5558
19917TIP3    H281243   5.999   0.981  16.771  2.5145 -1.0541  0.1133
19918TIP3   OH281244   5.423   3.067   0.094  0.3512  0.1284 -0.0718
19918TIP3    H181245   5.362   3.122   0.143  0.6677  0.2826  0.1548
19918TIP3    H281246   5.380   3.052   0.010  0.9200  2.0280 -0.7557
19919TIP3   OH281247   0.078   6.264   2.179 -0.1096 -0.3468  0.0934
19919TIP3    H181248   0.103   6.251   2.271  0.1055  1.4309  0.3281
19919TIP3    H281249   0.007   6.201   2.165 -2.0871  1.1755  2.3511
19920TIP3   OH281250   6.534   5.019   2.165  0.1626  0.0502  0.9334
19920TIP3    H181251   6.452   4.976   2.140  0.0875 -0.0497  1.3457
19920TIP3    H281252   6.526   5.033   2.259 -0.5835  2.5468  0.5857
19921TIP3   OH281253   3.385   4.444  11.351 -0.5821 -0.1593  0.1055
19921TIP3    H181254   3.463   4.476  11.396 -1.0839  0.0811  0.8331
19921TIP3    H281255   3.416   4.373  11.295  0.4029  0.9538 -0.8018
19922TIP3   OH281256   5.322   0.508  16.807 -0.4042 -0.4300 -0.0804
19922TIP3    H181257   5.354   0.464  16.729  0.2815 -0.5924  0.2847
19922TIP3    H281258   5.393   0.498  16.871 -1.7774 -2.1862  1.2831
19923TIP3   OH281259   0.253   3.336  17.094 -0.9950 -0.2018 -0.3619
19923TIP3    H181260   0.303   3.409  17.056  0.1252 -0.2904  0.8830
19923TIP3    H281261   0.312   3.261  17.088 -0.8859 -0.2776  1.2778
19924TIP3   OH281262   5.633   6.304   3.918 -0.1185  0.2708 -0.0140
19924TIP3    H181263   5.702   6.238   3.920  0.6973  1.1006  0.1950
19924TIP3    H281264   5.627   6.335   4.009  1.7809  2.7124 -0.6067
19925TIP3   OH281265   4.387   6.794   3.751  0.0539 -0.4995 -0.4818
19925TIP3    H181266   4.342   6.729   3.696 -1.4394 -0.1914  0.3421
19925TIP3    H281267   4.365   6.769   3.841  2.5755 -1.0736  0.0547
19926TIP3   OH281268   3.193   5.837  11.860 -0.2137 -0.5499  0.2035
19926TIP3    H181269   3.276   5.791  11.850  0.0180 -0.1402  0.2412
19926TIP3    H281270   3.197   5.875  11.948 -0.0816  0.1871 -0.1165
19927TIP3   OH281271   2.519   1.595  15.471  0.1785 -0.2329  0.3641
19927TIP3    H181272   2.522   1.660  15.541 -0.8464  1.8503 -1.3969
19927TIP3    H281273   2.427   1.589  15.447  0.7030  1.1421 -2.4719
19928TIP3   OH281274   0.351   5.847  12.593  0.1122 -0.7598  0.1692
19928TIP3    H181275   0.404   5.853  12.514  0.5064  1.0548  0.5283
19928TIP3    H281276   0.407   5.881  12.663 -0.7420 -0.9337  0.9656
19929TIP3   OH281277   2.262   3.342  14.735 -0.1257  0.4347  0.4849
19929TIP3    H181278   2.274   3.337  14.640  0.0080  0.3151  0.5066
19929TIP3    H281279   2.290   3.256  14.766 -1.7792 -0.1505  0.4693
19930TIP3   OH281280   6.408   3.656   0.458  0.4917  0.1029  0.3136
19930TIP3    H181281   6.439   3.621   0.542 -0.1477 -0.8065  0.1825
19930TIP3    H281282   6.319   3.621   0.449  1.4996 -2.2430 -2.0638
19931TIP3   OH281283   3.658   5.861  14.821 -0.0502 -0.7694  0.5120
19931TIP3    H181284   3.677   5.950  14.790 -0.6640 -0.7619  0.1574
19931TIP3    H281285   3.605   5.822  14.752 -1.1237 -0.8821  1.3827
19932TIP3   OH281286   2.142   3.500   4.032  0.6494 -0.0440  0.1700
19932TIP3    H181287   2.091   3.577   4.008 -0.4281 -0.1135  2.1201
19932TIP3    H281288   2.174   3.466   3.948 -0.8564  1.1323 -0.9347
19933TIP3   OH281289   0.524   2.555   3.699 -0.2555  0.2877 -0.2252
19933TIP3    H181290   0.615   2.524   3.694 -0.8030 -1.5883  0.5697
19933TIP3    H281291   0.525   2.617   3.772  0.5248  0.9131 -0.7394
19934TIP3   OH281292   0.579   0.691   0.647 -0.2256  0.6743  0.4088
19934TIP3    H181293   0.507   0.657   0.701  0.5707  1.1266  1.8208
19934TIP3    H281294   0.638   0.616   0.636 -0.7966  0.3601 -0.5660
19935TIP3   OH281295   5.713   5.693   3.757  0.3648 -0.2463  0.4357
19935TIP3    H181296   5.720   5.606   3.798  0.0464 -0.7437 -0.5392
19935TIP3    H281297   5.632   5.729   3.793  1.2093  0.2413  1.9167
19936TIP3   OH281298   4.999   3.010   3.583  0.6071 -0.1364  0.4639
19936TIP3    H181299   4.961   2.971   3.662 -0.3783 -1.6070 -0.6841
19936TIP3    H281300   4.941   2.982   3.512  0.0271  3.2206 -0.5289
19937TIP3   OH281301   2.689   4.475  17.009  0.3041  0.4521  0.1965
19937TIP3    H181302   2.666   4.383  17.024  2.5047  0.0367  1.4492
19937TIP3    H281303   2.637   4.523  17.074  1.2977 -0.2415  1.5648
19938TIP3   OH281304   0.142   5.021   2.677 -0.2502  0.4535 -0.0946
19938TIP3    H181305   0.210   4.981   2.623 -1.2789 -2.2986  0.4956
19938TIP3    H281306   0.189   5.058   2.751  0.7964  0.6572 -0.8397
19939TIP3   OH281307   6.123   4.328   4.773  0.8844 -0.2726  0.5794
19939TIP3    H181308   6.108   4.327   4.867  3.0745 -1.7693  0.9675
19939TIP3    H281309   6.052   4.383   4.738  0.3247  0.7406  3.1152
19940TIP3   OH281310   4.308   1.146   2.738  0.7060 -0.6970 -0.1078
19940TIP3    H181311   4.252   1.077   2.702  0.1363 -0.0690 -0.4410
19940TIP3    H281312   4.343   1.190   2.660  0.6490 -0.2780  0.1036
19941TIP3   OH281313   1.209   1.776  16.583 -0.5772 -0.3749  0.0488
19941TIP3    H181314   1.290   1.761  16.632 -1.0325 -0.2941  0.8484
19941TIP3    H281315   1.238   1.803  16.496  0.2505 -0.4352  0.2953
19942TIP3   OH281316   5.134   6.330   4.578  0.2126  0.0039  0.3055
19942TIP3    H181317   5.102   6.386   4.506  0.5972 -1.1680 -0.8221
19942TIP3    H281318   5.061   6.325   4.639  0.1677  1.7313  0.4395
19943TIP3   OH281319   4.458   3.860   0.829  0.9678  0.0154 -0.5178
19943TIP3    H181320   4.427   3.848   0.739  1.0089  0.6033 -0.6162
19943TIP3    H281321   4.505   3.944   0.827  1.5116 -0.2726 -0.0938
19944TIP3   OH281322   0.344   2.750   5.226  0.2104 -0.6945 -0.1671
19944TIP3    H181323   0.361   2.700   5.146  0.8669 -2.0099  0.7715
19944TIP3    H281324   0.248   2.756   5.231  0.0767 -2.6401  0.1576
19945TIP3   OH281325   2.267   3.702   1.973 -0.3774 -0.6823  0.3357
19945TIP3    H181326   2.340   3.657   2.016 -1.6508 -1.7159  1.5008
19945TIP3    H281327   2.192   3.646   1.990 -1.7117  1.0601  0.3701
19946TIP3   OH281328   4.528   4.134  15.413 -0.1663  0.3187  0.0318
19946TIP3    H181329   4.602   4.190  15.391  0.6898 -0.8354 -0.1394
19946TIP3    H281330   4.560   4.078  15.484 -0.7994 -0.3287 -0.1728
19947TIP3   OH281331   0.300   5.098   2.884 -0.2634  0.1881  0.2842
19947TIP3    H181332   0.264   5.125   2.969 -1.1264  2.3233 -0.6791
19947TIP3    H281333   0.389   5.134   2.884 -0.2895  0.2523  0.2529
19948TIP3   OH281334   0.656   4.191   0.838  0.4819 -0.6946  0.3556
19948TIP3    H181335   0.719   4.263   0.835  1.4975 -1.4178  2.3942
19948TIP3    H281336   0.663   4.149   0.753 -1.0665  2.2824 -1.3986
19949TIP3   OH281337   1.272   4.054  15.906 -0.2903 -0.2927 -0.2214
19949TIP3    H181338   1.247   3.985  15.969 -0.1351 -1.0602 -0.9797
19949TIP3    H281339   1.189   4.090  15.876 -0.3606  0.7503  1.1166
19950TIP3   OH281340   0.867   0.951  15.424 -1.0090 -0.3122 -0.2457
19950TIP3    H181341   0.825   0.907  15.351  0.6673 -0.5122 -1.1505
19950TIP3    H281342   0.908   0.881  15.475 -0.3282 -0.0043 -0.3563
19951TIP3   OH281343   3.270   4.065  12.576 -0.4943 -0.1776 -0.3467
19951TIP3    H181344   3.322   4.142  12.551  1.5980 -1.0499  1.0095
19951TIP3    H281345   3.264   4.070  12.671  0.2434 -1.9775 -0.1577
19952TIP3   OH281346   0.083   5.396   0.538 -0.0885  0.1213  0.4839
19952TIP3    H181347   0.060   5.401   0.631 -0.6535  1.1794  0.3123
19952TIP3    H281348   0.037   5.319   0.506 -2.4448  1.4317  0.4600
19953TIP3   OH281349   4.544   2.460   2.916  0.4344 -0.0823 -0.2480
19953TIP3    H181350   4.586   2.539   2.883 -0.8266  1.0308  0.7346
19953TIP3    H281351   4.579   2.450   3.005  0.0069 -0.1930 -0.0916
19954TIP3   OH281352   1.814   6.673   5.819 -0.0266  0.3829  0.4851
19954TIP3    H181353   1.815   6.719   5.903  0.0899  0.7146  0.3041
19954TIP3    H281354   1.867   6.595   5.834  0.8931  0.9854  0.4209
19955TIP3   OH281355   3.313   2.494   2.767 -0.2977  0.7256 -0.1505
19955TIP3    H181356   3.336   2.437   2.839 -0.2450  0.0943 -0.6568
19955TIP3    H281357   3.397   2.527   2.734 -0.3946  3.4248  1.9294
19956TIP3   OH281358   1.043   0.417  13.900 -0.0707  0.6533 -0.0395
19956TIP3    H181359   1.012   0.326  13.909  1.0867  0.3835  1.6464
19956TIP3    H281360   1.121   0.421  13.954  1.0022  2.1889 -1.6034
19957TIP3   OH281361   0.244   0.678  16.164 -0.4404 -0.3018 -0.3943
19957TIP3    H181362   0.222   0.587  16.144 -0.0957 -1.2520  2.8835
19957TIP3    H281363   0.162   0.716  16.197 -0.1898  0.0464 -0.1617
19958TIP3   OH281364   3.085   0.952   4.139 -0.4459 -0.1319  0.0135
19958TIP3    H181365   3.111   0.861   4.150  3.0190  0.8115  0.8847
19958TIP3    H281366   3.131   0.981   4.061 -1.7303  0.8210 -0.4200
19959TIP3   OH281367   0.135   1.405  11.406 -0.0316 -0.1966  0.5276
19959TIP3    H181368   0.104   1.364  11.326 -0.1098 -3.3343  2.0124
19959TIP3    H281369   0.055   1.440  11.447 -0.1977  0.1479 -0.0810
19960TIP3   OH281370   2.596   0.005   3.049 -0.2994  0.2107 -0.2059
19960TIP3    H181371   2.519  -0.032   3.004 -0.2990 -1.1645  0.8508
19960TIP3    H281372   2.565   0.089   3.083 -1.6256 -0.6597  0.8743
19961TIP3   OH281373   4.729   3.510   1.041  0.3484 -0.3786 -1.2387
19961TIP3    H181374   4.686   3.434   1.002  1.5985 -1.7212 -0.1437
19961TIP3    H281375   4.680   3.585   1.008 -1.0779 -1.6622 -2.1911
19962TIP3   OH281376   2.213   4.728  12.593  0.3206 -0.3570 -0.1255
19962TIP3    H181377   2.228   4.645  12.638  0.2238 -0.1760  0.2399
19962TIP3    H281378   2.132   4.762  12.631  0.2774 -0.1689 -0.3838
19963TIP3   OH281379   1.452   5.836   4.240 -0.2330 -0.4415 -0.4003
19963TIP3    H181380   1.390   5.813   4.171  0.9064 -2.3889 -0.8533
19963TIP3    H281381   1.424   5.922   4.270 -1.6114 -0.1615 -2.3189
19964TIP3   OH281382   6.370   2.133  13.180 -0.3593 -0.1841 -0.4228
19964TIP3    H181383   6.291   2.176  13.148  0.1016  1.6558  0.7487
19964TIP3    H281384   6.415   2.103  13.101 -0.4510  2.0113 -1.3828
19965TIP3   OH281385   5.205   0.923  13.130 -0.3843 -0.6118 -0.8487
19965TIP3    H181386   5.242   0.969  13.205  0.8725  1.7589 -2.7500
19965TIP3    H281387   5.169   0.842  13.166 -0.5588  0.7496  2.3727
19966TIP3   OH281388   0.977   1.664   1.444 -0.1093 -0.1513 -0.1895
19966TIP3    H181389   1.024   1.637   1.365 -0.5754 -0.5405 -0.3343
19966TIP3    H281390   1.034   1.636   1.516  1.4246  2.1923 -0.3884
19967TIP3   OH281391   3.627   0.337  17.093  0.2182  0.0613  0.1840
19967TIP3    H181392   3.578   0.266  17.051 -0.1093  0.8955 -0.9226
19967TIP3    H281393   3.687   0.293  17.153  1.1595 -1.2785 -1.6253
19968TIP3   OH281394   0.300   3.800   2.950  0.1150  0.0370 -0.1113
19968TIP3    H181395   0.291   3.884   2.905  0.2793 -0.6390 -1.4471
19968TIP3    H281396   0.264   3.816   3.037 -2.0683  0.8450 -1.1056
19969TIP3   OH281397   5.669   2.592   5.349  0.4918 -0.4952 -0.1895
19969TIP3    H181398   5.704   2.555   5.268  1.0091 -0.8516  0.1904
19969TIP3    H281399   5.575   2.575   5.345  0.3056  0.6080 -1.2984
19970TIP3   OH281400   2.826   3.582   5.478 -0.0447 -0.3702  0.0218
19970TIP3    H181401   2.738   3.545   5.479 -0.0016 -0.4478  0.9135
19970TIP3    H281402   2.814   3.671   5.445 -0.3155 -0.7078 -0.8339
19971TIP3   OH281403   5.185   0.672  13.718  0.0653  0.0870 -0.8961
19971TIP3    H181404   5.190   0.578  13.703  0.3212  0.2365 -1.7888
19971TIP3    H281405   5.270   0.706  13.690 -0.0009  0.5779 -0.5242
19972TIP3   OH281406   2.653   4.283  16.032 -0.1658  0.2775  0.2849
19972TIP3    H181407   2.698   4.274  16.115  0.7856  1.4940 -0.0642
19972TIP3    H281408   2.667   4.374  16.007 -0.1377 -0.1478 -1.3648
19973TIP3   OH281409   2.492   4.236   2.391  0.0832  0.7118  0.0030
19973TIP3    H181410   2.489   4.197   2.478  2.9599 -0.8701 -0.4710
19973TIP3    H281411   2.516   4.327   2.406  0.0039  0.5930  0.8719
19974TIP3   OH281412   1.772   1.133  12.327  0.3753 -0.1427  0.0770
19974TIP3    H181413   1.700   1.187  12.295  1.4803  0.4128 -1.6511
19974TIP3    H281414   1.767   1.053  12.275  0.2696 -0.6205  0.8171
19975TIP3   OH281415   3.034   3.513  16.710 -0.3201  0.4864 -0.3509
19975TIP3    H181416   3.027   3.603  16.742 -1.8587  0.4843 -0.5853
19975TIP3    H281417   3.110   3.514  16.652 -0.6738  1.8023 -0.8375
19976TIP3   OH281418   5.108   2.685   4.365  0.0171  0.4322 -0.1938
19976TIP3    H181419   5.016   2.707   4.380 -0.7126 -0.9591 -2.1829
19976TIP3    H281420   5.132   2.630   4.439 -0.5001  1.4489  0.7464
19977TIP3   OH281421   5.112   5.185   1.120  0.2425  0.2918  0.3773
19977TIP3    H181422   5.018   5.190   1.103  0.0725 -2.3906  0.1534
19977TIP3    H281423   5.118   5.154   1.210  0.8576 -0.9920 -0.0851
19978TIP3   OH281424   0.311   4.165  11.793 -0.4339  0.2428 -0.1807
19978TIP3    H181425   0.404   4.169  11.772 -0.7169  3.7777 -1.3550
19978TIP3    H281426   0.268   4.213  11.723 -3.0538 -0.3267  0.9151
19979TIP3   OH281427   6.243   2.220   2.557  0.3111 -0.1472  0.3514
19979TIP3    H181428   6.155   2.252   2.577  0.3884  1.5703 -1.6191
19979TIP3    H281429   6.231   2.168   2.477  1.0182 -0.2502  0.3093
19980TIP3   OH281430   1.796   4.722   2.124 -0.2935  0.2209  0.3763
19980TIP3    H181431   1.704   4.740   2.110 -0.7842 -1.8476  0.6034
19980TIP3    H281432   1.806   4.714   2.219  0.7571  3.2085  0.6233
19981TIP3   OH281433   5.658   2.203  16.839 -0.5987  0.0619  0.4282
19981TIP3    H181434   5.613   2.195  16.923  1.6864 -0.8321  1.6479
19981TIP3    H281435   5.717   2.278  16.851  1.4066 -1.4677  0.4931
19982TIP3   OH281436   6.750   1.703  16.252 -0.8343  0.6672 -0.5159
19982TIP3    H181437   6.748   1.608  16.246 -1.5003  0.6390  0.0872
19982TIP3    H281438   6.822   1.729  16.195  0.2432 -0.2833  0.3763
19983TIP3   OH281439   6.766   4.797  12.213 -0.1627 -0.0651 -0.6645
19983TIP3    H181440   6.759   4.892  12.201  0.8156  0.1828  0.5400
19983TIP3    H281441   6.744   4.761  12.127  2.1256  1.3990 -1.9895
19984TIP3   OH281442   3.386   4.325  16.756 -0.6740 -0.0871 -0.3200
19984TIP3    H181443   3.391   4.396  16.691  0.3669 -0.3287 -0.5356
19984TIP3    H281444   3.402   4.369  16.840  0.7870 -0.1557 -0.5349
19985TIP3   OH281445   0.161   5.648  14.873 -0.3422  0.0172  0.6620
19985TIP3    H181446   0.117   5.625  14.956  0.7868 -1.4651  0.8926
19985TIP3    H281447   0.179   5.741  14.881  0.9156 -0.3285  2.6992
19986TIP3   OH281448   5.288   1.369   4.124  0.9568  0.0321  0.2775
19986TIP3    H181449   5.315   1.449   4.168  0.0926  0.3020  0.3240
19986TIP3    H281450   5.206   1.391   4.082  0.8295 -0.7646  0.0976
19987TIP3   OH281451   6.417   4.977   5.740 -0.3193 -0.2643  0.0383
19987TIP3    H181452   6.394   5.002   5.651 -1.4096 -1.2674  0.0188
19987TIP3    H281453   6.339   4.996   5.792 -0.0604 -0.6553  0.5889
19988TIP3   OH281454   5.284   4.801  14.214  0.3203 -0.1020  0.1561
19988TIP3    H181455   5.374   4.814  14.246  0.9520 -1.4665 -0.9788
19988TIP3    H281456   5.294   4.751  14.134 -1.3767  1.1563 -0.9156
19989TIP3   OH281457   6.350   3.168  15.847 -0.7795  0.5327  0.2147
19989TIP3    H181458   6.396   3.085  15.840  1.1337  1.4744  0.9185
19989TIP3    H281459   6.258   3.146  15.833 -0.1267 -1.4008 -1.4162
19990TIP3   OH281460   1.413   1.580   0.010  0.1122 -0.1985 -0.1713
19990TIP3    H181461   1.355   1.563   0.085  0.1766 -0.2610 -0.1352
19990TIP3    H281462   1.393   1.510  -0.052 -0.1718  0.0376 -0.3517
19991TIP3   OH281463   2.652   2.185   2.554  0.2556 -0.0039 -0.3864
19991TIP3    H181464   2.682   2.096   2.570 -0.6907 -0.4641 -1.1091
19991TIP3    H281465   2.709   2.240   2.609 -0.0946 -1.1555  1.1881
19992TIP3   OH281466   3.418   2.979   4.527 -0.2815  0.2973  0.1302
19992TIP3    H181467   3.417   3.062   4.479  0.9116 -0.5581 -1.5128
19992TIP3    H281468   3.511   2.964   4.547 -0.7949  1.2849  4.1114
19993TIP3   OH281469   5.062   0.148  13.757 -0.1661  0.8431 -0.0061
19993TIP3    H181470   5.008   0.184  13.687 -0.4435  1.4396  0.5104
19993TIP3    H281471   5.152   0.161  13.726 -0.2555 -1.4795 -1.5513
19994TIP3   OH281472   6.181   6.458  14.293  0.1791 -0.4704 -0.0086
19994TIP3    H181473   6.154   6.536  14.244 -0.9862 -0.7885  0.1140
19994TIP3    H281474   6.201   6.491  14.380 -1.4765 -0.4512  0.3998
19995TIP3   OH281475   3.659   0.839  10.998  0.1530  0.3538 -0.0195
19995TIP3    H181476   3.574   0.868  10.963 -0.7881  0.2170  2.0122
19995TIP3    H281477   3.643   0.750  11.029  1.2959  0.0124 -0.3700
19996TIP3   OH281478   2.239   5.723  16.800  0.6155 -0.1189 -0.2855
19996TIP3    H181479   2.183   5.663  16.849  1.2440 -0.1019  0.4846
19996TIP3    H281480   2.193   5.807  16.803 -0.0624 -0.4492 -1.0061
19997TIP3   OH281481   1.570   3.489  10.317 -0.0372 -0.1011  0.1059
19997TIP3    H181482   1.495   3.469  10.260  1.2726 -0.1999 -1.6730
19997TIP3    H281483   1.591   3.406  10.359 -1.5917  0.1716  1.5183
19998TIP3   OH281484   6.151   0.096  15.501 -0.3413  0.0262 -0.0065
19998TIP3    H181485   6.165   0.044  15.580 -0.8519 -0.2372 -0.0868
19998TIP3    H281486   6.056   0.091  15.485 -0.1775 -0.3302 -0.9135
19999TIP3   OH281487   6.565   4.982  12.006  0.8517 -0.3601  0.2709
19999TIP3    H181488   6.504   4.998  12.078  1.2891  2.4823  0.1304
19999TIP3    H281489   6.511   4.943  11.937  0.0327 -1.3867  1.4510
20000TIP3   OH281490   1.000   2.878   5.929 -0.2036  0.4622 -0.7928
20000TIP3    H181491   0.932   2.817   5.902 -0.1969 -1.7453  3.4585
20000TIP3    H281492   0.952   2.954   5.963 -0.6250 -0.6244  1.1750
20001TIP3   OH281493   3.065   2.607  16.317 -0.1871  0.2768  0.9312
20001TIP3    H181494   3.017   2.663  16.377 -0.5186 -0.5880  1.4871
20001TIP3    H281495   3.019   2.616  16.233  0.1102  1.2692  0.8641
20002TIP3   OH281496   4.613   0.404  12.133 -0.3111 -0.3230  0.6743
20002TIP3    H181497   4.654   0.331  12.085  0.3248  0.7014 -0.3852
20002TIP3    H281498   4.649   0.397  12.222  2.1355  0.4790 -0.1913
20003TIP3   OH281499   1.570   2.414  16.609 -0.5407 -0.2474  0.3086
20003TIP3    H181500   1.640   2.427  16.673  1.6631 -1.1772 -1.7891
20003TIP3    H281501   1.567   2.320  16.596  0.1912  0.0013 -2.0809
20004TIP3   OH281502   2.506   0.041  12.987  0.2932 -0.1476  0.6073
20004TIP3    H181503   2.561   0.015  13.061  0.0510  2.7749  1.9878
20004TIP3    H281504   2.568   0.060  12.916  0.7017 -0.9570  0.7403
20005TIP3   OH281505   6.545   5.811  14.344  0.4134 -0.0779 -0.1687
20005TIP3    H181506   6.466   5.863  14.328 -0.1043 -1.4651 -2.6067
20005TIP3    H281507   6.611   5.849  14.286  0.6916 -0.7006 -0.2662
20006TIP3   OH281508   3.414   1.683  14.223  0.6075 -0.7369  0.3262
20006TIP3    H181509   3.420   1.606  14.280  0.8556  0.2045  1.6179
20006TIP3    H281510   3.501   1.722  14.226  0.0412  0.5382  1.0915
20007TIP3   OH281511   6.795   6.451   6.628 -0.1630  0.2754 -0.6845
20007TIP3    H181512   6.711   6.461   6.583 -0.1181  1.9997 -0.4777
20007TIP3    H281513   6.860   6.448   6.557 -0.2769  0.7062 -0.8149
20008TIP3   OH281514   3.540   4.154   3.539  0.2688  0.3808 -0.3493
20008TIP3    H181515   3.615   4.199   3.577  0.9993 -1.4809  0.5277
20008TIP3    H281516   3.509   4.212   3.470  1.9188  1.6250 -0.0869
20009TIP3   OH281517   4.847   4.358  13.268  0.0916 -0.3318 -0.6707
20009TIP3    H181518   4.787   4.360  13.193  0.5566  0.9644 -1.0335
20009TIP3    H281519   4.839   4.445  13.307  0.5148 -0.7019  0.2687
20010TIP3   OH281520   6.431   5.165   1.691  0.1622  0.1979 -0.0208
20010TIP3    H181521   6.412   5.086   1.640 -2.4283 -0.4945  1.7881
20010TIP3    H281522   6.358   5.225   1.670  1.0571  1.3623  0.0947
20011TIP3   OH281523   6.528   6.466   5.142 -0.1397  0.1883 -1.2794
20011TIP3    H181524   6.446   6.416   5.148  0.4821 -0.6794  0.7966
20011TIP3    H281525   6.523   6.528   5.215  1.1226  0.0219 -1.0436
20012TIP3   OH281526   4.992   3.476  14.536 -0.3458  0.3005 -0.8299
20012TIP3    H181527   4.957   3.392  14.568  2.8457 -1.1463 -0.7436
20012TIP3    H281528   4.974   3.475  14.442  0.6735 -1.1292 -1.0545
20013TIP3   OH281529   3.086   2.883  12.729 -0.1318  0.3917  0.1376
20013TIP3    H181530   3.167   2.933  12.725 -0.0964  0.2644 -1.0769
20013TIP3    H281531   3.094   2.818  12.659 -1.8412  1.2460 -0.9432
20014TIP3   OH281532   1.275   5.319   4.731  0.6752 -0.3427  0.4079
20014TIP3    H181533   1.349   5.286   4.782  1.4027  0.4878 -0.1062
20014TIP3    H281534   1.314   5.359   4.654 -0.0932  2.5183  1.3921
20015TIP3   OH281535   4.301   5.453   3.020 -0.0076  0.5700 -0.0360
20015TIP3    H181536   4.365   5.478   3.086 -1.2761  1.5650  0.8619
20015TIP3    H281537   4.283   5.360   3.039 -1.8553  1.3116  2.4307
20016TIP3   OH281538   4.148   2.818   1.803  0.3531 -0.1376 -0.0888
20016TIP3    H181539   4.126   2.843   1.892  0.5014 -0.4032  0.0249
20016TIP3    H281540   4.082   2.861   1.748  0.7023  0.6328  0.0814
20017TIP3   OH281541   2.224   5.167  14.588  0.1058  0.2954 -0.1019
20017TIP3    H181542   2.166   5.242  14.601  0.1225  0.4022 -0.6151
20017TIP3    H281543   2.268   5.185  14.505 -2.6743 -2.0576 -2.2590
20018TIP3   OH281544   5.668   0.080  12.242 -0.8979 -0.2098  0.5776
20018TIP3    H181545   5.581   0.063  12.205 -1.3390  0.1089  1.4351
20018TIP3    H281546   5.707  -0.007  12.252 -1.7389 -0.5002  1.6197
20019TIP3   OH281547   0.778   0.397  16.448 -0.2145  0.4738 -0.3587
20019TIP3    H181548   0.862   0.360  16.421 -0.5448 -0.0174 -0.7430
20019TIP3    H281549   0.784   0.490  16.424  0.7695  0.7877  0.9658
20020TIP3   OH281550   4.788   6.111  16.146  0.5507  0.4784  0.0695
20020TIP3    H181551   4.878   6.132  16.122  1.5258 -2.1066  1.1321
20020TIP3    H281552   4.741   6.107  16.063  1.6658  0.7435 -0.5896
20021TIP3   OH281553   2.671   6.390   5.483  0.3131 -0.5669 -0.0060
20021TIP3    H181554   2.688   6.356   5.571  0.2567 -3.5962 -1.0266
20021TIP3    H281555   2.607   6.329   5.447  0.7452  0.2836 -2.3438
20022TIP3   OH281556   2.781   3.198  10.566  0.5180  0.2336 -0.3516
20022TIP3    H181557   2.754   3.282  10.528  0.4440  0.1913 -0.3928
20022TIP3    H281558   2.795   3.217  10.659 -1.1070 -0.0663 -0.0227
20023TIP3   OH281559   6.723   0.027  12.090  0.6206  0.1195  0.1877
20023TIP3    H181560   6.679  -0.004  12.170  1.3927 -0.6831  0.3182
20023TIP3    H281561   6.816   0.017  12.109  0.8070 -0.5608 -0.9852
20024TIP3   OH281562   0.620   5.988  16.650  0.0616  0.1521  0.2109
20024TIP3    H181563   0.624   6.048  16.724 -3.2806 -0.0586  0.7236
20024TIP3    H281564   0.629   6.044  16.572  0.5552  0.7874  0.7189
20025TIP3   OH281565   4.757   2.073  14.221 -0.0738 -0.4136 -0.2475
20025TIP3    H181566   4.808   2.052  14.299  1.5322  1.2070 -0.7871
20025TIP3    H281567   4.748   1.990  14.174  1.3918 -0.8853  0.2645
20026TIP3   OH281568   4.612   3.062   4.630 -0.5027 -0.4611  0.0660
20026TIP3    H181569   4.559   3.042   4.707  1.0713 -1.2702  1.0013
20026TIP3    H281570   4.695   3.017   4.646  1.5275  2.8613  0.0268
20027TIP3   OH281571   6.380   6.253   2.760  0.6693 -0.6127 -0.0686
20027TIP3    H181572   6.294   6.274   2.722  0.7152 -0.0892  0.1038
20027TIP3    H281573   6.419   6.191   2.699  1.1560  0.9645 -1.4430
20028TIP3   OH281574   0.201   2.192  14.680 -0.1244  0.0436 -0.0921
20028TIP3    H181575   0.143   2.119  14.702  0.3862 -0.9944 -1.9886
20028TIP3    H281576   0.290   2.157  14.692  0.1238  0.4578 -0.6639
20029TIP3   OH281577   2.996   6.182  11.333  0.4580  0.0827 -0.1748
20029TIP3    H181578   2.941   6.123  11.280  0.7585 -0.8527  0.5283
20029TIP3    H281579   2.962   6.270  11.314 -0.6724 -0.4013 -0.4654
20030TIP3   OH281580   4.154   6.547   2.028 -0.5200 -0.2418 -0.1621
20030TIP3    H181581   4.081   6.501   2.069 -0.5803  1.3423  1.6654
20030TIP3    H281582   4.125   6.638   2.023  0.7535  0.1557 -0.8536
20031TIP3   OH281583   4.695   2.360   1.442  0.3970 -0.2164 -0.3950
20031TIP3    H181584   4.685   2.333   1.351 -0.3170 -1.1784 -0.0526
20031TIP3    H281585   4.742   2.443   1.438  1.2984 -0.7620 -1.5799
20032TIP3   OH281586   0.682   0.631   6.187  0.0390 -0.0769 -0.4360
20032TIP3    H181587   0.621   0.658   6.255  1.6065  0.7459  0.7094
20032TIP3    H281588   0.657   0.683   6.111 -0.5690  0.3930  0.0716
20033TIP3   OH281589   6.795   4.592  13.163  0.1209  0.2250  0.5859
20033TIP3    H181590   6.817   4.525  13.098 -1.3033 -0.7735  1.0650
20033TIP3    H281591   6.724   4.642  13.123  0.6731  0.9695  0.5333
20034TIP3   OH281592   1.166   4.411  14.569 -0.4806 -0.3444 -0.0434
20034TIP3    H181593   1.151   4.340  14.631 -0.7725 -0.8475 -0.6842
20034TIP3    H281594   1.188   4.487  14.624  3.2900 -1.6738  0.6084
20035TIP3   OH281595   2.489   4.845  13.343 -0.4677 -0.1377  0.1057
20035TIP3    H181596   2.489   4.926  13.394 -0.1624  0.1417 -0.3325
20035TIP3    H281597   2.443   4.868  13.262 -0.2714 -0.3666 -0.0699
20036TIP3   OH281598   0.505   1.601   6.325 -0.7287 -0.5718  0.3802
20036TIP3    H181599   0.483   1.658   6.251 -0.7126  0.6675  1.2941
20036TIP3    H281600   0.472   1.515   6.300  0.8146 -0.6105 -1.8378
20037TIP3   OH281601   2.638   5.259   1.794  0.7218  0.4707  0.3304
20037TIP3    H181602   2.721   5.243   1.839  1.2953  0.0506 -0.8427
20037TIP3    H281603   2.620   5.177   1.747  0.7230  1.2727 -1.1084
20038TIP3   OH281604   1.009   0.386  15.041 -0.2224  1.0509 -0.8577
20038TIP3    H181605   1.054   0.429  14.968  0.3563 -0.9026 -1.7220
20038TIP3    H281606   1.077   0.374  15.107 -0.2984  1.0939 -0.7703
20039TIP3   OH281607   4.628   1.143  12.638 -0.3153  0.1703 -0.3810
20039TIP3    H181608   4.650   1.139  12.545  1.4084  1.0833 -0.0608
20039TIP3    H281609   4.711   1.127  12.683 -1.3657 -1.6517  1.0567
20040TIP3   OH281610   3.587   1.080  11.784 -0.1812  0.1457 -0.1671
20040TIP3    H181611   3.539   1.123  11.854 -0.4405 -1.3761  0.6414
20040TIP3    H281612   3.533   1.004  11.761  0.2323  0.2498 -1.5572
20041TIP3   OH281613   0.323   2.716   0.766 -0.3785  0.2873  0.1787
20041TIP3    H181614   0.407   2.687   0.802 -0.3505 -0.9605 -0.8050
20041TIP3    H281615   0.262   2.646   0.788 -1.1712  1.1832  0.8765
20042TIP3   OH281616   0.926   5.234   4.283 -0.4716 -0.1575 -0.2263
20042TIP3    H181617   0.834   5.250   4.260  0.0207  1.5079 -1.2010
20042TIP3    H281618   0.945   5.297   4.352  0.0923 -0.1077 -0.4228
20043TIP3   OH281619   1.382   5.369  13.257  0.2560  0.2776  0.0924
20043TIP3    H181620   1.428   5.306  13.313  0.7525  1.3870  0.9830
20043TIP3    H281621   1.449   5.403  13.199  0.1186  0.3854 -0.0042
20044TIP3   OH281622   3.431   4.262  15.702  0.4591 -0.7676  0.2132
20044TIP3    H181623   3.455   4.233  15.614 -1.5759 -0.8017 -0.3749
20044TIP3    H281624   3.395   4.350  15.689 -2.6059 -1.8695  0.5013
20045TIP3   OH281625   0.038   6.051   6.324 -0.4377  0.0697 -0.1241
20045TIP3    H181626   0.035   6.111   6.249 -0.4878  0.6751  0.3500
20045TIP3    H281627   0.129   6.023   6.329 -0.2719  0.6165  0.0332
20046TIP3   OH281628   1.633   0.898  15.220 -0.1819  0.0893 -0.7027
20046TIP3    H181629   1.682   0.906  15.302  2.6839  3.5773 -2.4668
20046TIP3    H281630   1.541   0.896  15.247  0.6563 -1.2089  2.5832
20047TIP3   OH281631   5.065   2.001   1.252  0.0574 -0.3477  0.1509
20047TIP3    H181632   5.004   2.057   1.204  0.5346 -0.3314 -0.4465
20047TIP3    H281633   5.077   1.924   1.196  1.6806  0.2862 -0.4257
20048TIP3   OH281634   1.427   1.889   3.617 -0.5907  0.2374  0.7133
20048TIP3    H181635   1.412   1.981   3.595  2.0485  0.5859  0.0708
20048TIP3    H281636   1.420   1.843   3.534 -0.4005  0.0651  0.7937
20049TIP3   OH281637   1.121   3.078  13.536 -0.0657  0.0106 -0.3950
20049TIP3    H181638   1.066   3.065  13.613  0.5511  0.1277  0.0746
20049TIP3    H281639   1.062   3.116  13.471 -0.6251 -0.2107 -0.0295
20050TIP3   OH281640   0.594   1.723   3.039 -0.1046  0.1867  0.2674
20050TIP3    H181641   0.600   1.758   2.950  2.9732  1.5528  0.8731
20050TIP3    H281642   0.553   1.638   3.028 -1.2909  0.9804 -2.2343
20051TIP3   OH281643   4.097   5.582  15.709  0.0311  0.2764  0.4463
20051TIP3    H181644   4.183   5.541  15.719  0.5925  0.9025 -1.4416
20051TIP3    H281645   4.043   5.515  15.668  0.0027  0.3451  0.3721
20052TIP3   OH281646   3.985   4.866  16.254  0.5755 -0.0674 -0.3790
20052TIP3    H181647   3.915   4.904  16.307 -1.4314 -1.5949 -1.7620
20052TIP3    H281648   4.042   4.822  16.317  0.3136  1.1724  0.7814
20053TIP3   OH281649   1.469   3.438   1.700  0.6145  0.1915  0.1029
20053TIP3    H181650   1.465   3.506   1.768  0.0907  0.0521  0.2166
20053TIP3    H281651   1.457   3.486   1.618 -0.7038  0.1452  0.2403
20054TIP3   OH281652   2.866   0.309  16.890 -0.2053  0.6753  0.1804
20054TIP3    H181653   2.907   0.378  16.943  0.0021 -0.5922  1.7263
20054TIP3    H281654   2.934   0.282  16.829 -0.6244  2.5474 -1.2387
20055TIP3   OH281655   3.179   6.503  12.265 -0.0553  0.0339  0.4861
20055TIP3    H181656   3.114   6.525  12.198 -0.6128 -1.2938  0.5477
20055TIP3    H281657   3.142   6.536  12.347 -0.8249 -0.9931  0.5677
20056TIP3   OH281658   4.662   3.616  16.102  0.3820 -0.0214 -0.9914
20056TIP3    H181659   4.615   3.577  16.175  0.2687 -1.1561 -1.6498
20056TIP3    H281660   4.608   3.691  16.076  0.9706  1.0568  0.7343
20057TIP3   OH281661   3.075   1.783  13.942 -0.9024  0.1419  0.0916
20057TIP3    H181662   3.083   1.761  13.849 -1.0469  3.3990 -0.8037
20057TIP3    H281663   3.165   1.795  13.972 -0.9101  0.3947  0.0136
20058TIP3   OH281664   6.105   1.596   6.004 -0.1585  0.4236 -0.4357
20058TIP3    H181665   6.135   1.596   6.095 -0.9361 -0.6016 -0.1609
20058TIP3    H281666   6.084   1.688   5.986  0.6887  0.7565  0.1730
20059TIP3   OH281667   1.673   0.346  16.214 -0.5341  0.6991 -0.2082
20059TIP3    H181668   1.757   0.385  16.239 -0.2736 -0.0817  0.1942
20059TIP3    H281669   1.666   0.268  16.270 -0.7514 -0.1533 -1.3900
20060TIP3   OH281670   4.606   5.029   4.052 -0.0047  0.5640  0.2241
20060TIP3    H181671   4.557   4.981   3.985 -0.7384 -1.1708  1.8980
20060TIP3    H281672   4.565   5.003   4.135  1.9203  1.2856  1.4777
20061TIP3   OH281673   3.635   1.814   6.380  0.2398  0.0119  0.0249
20061TIP3    H181674   3.677   1.900   6.388 -0.6503  0.7162 -2.0473
20061TIP3    H281675   3.543   1.835   6.363  0.1110 -1.3262 -1.0361
20062TIP3   OH281676   3.929   4.009   4.289 -0.0306 -0.1880  0.3307
20062TIP3    H181677   3.992   3.939   4.305  1.9219  0.4706 -3.4653
20062TIP3    H281678   3.861   3.969   4.235  0.1978  0.4236 -0.4229
20063TIP3   OH281679   4.000   4.638  13.009 -0.3684 -0.3719  0.7272
20063TIP3    H181680   4.071   4.576  13.027  0.7036  0.8619  0.8970
20063TIP3    H281681   3.964   4.659  13.095  0.3875  0.4889  0.8547
20064TIP3   OH281682   0.661   5.322  16.963 -0.3598 -0.0988  0.0186
20064TIP3    H181683   0.732   5.261  16.981 -0.1923  0.0187 -0.2354
20064TIP3    H281684   0.699   5.385  16.902 -0.5311  0.2584  0.2816
20065TIP3   OH281685   2.435   3.788  13.778  0.4874 -0.0780  0.3187
20065TIP3    H181686   2.370   3.780  13.848  0.2267  0.7698  0.1892
20065TIP3    H281687   2.502   3.846  13.815  2.4163 -2.7682  1.3337
20066TIP3   OH281688   4.416   3.944   5.433 -0.2603 -0.5154  0.0852
20066TIP3    H181689   4.420   3.952   5.338  0.2264 -1.2392  0.0384
20066TIP3    H281690   4.504   3.916   5.458 -0.0508  0.7452  0.8668
20067TIP3   OH281691   5.739   0.700  13.058  0.4105 -0.0920 -0.0991
20067TIP3    H181692   5.717   0.760  12.987  1.1377  0.8397  0.4391
20067TIP3    H281693   5.802   0.748  13.112  1.2210 -1.4469  0.2150
20068TIP3   OH281694   4.906   3.462  16.808  0.3614 -0.4427  0.2701
20068TIP3    H181695   4.861   3.430  16.730  0.9570 -0.8641  0.0959
20068TIP3    H281696   4.910   3.386  16.866  0.2482 -0.2266  0.5644
20069TIP3   OH281697   4.474   4.846   3.543  0.0028  0.4022  0.2736
20069TIP3    H181698   4.565   4.852   3.514  0.7254 -0.4616  2.2150
20069TIP3    H281699   4.423   4.854   3.463  1.7962  0.3580 -0.9276
20070TIP3   OH281700   2.089   0.981   4.448 -0.3935  0.2036  0.4235
20070TIP3    H181701   2.125   0.920   4.512 -1.4865 -3.1158 -1.8509
20070TIP3    H281702   2.006   1.009   4.487 -0.4905 -0.7984  0.9772
20071TIP3   OH281703   5.692   4.033  16.843 -0.3018 -0.2925 -1.3947
20071TIP3    H181704   5.767   4.034  16.902 -2.6041  0.6719  1.8527
20071TIP3    H281705   5.688   4.121  16.807 -0.0694 -0.2475 -1.3095
20072TIP3   OH281706   1.775   6.569   0.792 -0.0185 -0.2034  0.1614
20072TIP3    H181707   1.783   6.664   0.797  1.1464 -0.3407  1.5714
20072TIP3    H281708   1.815   6.537   0.873 -1.7845 -1.8332  0.4744
20073TIP3   OH281709   1.085   4.719   4.057 -0.1176  0.2892  0.9826
20073TIP3    H181710   1.102   4.746   3.967 -2.2897 -0.2264  0.3721
20073TIP3    H281711   1.117   4.629   4.061 -0.7479  0.0398  0.4827
20074TIP3   OH281712   2.201   6.518   4.002 -0.4210 -0.3470 -0.3363
20074TIP3    H181713   2.291   6.533   3.973 -0.7621  0.5884 -0.9497
20074TIP3    H281714   2.169   6.604   4.028 -0.3628 -1.0397  2.2830
20075TIP3   OH281715   4.139   1.604   2.990 -0.6941  0.2402 -0.1950
20075TIP3    H181716   4.199   1.624   3.062  1.0571 -1.4964 -1.0974
20075TIP3    H281717   4.123   1.510   2.998 -1.3080  0.2220 -1.4851
20076TIP3   OH281718   1.070   0.278  14.705  0.3214 -0.2966  0.9809
20076TIP3    H181719   1.099   0.200  14.657  2.3085  1.6717 -1.2857
20076TIP3    H281720   1.147   0.305  14.755  0.6550  1.7247 -0.4986
20077TIP3   OH281721   6.426   1.251  11.508  0.3401  0.4512 -0.2609
20077TIP3    H181722   6.448   1.329  11.559  2.8093 -1.5716  2.0675
20077TIP3    H281723   6.463   1.267  11.422  1.1576  1.6851  0.2988
20078TIP3   OH281724   0.740   3.800   5.691 -0.1994 -0.2182 -0.0118
20078TIP3    H181725   0.825   3.777   5.653 -0.3815  2.3137 -2.2131
20078TIP3    H281726   0.762   3.843   5.774  0.4790 -1.4257  0.4716
20079TIP3   OH281727   4.434   5.468   2.757  0.1202  0.6006  0.5108
20079TIP3    H181728   4.522   5.438   2.782 -0.9895 -2.0805  1.4945
20079TIP3    H281729   4.391   5.489   2.840 -0.2619  1.7186  0.0496
20080TIP3   OH281730   0.993   6.540   1.285 -0.1106  0.2487  0.4533
20080TIP3    H181731   0.928   6.478   1.317  0.5768 -0.2736  0.8562
20080TIP3    H281732   0.981   6.541   1.190 -2.0596  1.6967  0.6561
20081TIP3   OH281733   2.094   6.597   0.327  0.2963  0.5961 -0.3067
20081TIP3    H181734   2.120   6.577   0.417 -1.0235  2.5611  0.5669
20081TIP3    H281735   2.161   6.657   0.295  2.9121 -2.8396 -2.1073
20082TIP3   OH281736   4.324   5.130   3.104 -0.0643 -0.6604 -0.2909
20082TIP3    H181737   4.262   5.057   3.101 -0.2097 -0.5497  0.0073
20082TIP3    H281738   4.362   5.132   3.016  0.4807 -1.5588 -0.0977
20083TIP3   OH281739   4.580   0.874   0.821  0.4780  0.2436  0.1313
20083TIP3    H181740   4.486   0.892   0.827  0.4120  0.0649 -0.3542
20083TIP3    H281741   4.619   0.926   0.892 -0.0697 -0.3085  0.8570
20084TIP3   OH281742   4.333   4.785  15.122  0.1442 -0.1795 -0.0034
20084TIP3    H181743   4.302   4.874  15.139  0.8072  0.0708 -0.0466
20084TIP3    H281744   4.336   4.778  15.027  1.0320  0.1025 -0.0043
20085TIP3   OH281745   4.442   4.456   5.252  0.5852 -0.0140  0.0326
20085TIP3    H181746   4.379   4.399   5.295 -0.0471  1.5452  1.2310
20085TIP3    H281747   4.526   4.410   5.261 -0.0823 -1.2800 -0.0572
20086TIP3   OH281748   5.740   1.592   4.838  0.2277 -0.5287  0.1215
20086TIP3    H181749   5.764   1.661   4.777  0.3921 -1.6594 -1.1318
20086TIP3    H281750   5.753   1.631   4.925 -1.6070  1.6674 -0.5048
20087TIP3   OH281751   1.905   1.956  13.836 -0.4080 -0.3561  0.1960
20087TIP3    H181752   1.871   1.873  13.869 -2.0771 -0.0037 -0.5180
20087TIP3    H281753   1.934   2.003  13.915 -1.5478 -0.7227  0.8546
20088TIP3   OH281754   4.111   4.350   0.651 -0.0756 -0.2904 -0.4901
20088TIP3    H181755   4.175   4.293   0.693 -0.1127 -0.2934 -0.4383
20088TIP3    H281756   4.122   4.435   0.695 -0.2683 -0.3524 -0.3216
20089TIP3   OH281757   2.709   5.307   6.075  0.4336  0.6497  0.6005
20089TIP3    H181758   2.750   5.343   5.996 -0.5041  0.0691 -0.1703
20089TIP3    H281759   2.713   5.379   6.138 -0.3933  1.7398 -0.5441
20090TIP3   OH281760   5.687   3.601  11.795 -0.4033  0.3006  0.4663
20090TIP3    H181761   5.710   3.553  11.716 -0.9314  0.2472  0.3360
20090TIP3    H281762   5.647   3.682  11.762 -0.2018  0.4878  0.6805
20091TIP3   OH281763   1.543   6.256   0.235 -0.6637 -0.0486 -0.0994
20091TIP3    H181764   1.572   6.342   0.205  2.4069 -1.6772 -2.3065
20091TIP3    H281765   1.589   6.242   0.318 -0.3550  0.0092 -0.2624
20092TIP3   OH281766   5.291   3.227   4.965  0.3305  0.2428 -0.3753
20092TIP3    H181767   5.339   3.307   4.946  0.7292 -0.0048 -0.4288
20092TIP3    H281768   5.199   3.251   4.956  0.3840  1.0253  0.9244
20093TIP3   OH281769   4.916   5.262  13.776  0.0407  1.0228 -0.3316
20093TIP3    H181770   4.972   5.322  13.826 -0.2461  0.0395  1.2061
20093TIP3    H281771   4.839   5.249  13.830 -0.2616 -0.1193 -1.0041
20094TIP3   OH281772   3.214   2.484  14.920  0.2302  0.0989 -0.9279
20094TIP3    H181773   3.289   2.425  14.905 -1.3034 -1.5313 -2.6558
20094TIP3    H281774   3.173   2.450  14.999  1.4651  1.2665  0.2877
20095TIP3   OH281775   2.745   6.662  10.560  1.0245 -0.2154 -0.1727
20095TIP3    H181776   2.795   6.629  10.634 -0.4829  0.4047  1.1760
20095TIP3    H281777   2.810   6.702  10.503  2.1406  0.0666  1.2476
20096TIP3   OH281778   2.327   2.494  16.200  0.7877 -0.3323  0.5425
20096TIP3    H181779   2.413   2.453  16.200  1.5136  1.1152 -0.2248
20096TIP3    H281780   2.266   2.421  16.212  2.0773 -1.4512  0.5693
20097TIP3   OH281781   6.255   6.133   4.683 -0.5232 -0.1231  0.0041
20097TIP3    H181782   6.308   6.196   4.634  1.0251 -0.7532  0.8370
20097TIP3    H281783   6.305   6.052   4.681 -2.7154 -1.5707 -1.4765
20098TIP3   OH281784   1.049   4.580   3.294  0.3772 -0.2263 -0.2671
20098TIP3    H181785   1.057   4.488   3.267 -0.5484  0.4387 -3.1520
20098TIP3    H281786   0.955   4.593   3.304  0.3685  0.7611 -1.4446
20099TIP3   OH281787   0.583   2.452   4.205  0.6566  0.0282 -0.7470
20099TIP3    H181788   0.629   2.409   4.277 -0.0157 -0.3307 -0.5229
20099TIP3    H281789   0.651   2.502   4.159  0.7253  2.2212  1.5320
20100TIP3   OH281790   3.068   3.098   0.362  0.0038 -0.0625  0.0926
20100TIP3    H181791   3.017   3.114   0.283  1.1904  2.8156 -0.2073
20100TIP3    H281792   3.115   3.016   0.345 -1.2503 -0.5264 -1.3188
20101TIP3   OH281793   6.322   6.593   4.796 -0.4044  1.1818  0.3306
20101TIP3    H181794   6.333   6.502   4.823  0.4023  1.5054  1.1369
20101TIP3    H281795   6.227   6.606   4.794 -0.5267  0.3510  0.2794
20102TIP3   OH281796   0.429   6.204   4.374 -0.2723 -0.0580  0.3419
20102TIP3    H181797   0.462   6.272   4.433 -0.0966  1.4058 -1.3457
20102TIP3    H281798   0.383   6.143   4.431  0.0117  1.1921  2.0006
20103TIP3   OH281799   1.305   6.610   5.756 -0.4892  0.1163  0.4873
20103TIP3    H181800   1.388   6.654   5.772 -0.3316  0.5555 -1.3262
20103TIP3    H281801   1.328   6.533   5.704 -1.0592 -0.6635  1.3510
20104TIP3   OH281802   1.827   2.533   4.336  0.1408  0.3188  0.5497
20104TIP3    H181803   1.874   2.605   4.377  0.3692  1.4397 -1.5376
20104TIP3    H281804   1.868   2.524   4.249 -0.4578 -1.7635  0.4229
20105TIP3   OH281805   5.559   6.702  14.172  0.0137 -0.1085 -0.1022
20105TIP3    H181806   5.464   6.713  14.162 -0.0405  0.7079  1.1303
20105TIP3    H281807   5.570   6.645  14.247  0.5005  0.1739  0.0497
20106TIP3   OH281808   4.001   0.464   2.573 -0.1094  0.0961 -0.0238
20106TIP3    H181809   4.047   0.472   2.490  0.2821  1.4242  0.2848
20106TIP3    H281810   4.068   0.436   2.635 -0.2476 -0.2507 -0.0326
20107TIP3   OH281811   0.047   0.544  15.871 -0.1241  0.4105  0.1640
20107TIP3    H181812   0.048   0.505  15.959 -0.7949 -0.5151 -0.2340
20107TIP3    H281813   0.022   0.473  15.813 -1.0746  1.3539 -0.6260
20108TIP3   OH281814   5.225   4.677  16.816 -0.7563  0.4271 -0.2236
20108TIP3    H181815   5.262   4.712  16.897  0.0818  0.8233 -0.7726
20108TIP3    H281816   5.296   4.681  16.753 -0.8496 -1.5421 -0.5223
20109TIP3   OH281817   2.226   6.566   4.289 -0.2120  0.2126 -0.1550
20109TIP3    H181818   2.190   6.516   4.215  1.2129 -0.9865 -0.0870
20109TIP3    H281819   2.181   6.530   4.365 -1.3028  1.0879 -0.3644
20110TIP3   OH281820   2.386   1.911   0.591 -0.0327  0.4017 -0.6318
20110TIP3    H181821   2.477   1.941   0.596  0.2256 -0.5097  0.5229
20110TIP3    H281822   2.334   1.988   0.617  0.5566  0.2642  1.0935
20111TIP3   OH281823   5.098   6.330   1.346 -0.1462  0.2293  0.0966
20111TIP3    H181824   5.028   6.386   1.379 -0.5602  0.2689 -0.8010
20111TIP3    H281825   5.163   6.391   1.310  0.4720  0.2016  1.1338
20112TIP3   OH281826   6.653   1.780  13.482  0.3367  0.4622  0.3373
20112TIP3    H181827   6.579   1.801  13.539  1.2642  2.7814  0.7966
20112TIP3    H281828   6.729   1.783  13.540  1.0110  0.1048 -0.5032
20113TIP3   OH281829   3.387   3.975  13.805  0.1562  0.2740  0.7378
20113TIP3    H181830   3.420   3.920  13.875  0.4628  0.9794  1.1580
20113TIP3    H281831   3.372   3.915  13.732  1.3513 -0.2204  0.8866
20114TIP3   OH281832   5.882   6.028  11.886 -0.4859 -0.1453 -0.2033
20114TIP3    H181833   5.846   5.996  11.969 -1.6014 -2.4388 -1.4735
20114TIP3    H281834   5.949   5.965  11.863  1.9210  2.0746  0.2987
20115TIP3   OH281835   1.366   4.349  16.916 -0.6020 -0.4343  0.1561
20115TIP3    H181836   1.363   4.255  16.932  0.3777 -0.4315  0.4190
20115TIP3    H281837   1.458   4.367  16.896 -1.1333  0.1193 -2.0432
20116TIP3   OH281838   5.941   0.713   4.212 -0.3250  0.5825 -0.1490
20116TIP3    H181839   5.956   0.622   4.187  1.6487  0.8539 -0.1446
20116TIP3    H281840   5.989   0.723   4.294 -1.3676  1.3839  0.3837
20117TIP3   OH281841   6.145   5.579  13.328 -0.5947  0.1125  0.7821
20117TIP3    H181842   6.216   5.526  13.365 -0.9617  0.7604  2.4838
20117TIP3    H281843   6.147   5.660  13.378 -0.8215  1.2477 -0.9765
20118TIP3   OH281844   5.682   2.735  14.186  0.1727  0.2652 -0.5043
20118TIP3    H181845   5.679   2.814  14.241  1.6002  0.5743 -0.8461
20118TIP3    H281846   5.702   2.664  14.246 -2.6712 -0.1768  0.0912
20119TIP3   OH281847   5.861   4.765  11.488 -0.5159  0.0670  0.1886
20119TIP3    H181848   5.846   4.782  11.395 -2.7183 -0.8453  0.2969
20119TIP3    H281849   5.943   4.810  11.508 -0.1677  0.5894 -2.0933
20120TIP3   OH281850   4.381   6.461   2.178  0.2991 -0.2725 -0.3800
20120TIP3    H181851   4.316   6.505   2.123 -0.1483  0.9284  1.0712
20120TIP3    H281852   4.334   6.439   2.258  1.6907  0.7076  0.7449
20121TIP3   OH281853   0.037   6.297  13.762  0.1065 -0.2535  0.8785
20121TIP3    H181854   0.012   6.389  13.758  1.1863  0.0601  0.9023
20121TIP3    H281855   0.003   6.267  13.846 -0.2744  0.1221  0.8609
20122TIP3   OH281856   1.756   3.252   5.503  0.3773 -0.1720 -0.3356
20122TIP3    H181857   1.663   3.268   5.520  0.3590 -1.2213  0.6914
20122TIP3    H281858   1.759   3.161   5.475  1.2898 -0.8636  1.7609
20123TIP3   OH281859   6.325   5.944  14.265 -0.4925 -0.1552  0.5336
20123TIP3    H181860   6.259   5.907  14.323  0.8144 -3.6985 -0.0041
20123TIP3    H281861   6.295   5.922  14.177  0.5128 -0.2480  0.1935
20124TIP3   OH281862   5.683   3.992   5.130 -0.7301  0.7154 -0.1173
20124TIP3    H181863   5.608   3.998   5.188 -1.8418  0.3799 -1.4480
20124TIP3    H281864   5.755   4.034   5.178 -1.0304 -1.3535  2.3204
20125TIP3   OH281865   6.522   6.629   3.291 -0.0806 -0.3097 -0.5905
20125TIP3    H181866   6.489   6.552   3.336  0.0650  0.5630  1.0705
20125TIP3    H281867   6.572   6.594   3.218 -0.4110 -1.7684 -0.1525
20126TIP3   OH281868   0.419   3.309  12.689  0.6080  0.5046  0.7404
20126TIP3    H181869   0.402   3.336  12.779  1.0139 -0.5792  1.1713
20126TIP3    H281870   0.368   3.228  12.678  0.8171  0.4477  0.1068
20127TIP3   OH281871   5.664   6.812   6.205  0.3839  0.7741 -0.3658
20127TIP3    H181872   5.690   6.733   6.252 -0.5944 -0.0577 -1.1669
20127TIP3    H281873   5.688   6.795   6.114  0.0872  1.3544 -0.5576
20128TIP3   OH281874   1.640   3.856   2.661  0.3043  0.3453  0.1253
20128TIP3    H181875   1.594   3.826   2.739  1.5041  0.0423  0.7457
20128TIP3    H281876   1.638   3.782   2.601 -0.7946  0.6458 -0.2307
20129TIP3   OH281877   0.725   3.273   3.707  0.2846  0.3044 -0.0500
20129TIP3    H181878   0.764   3.350   3.748  2.6019 -1.4149  1.1996
20129TIP3    H281879   0.753   3.199   3.761 -1.2563 -1.5258 -1.5808
20130TIP3   OH281880   4.132   3.250   5.578  0.0788 -0.5525 -0.4591
20130TIP3    H181881   4.099   3.181   5.637  0.5400 -1.5991 -1.3932
20130TIP3    H281882   4.106   3.221   5.491 -2.4879  2.0194 -0.7057
20131TIP3   OH281883   0.627   1.490   4.998  0.5068  0.1629 -0.7399
20131TIP3    H181884   0.721   1.496   4.979  0.4558  1.2279 -0.7428
20131TIP3    H281885   0.584   1.495   4.913  0.4617 -1.3260 -0.8263
20132TIP3   OH281886   2.720   4.498  12.905  0.2553  0.2427 -1.2634
20132TIP3    H181887   2.809   4.535  12.904  0.8929 -0.9579  1.4913
20132TIP3    H281888   2.734   4.404  12.917 -1.3859  0.0723 -0.5267
20133TIP3   OH281889   1.066   4.315   5.094  0.3410 -0.3285  0.1464
20133TIP3    H181890   1.133   4.277   5.037  1.2987  0.4091  0.7472
20133TIP3    H281891   0.988   4.262   5.078  1.2456 -1.6498 -0.0695
20134TIP3   OH281892   2.121   2.581  13.130 -0.3409  0.8425  0.4050
20134TIP3    H181893   2.058   2.648  13.106  0.4642  1.0719 -1.2122
20134TIP3    H281894   2.206   2.625  13.127 -0.0376  0.4819  2.2850
20135TIP3   OH281895   0.219   5.095   0.264 -0.3866  0.3991  0.0721
20135TIP3    H181896   0.273   5.106   0.185  1.3361 -0.2034  1.1056
20135TIP3    H281897   0.249   5.012   0.302 -2.6626 -0.3944  0.2753
20136TIP3   OH281898   1.684   1.226   5.512  0.1513 -0.3611 -0.0931
20136TIP3    H181899   1.764   1.270   5.541  0.3108  0.3619 -1.5690
20136TIP3    H281900   1.649   1.186   5.592  1.3494  0.3056  0.8004
20137TIP3   OH281901   1.668   5.421  11.832  0.3142  0.0366  0.4416
20137TIP3    H181902   1.721   5.452  11.759  1.6121 -0.8272  0.9575
20137TIP3    H281903   1.612   5.496  11.855  1.6458  1.1682  0.1545
20138TIP3   OH281904   2.342   1.632  12.299  0.4523 -0.2636  0.4939
20138TIP3    H181905   2.278   1.619  12.230  1.4950 -0.7325 -0.4095
20138TIP3    H281906   2.357   1.726  12.301  0.5053 -0.2594 -0.0087
20139TIP3   OH281907   4.070   2.438  11.997  0.3659  0.4522 -0.2725
20139TIP3    H181908   3.979   2.445  12.022 -0.1600  1.2004 -2.1729
20139TIP3    H281909   4.070   2.382  11.919  1.4574  0.7596 -0.5254
20140TIP3   OH281910   6.554   3.589  16.988 -0.0676  0.2345  0.0207
20140TIP3    H181911   6.645   3.560  16.992 -0.0671  0.2818  2.9091
20140TIP3    H281912   6.547   3.637  16.906  2.6780  0.7385 -0.0098
20141TIP3   OH281913   1.360   5.132  12.412 -0.0844 -0.1760 -0.6987
20141TIP3    H181914   1.417   5.165  12.343 -0.2149 -0.2532 -0.8443
20141TIP3    H281915   1.300   5.072  12.367  0.4814 -1.0109 -0.3677
20142TIP3   OH281916   2.669   2.731  12.467 -0.2146  0.9058  0.3012
20142TIP3    H181917   2.677   2.739  12.562  0.7069 -0.7593  0.4060
20142TIP3    H281918   2.751   2.690  12.440 -1.0018  0.1756 -1.0655
20143TIP3   OH281919   5.197   1.269  12.205  0.0960 -0.5091 -0.6282
20143TIP3    H181920   5.144   1.284  12.282 -0.9504 -1.1092 -1.2126
20143TIP3    H281921   5.266   1.335  12.209 -1.2643  0.9351 -0.3741
20144TIP3   OH281922   2.372   4.658   3.232 -0.0383 -0.3692  0.0555
20144TIP3    H181923   2.285   4.698   3.225  0.7071  1.5804  1.1810
20144TIP3    H281924   2.406   4.660   3.142 -0.2503  1.0555 -0.0176
20145TIP3   OH281925   5.974   2.623   2.225  0.0666 -0.3405 -0.0713
20145TIP3    H181926   6.013   2.665   2.302 -0.3610 -0.3289  0.1447
20145TIP3    H281927   6.021   2.660   2.151  0.5401 -0.4137  0.1917
20146TIP3   OH281928   4.311   6.009   5.672  1.2715  0.0848  0.5327
20146TIP3    H181929   4.318   5.939   5.737 -1.0029  0.0695  0.8571
20146TIP3    H281930   4.259   5.970   5.601  0.7772  1.1611  0.2963
20147TIP3   OH281931   4.060   4.436  11.864 -0.1700 -0.8248  0.6516
20147TIP3    H181932   4.121   4.500  11.902 -0.5343 -0.3263  0.4101
20147TIP3    H281933   4.115   4.384  11.806  0.0506 -0.4395  0.5036
20148TIP3   OH281934   5.018   6.151   1.132 -0.2607 -0.2224 -0.6581
20148TIP3    H181935   5.020   6.220   1.198  1.1479  0.0645 -0.9491
20148TIP3    H281936   5.038   6.071   1.181 -0.8732 -0.2682 -0.4803
20149TIP3   OH281937   5.034   1.374   1.989 -0.1717  0.0214  0.1716
20149TIP3    H181938   5.004   1.333   1.908  0.5769 -0.7591  0.2709
20149TIP3    H281939   5.106   1.319   2.018 -0.9957 -0.2379  1.8498
20150TIP3   OH281940   1.981   5.466   1.038 -0.7589 -0.4708 -0.1616
20150TIP3    H181941   1.901   5.513   1.063  0.4986  0.0253  3.5166
20150TIP3    H281942   1.968   5.377   1.073  0.5926 -0.1115  1.3852
20151TIP3   OH281943   3.068   3.673   2.489 -0.0988  1.0068 -0.0054
20151TIP3    H181944   3.039   3.622   2.565 -1.6650  1.7340 -0.0904
20151TIP3    H281945   3.140   3.622   2.453 -1.5821 -1.1731 -0.0715
20152TIP3   OH281946   0.388   1.984   3.466 -0.8989  0.3572 -0.0191
20152TIP3    H181947   0.466   2.003   3.519  0.0829  1.7978 -1.8689
20152TIP3    H281948   0.422   1.942   3.387 -1.9453  1.2519 -0.9746
20153TIP3   OH281949   5.504   3.787   4.906  0.3108  0.4507 -0.5639
20153TIP3    H181950   5.540   3.844   4.837  0.7399  2.0024  0.8835
20153TIP3    H281951   5.578   3.732   4.933  0.0720 -0.3603 -1.4905
20154TIP3   OH281952   3.464   5.230  13.884  0.1036  0.4944  0.0664
20154TIP3    H181953   3.430   5.307  13.840 -0.7466  0.5937  0.8630
20154TIP3    H281954   3.558   5.243  13.886  0.0449  1.0762 -0.6023
20155TIP3   OH281955   5.662   4.927  11.200 -0.2357 -0.1893 -0.1110
20155TIP3    H181956   5.593   4.968  11.147  0.1205  1.1024  0.3876
20155TIP3    H281957   5.713   4.876  11.138 -1.6230 -1.1540 -0.4967
20156TIP3   OH281958   0.493   3.595  16.875  0.3302 -0.4259 -0.2339
20156TIP3    H181959   0.449   3.586  16.791 -0.8549  0.0526  0.3138
20156TIP3    H281960   0.432   3.645  16.929  0.8992 -1.0546  1.0375
20157TIP3   OH281961   1.075   4.609  15.436  0.3268  0.9251  0.0044
20157TIP3    H181962   1.108   4.523  15.411  1.1353  0.7384  1.6116
20157TIP3    H281963   1.046   4.598  15.527 -1.4062  1.8636 -0.3777
20158TIP3   OH281964   4.027   0.392  16.434 -0.2505 -0.0806  0.0687
20158TIP3    H181965   4.100   0.401  16.372 -0.4045 -0.3140 -0.1472
20158TIP3    H281966   3.949   0.414  16.383 -0.5206 -1.5223 -0.1807
20159TIP3   OH281967   0.172   2.075   0.449 -0.1693  0.2705 -0.3617
20159TIP3    H181968   0.237   2.017   0.488 -1.2970 -0.6295  0.2562
20159TIP3    H281969   0.105   2.085   0.517 -1.1328  0.4045 -1.3002
20160TIP3   OH281970   1.837   6.384  16.139  1.0584 -0.0623  0.1698
20160TIP3    H181971   1.899   6.454  16.117  0.2216  0.3060 -1.1076
20160TIP3    H281972   1.776   6.382  16.065 -0.0192 -0.9129  1.0575
20161TIP3   OH281973   5.222   2.856   0.399  0.0884 -0.2143 -0.6429
20161TIP3    H181974   5.187   2.788   0.457 -0.7075 -1.1033 -2.1173
20161TIP3    H281975   5.298   2.815   0.356  0.2227  0.1812 -0.7898
20162TIP3   OH281976   2.778   2.239  15.269 -0.1527  0.0061  0.6964
20162TIP3    H181977   2.742   2.317  15.226  2.0115  0.2224 -0.8927
20162TIP3    H281978   2.791   2.266  15.360  0.6294  1.5902  0.1599
20163TIP3   OH281979   4.624   0.065   3.450 -0.1059  0.7231  0.0972
20163TIP3    H181980   4.558   0.002   3.476  0.5103  0.3979  0.8942
20163TIP3    H281981   4.624   0.131   3.519  1.3824 -0.0310  0.8607
20164TIP3   OH281982   3.336   5.909   1.504  0.0400  0.3804  0.3281
20164TIP3    H181983   3.318   5.815   1.517 -0.6745  0.7238  2.0676
20164TIP3    H281984   3.291   5.930   1.423 -0.4984 -0.6117  0.3434
20165TIP3   OH281985   4.844   0.498  15.950  0.1037  0.5593 -0.1791
20165TIP3    H181986   4.900   0.448  16.009  0.3620  1.3266  0.2413
20165TIP3    H281987   4.833   0.582  15.994  0.4506  1.2127 -1.3153
20166TIP3   OH281988   0.043   2.240  15.057  0.0597 -0.1340  0.4998
20166TIP3    H181989  -0.038   2.290  15.059  0.5072  0.7615 -1.4083
20166TIP3    H281990   0.033   2.175  15.127 -2.9243 -1.0327 -0.5918
20167TIP3   OH281991   4.191   4.019   6.191  0.3648  0.2286 -0.5239
20167TIP3    H181992   4.191   4.082   6.263  0.7398  1.8446 -1.8833
20167TIP3    H281993   4.158   3.938   6.230 -0.6302  1.3876  1.1568
20168TIP3   OH281994   4.378   2.053  15.444 -0.3392 -0.1704  0.0149
20168TIP3    H181995   4.413   2.094  15.364  0.8355 -0.9022  0.1211
20168TIP3    H281996   4.385   1.959  15.427 -0.5592 -0.3267  0.7834
20169TIP3   OH281997   4.512   5.625   3.446 -0.5528 -0.1290  0.1479
20169TIP3    H181998   4.443   5.590   3.503 -2.4381 -0.3354 -2.1074
20169TIP3    H281999   4.534   5.710   3.484  0.0088 -1.2371  2.4863
20170TIP3   OH282000   4.126   2.525  14.935  0.0486  0.1817 -0.1646
20170TIP3    H182001   4.073   2.587  14.986  0.8364  1.7342 -1.1491
20170TIP3    H282002   4.216   2.545  14.960  0.3375 -0.2900 -0.8071
20171TIP3   OH282003   0.281   6.599  12.612  0.3983 -0.4817  0.5342
20171TIP3    H182004   0.212   6.607  12.545 -0.3398 -1.5627  1.1273
20171TIP3    H282005   0.273   6.508  12.643  2.0440 -0.6026  0.6843
20172TIP3   OH282006   2.380   2.831   3.026  0.4500 -0.0918 -0.1534
20172TIP3    H182007   2.423   2.750   3.053 -1.4435 -0.9336  0.5105
20172TIP3    H282008   2.361   2.818   2.933 -1.6610 -1.3601  0.3782
20173TIP3   OH282009   6.327   1.536   1.382 -0.2962  0.2762  0.1052
20173TIP3    H182010   6.320   1.632   1.382 -0.2116  0.2995 -1.2637
20173TIP3    H282011   6.269   1.508   1.453 -1.9674  1.2642 -0.7964
20174TIP3   OH282012   1.684   3.392   2.715 -0.1821  0.0972 -0.2663
20174TIP3    H182013   1.631   3.332   2.768 -0.1771  0.1635 -0.1869
20174TIP3    H282014   1.766   3.399   2.762 -0.4910  0.8424  0.1739
20175TIP3   OH282015   5.340   2.723  11.746  0.2563  0.1022  0.5487
20175TIP3    H182016   5.266   2.664  11.732 -0.0365  0.1948  1.6494
20175TIP3    H282017   5.343   2.736  11.841  1.2200  0.7015  0.4466
20176TIP3   OH282018   3.737   5.158  14.140 -0.1546  0.4347 -0.2074
20176TIP3    H182019   3.827   5.128  14.125  0.2431  1.6482 -0.3386
20176TIP3    H282020   3.726   5.231  14.078 -0.7101  1.2664  0.8519
20177TIP3   OH282021   5.890   0.541  11.514 -0.4924 -0.7933  0.6475
20177TIP3    H182022   5.843   0.467  11.475 -0.5818 -1.2384  1.5652
20177TIP3    H282023   5.912   0.511  11.602  2.8480 -1.2216 -0.1830
20178TIP3   OH282024   1.783   5.878   5.687 -0.5423  0.2225 -0.1467
20178TIP3    H182025   1.831   5.822   5.748 -1.2709 -0.7168 -0.4109
20178TIP3    H282026   1.746   5.817   5.622 -0.7914  1.0784 -0.8328
20179TIP3   OH282027   3.390   6.347   1.275  0.0382 -0.0703 -0.4462
20179TIP3    H182028   3.443   6.404   1.331  1.3154 -0.9008 -0.7708
20179TIP3    H282029   3.346   6.407   1.214  1.7962  0.5568 -1.1520
20180TIP3   OH282030   6.603   6.327   5.449  0.3599 -0.1180 -0.0743
20180TIP3    H182031   6.579   6.336   5.541  1.8115 -0.2846  0.3482
20180TIP3    H282032   6.555   6.396   5.404  0.6840  0.8309  1.0163
20181TIP3   OH282033   0.493   3.234   3.545  0.1291  0.0246 -0.3544
20181TIP3    H182034   0.549   3.271   3.613 -1.0298  0.3224  0.4619
20181TIP3    H282035   0.433   3.304   3.522 -1.1144 -0.8393  0.1243
20182TIP3   OH282036   0.669   3.215   2.742 -0.2412  0.0690  0.1056
20182TIP3    H182037   0.758   3.194   2.714 -0.2210  0.4771 -0.1628
20182TIP3    H282038   0.633   3.266   2.669  0.2175  2.2186  1.2770
20183TIP3   OH282039   5.694   2.685  14.747 -0.3044 -0.1288  0.4079
20183TIP3    H182040   5.623   2.632  14.710 -0.4249  0.9070 -0.9209
20183TIP3    H282041   5.759   2.689  14.678  0.4705  0.0571  1.1314
20184TIP3   OH282042   4.360   0.244  13.549 -0.1622  0.3220  0.3550
20184TIP3    H182043   4.444   0.204  13.570 -0.5133 -0.0677  1.0393
20184TIP3    H282044   4.377   0.338  13.555  0.5134  0.2824 -0.6705
20185TIP3   OH282045   4.616   4.701   2.312 -0.0120  0.0669  0.2351
20185TIP3    H182046   4.658   4.740   2.388  1.9773  0.7883 -1.1545
20185TIP3    H282047   4.629   4.607   2.322 -2.2783 -0.1408  2.1357
20186TIP3   OH282048   4.064   2.440   4.576  0.2358 -0.3793 -0.6287
20186TIP3    H182049   4.137   2.473   4.629 -0.6559  0.0048  0.3841
20186TIP3    H282050   4.096   2.356   4.541  0.9143 -0.5470  0.3648
20187TIP3   OH282051   0.711   1.422   3.768  0.0639  0.2580 -0.2225
20187TIP3    H182052   0.704   1.342   3.716 -0.2644  0.9932 -1.3397
20187TIP3    H282053   0.635   1.474   3.742 -0.6408  0.2802  1.6819
20188TIP3   OH282054   2.852   1.431  12.441 -0.2265  0.8698 -0.3592
20188TIP3    H182055   2.921   1.395  12.495 -0.7436  1.7595  0.9431
20188TIP3    H282056   2.897   1.491  12.381  0.0714  2.1323  1.0728
20189TIP3   OH282057   3.360   6.760   1.771  0.3665 -0.1964 -0.0293
20189TIP3    H182058   3.303   6.701   1.721 -0.9168  0.9854 -0.0163
20189TIP3    H282059   3.360   6.723   1.859  1.3055 -1.3478 -0.4700
20190TIP3   OH282060   6.694   2.696   1.385 -0.1829  0.2542 -0.1995
20190TIP3    H182061   6.714   2.615   1.432 -1.3811  1.0293  1.7373
20190TIP3    H282062   6.760   2.699   1.315  0.4453 -1.9177  0.2089
20191TIP3   OH282063   2.940   3.535  16.389  0.3174  0.1177  0.1643
20191TIP3    H182064   3.010   3.469  16.388 -0.0083 -0.2330  0.3348
20191TIP3    H282065   2.986   3.619  16.381  0.7990 -0.0800  0.7724
20192TIP3   OH282066   4.730   1.108  14.978 -1.1031 -0.0753  0.4712
20192TIP3    H182067   4.821   1.089  14.958 -0.4414  2.9579  0.0964
20192TIP3    H282068   4.688   1.117  14.892 -2.1603 -2.6942  0.6123
20193TIP3   OH282069   4.776   6.059  15.704 -0.4020  0.2103 -0.2043
20193TIP3    H182070   4.839   6.027  15.768  0.9388  1.4984 -0.8240
20193TIP3    H282071   4.703   6.093  15.756 -0.4811 -1.0199  0.5264
20194TIP3   OH282072   2.556   1.224   0.833  0.0606 -0.4493  0.1881
20194TIP3    H182073   2.588   1.226   0.924  0.8885  2.4438 -0.0468
20194TIP3    H282074   2.478   1.279   0.834 -0.0773 -0.6114 -0.8207
20195TIP3   OH282075   2.749   2.297  15.563 -0.0212  0.8093  0.3307
20195TIP3    H182076   2.796   2.347  15.629  0.0444 -1.0704  1.8122
20195TIP3    H282077   2.669   2.268  15.607 -0.3832  0.2112 -0.6881
20196TIP3   OH282078   6.813   4.897  14.848  0.3492 -0.1718  0.2976
20196TIP3    H182079   6.842   4.949  14.773 -0.4493 -0.4971 -0.2529
20196TIP3    H282080   6.754   4.832  14.810 -1.2174  0.5578  1.3852
20197TIP3   OH282081   6.804   2.904   6.288  0.3187  0.6656 -0.1992
20197TIP3    H182082   6.766   2.936   6.370 -1.8871  0.2305 -0.9704
20197TIP3    H282083   6.830   2.814   6.308  0.9061  0.9402  0.3210
20198TIP3   OH282084   6.219   1.192  14.779  0.2187  0.6745  0.0235
20198TIP3    H182085   6.283   1.123  14.799  0.3255  0.4882 -0.8885
20198TIP3    H282086   6.143   1.171  14.834  0.6936  0.5233  0.6362
20199TIP3   OH282087   3.426   1.278   3.221  0.7799  0.0137  0.4111
20199TIP3    H182088   3.461   1.315   3.302  2.2249  1.7283 -0.8811
20199TIP3    H282089   3.338   1.315   3.214  0.4810 -0.4912  1.3887
20200TIP3   OH282090   1.384   4.718   2.740  0.5362  0.3508 -0.1456
20200TIP3    H182091   1.291   4.738   2.730  0.5739  0.1996 -0.8068
20200TIP3    H282092   1.400   4.643   2.683  0.5718 -1.1323  1.7172
20201TIP3   OH282093   2.536   5.829   1.170  0.3189 -0.2132 -0.6629
20201TIP3    H182094   2.521   5.861   1.259 -0.3097 -0.3202 -0.7247
20201TIP3    H282095   2.507   5.901   1.114  0.4906 -0.2383 -0.7845
20202TIP3   OH282096   5.979   6.453   1.163  0.9014 -0.4895 -0.7482
20202TIP3    H182097   5.921   6.425   1.234  1.6186  0.6220  0.3006
20202TIP3    H282098   5.921   6.467   1.088 -0.1406  0.2257  0.1695
20203TIP3   OH282099   4.684   2.156   2.596  0.1834  0.7050  0.4076
20203TIP3    H182100   4.636   2.218   2.540 -1.6147 -0.1107  0.9857
20203TIP3    H282101   4.735   2.212   2.654 -0.2761  1.6200 -0.0367
20204TIP3   OH282102   5.582   6.400   1.052 -0.5621 -0.2945  0.0152
20204TIP3    H182103   5.551   6.351   0.975  0.3539  0.5729 -0.9432
20204TIP3    H282104   5.633   6.472   1.015  1.7092 -1.0514  1.4949
20205TIP3   OH282105   0.835   1.804   3.264  0.2881 -0.0315  0.2550
20205TIP3    H182106   0.927   1.813   3.239  1.0530 -0.7303  2.6312
20205TIP3    H282107   0.835   1.803   3.359 -2.1474 -0.5585  0.3245
20206TIP3   OH282108   5.750   4.568  12.054  0.0127  0.2387  0.7617
20206TIP3    H182109   5.717   4.488  12.096  0.8763 -0.2922  0.4462
20206TIP3    H282110   5.771   4.626  12.128 -0.3892  0.0888  0.9995
20207TIP3   OH282111   1.919   0.435  16.254  0.3399  0.2666 -0.4056
20207TIP3    H182112   1.882   0.522  16.240 -0.3565  0.0899  0.2487
20207TIP3    H282113   1.970   0.443  16.334  1.8214  0.5253 -1.3365
20208TIP3   OH282114   5.564   3.292  11.550  0.6064 -0.7425 -0.0860
20208TIP3    H182115   5.644   3.344  11.548  0.1225  0.0971  1.0956
20208TIP3    H282116   5.506   3.336  11.488 -0.4190  1.3068  2.1049
20209TIP3   OH282117   1.630   3.301  11.990  0.1727 -0.1898 -0.1895
20209TIP3    H182118   1.591   3.249  12.060 -0.5432  0.6657  0.0616
20209TIP3    H282119   1.591   3.388  11.999  0.4769  0.0839 -1.3200
20210TIP3   OH282120   3.458   4.407   2.477  0.0600  0.5201  0.2079
20210TIP3    H182121   3.491   4.410   2.567 -0.7713  0.1095  0.5413
20210TIP3    H282122   3.404   4.486   2.468 -0.9403 -0.1145  0.5186
20211TIP3   OH282123   6.605   6.146   6.225 -0.8020  0.3981 -0.2778
20211TIP3    H182124   6.657   6.202   6.283  0.6345  0.0089 -1.1285
20211TIP3    H282125   6.598   6.196   6.144 -0.7499 -0.0557 -0.5629
20212TIP3   OH282126   6.800   4.986  13.329  0.1260  0.3933 -0.1587
20212TIP3    H182127   6.881   5.007  13.374  0.8262  2.6609 -2.2639
20212TIP3    H282128   6.825   4.981  13.237 -2.1108  1.1692 -0.8660
20213TIP3   OH282129   0.643   1.635   4.489  0.0511  0.1354 -0.1134
20213TIP3    H182130   0.570   1.573   4.491  1.5742 -1.7157  1.1713
20213TIP3    H282131   0.707   1.596   4.430  0.6466  0.9616 -0.0425
20214TIP3   OH282132   2.129   5.777   0.505  0.0082 -0.7710 -0.3243
20214TIP3    H182133   2.214   5.774   0.460 -0.0108 -0.6348 -0.3689
20214TIP3    H282134   2.069   5.814   0.440  0.0176 -0.4130 -0.1298
20215TIP3   OH282135   1.630   5.727  15.909  0.6284 -0.2102 -0.0921
20215TIP3    H182136   1.700   5.706  15.847 -0.8925 -0.7499 -1.7208
20215TIP3    H282137   1.557   5.754  15.854 -0.6321 -0.1959  1.5167
20216TIP3   OH282138   2.416   2.802  14.221 -0.1772 -1.0192 -0.0770
20216TIP3    H182139   2.484   2.866  14.202 -0.7488 -0.4286 -0.1763
20216TIP3    H282140   2.461   2.717  14.218  0.4423 -0.6820 -0.6638
20217TIP3   OH282141   2.424   4.149   4.661  0.1579 -0.1174  0.0050
20217TIP3    H182142   2.336   4.149   4.698 -0.2755  0.4978 -0.9863
20217TIP3    H282143   2.476   4.204   4.721  0.0865 -1.1729  1.0528
20218TIP3   OH282144   5.276   1.141   4.259 -0.3856  0.4743 -0.0884
20218TIP3    H182145   5.337   1.087   4.208 -1.5190 -1.3287  0.3489
20218TIP3    H282146   5.301   1.231   4.240  1.0962 -0.1894 -1.5007
20219TIP3   OH282147   1.283   5.933  13.519 -0.5794 -0.0166  0.2148
20219TIP3    H182148   1.203   5.899  13.558 -2.0745  1.5302 -1.2985
20219TIP3    H282149   1.296   5.881  13.439 -0.4543  0.1814  0.1042
20220TIP3   OH282150   2.011   1.736   4.810 -0.0752 -0.5201 -0.1322
20220TIP3    H182151   2.042   1.646   4.797 -0.0981 -0.5295 -0.1215
20220TIP3    H282152   1.974   1.761   4.725 -1.0858 -0.9147  0.1845
20221TIP3   OH282153   3.743   5.292  13.910  0.0472 -0.0044 -0.0773
20221TIP3    H182154   3.838   5.304  13.907  0.0144  0.0868 -1.3752
20221TIP3    H282155   3.707   5.381  13.907 -0.0803 -0.0694 -1.8606
20222TIP3   OH282156   0.765   5.337  15.545 -0.5591  0.4457 -0.4754
20222TIP3    H182157   0.726   5.410  15.498 -0.9039  0.1244 -0.6953
20222TIP3    H282158   0.744   5.353  15.637 -0.1380  0.9209 -0.4625
20223TIP3   OH282159   5.387   6.245   3.725 -0.3743  0.0169 -0.0137
20223TIP3    H182160   5.394   6.150   3.716  0.3512  0.0778 -0.1047
20223TIP3    H282161   5.439   6.265   3.803  1.2045  0.5764 -1.1812
20224TIP3   OH282162   4.263   1.468  14.541 -0.0379  0.5840 -0.1106
20224TIP3    H182163   4.357   1.479  14.526  0.1881 -1.0138  0.0379
20224TIP3    H282164   4.244   1.379  14.513 -1.3741  0.6531  0.5103
20225TIP3   OH282165   3.524   4.909  15.472  0.3713 -0.0542 -0.4066
20225TIP3    H182166   3.587   4.965  15.516  0.0754  0.5703 -0.7645
20225TIP3    H282167   3.441   4.957  15.477 -0.5712 -1.7510  1.8408
20226TIP3   OH282168   3.862   0.867  17.196  0.0827  0.0856 -0.4596
20226TIP3    H182169   3.818   0.905  17.119 -0.5664  0.7923  0.2346
20226TIP3    H282170   3.943   0.829  17.161 -0.2002  0.3865 -1.4920
20227TIP3   OH282171   0.561   4.959   1.427 -0.5990 -0.4937 -0.4768
20227TIP3    H182172   0.585   4.991   1.341 -0.7739 -0.9471 -0.6957
20227TIP3    H282173   0.509   4.881   1.410  1.8731 -2.3713  0.0890
20228TIP3   OH282174   4.450   0.290   0.556  0.1435 -0.1549 -0.2751
20228TIP3    H182175   4.489   0.377   0.550  2.6861 -1.1872 -0.2039
20228TIP3    H282176   4.471   0.248   0.473  0.4514 -1.2386  0.3252
20229TIP3   OH282177   4.346   0.474   3.784 -0.0635 -0.5304 -0.3340
20229TIP3    H182178   4.372   0.550   3.836 -1.1438 -0.8427  0.6958
20229TIP3    H282179   4.322   0.408   3.848 -4.8645  0.1905 -1.0509
20230TIP3   OH282180   1.354   6.074  14.944 -0.4190  0.5900 -0.6204
20230TIP3    H182181   1.258   6.072  14.949 -0.4330  0.5977 -0.8529
20230TIP3    H282182   1.383   6.033  15.025 -0.6081  1.7560  0.0521
20231TIP3   OH282183   3.332   4.743  14.805 -0.3634 -0.4170  0.1776
20231TIP3    H182184   3.240   4.733  14.782 -0.7147  0.6989  1.0324
20231TIP3    H282185   3.379   4.730  14.722 -1.3284 -0.2579 -0.4124
20232TIP3   OH282186   5.327   6.207  16.743  0.0708 -0.0714 -0.2008
20232TIP3    H182187   5.355   6.138  16.683 -0.9591  0.2220 -1.0565
20232TIP3    H282188   5.260   6.166  16.798 -0.8847  0.3443 -1.0254
20233TIP3   OH282189   5.425   1.669  15.225  0.3571  0.1114 -0.7823
20233TIP3    H182190   5.427   1.583  15.184 -0.2207 -0.8904  1.2022
20233TIP3    H282191   5.387   1.655  15.311  0.5656  2.3026 -0.2549
20234TIP3   OH282192   5.792   0.707   3.192  1.0122 -0.3043 -0.7844
20234TIP3    H182193   5.750   0.723   3.108 -1.9924  2.3616  1.0022
20234TIP3    H282194   5.758   0.622   3.221 -0.8179  0.3893 -0.7798
20235TIP3   OH282195   1.526   5.393   2.923 -0.3063 -0.6045  0.6399
20235TIP3    H182196   1.566   5.359   2.843 -1.2656 -1.9577  0.7145
20235TIP3    H282197   1.552   5.485   2.925  1.2828 -0.9974 -0.2386
20236TIP3   OH282198   1.500   3.338   0.749 -0.8916 -0.1504  0.6979
20236TIP3    H182199   1.542   3.423   0.766  0.9105 -0.5466 -1.2792
20236TIP3    H282200   1.498   3.295   0.834  1.5599  0.4755  1.1454
20237TIP3   OH282201   3.324   2.987  14.509  0.1798  0.2336  0.1619
20237TIP3    H182202   3.256   2.998  14.575  0.4257 -1.4609  0.7459
20237TIP3    H282203   3.277   2.993  14.425 -0.7022 -0.8146  0.5542
20238TIP3   OH282204   0.043   6.532  10.472  0.1135 -0.1946  0.1116
20238TIP3    H182205  -0.007   6.459  10.509 -1.2512 -0.1947 -1.6109
20238TIP3    H282206   0.015   6.608  10.523 -0.0298 -0.5403  0.5513
20239TIP3   OH282207   4.175   4.422   3.768 -0.3417  0.0177 -0.4015
20239TIP3    H182208   4.158   4.355   3.702  0.0225  1.2682 -1.8209
20239TIP3    H282209   4.238   4.481   3.727 -0.4816  1.1133  0.8910
20240TIP3   OH282210   5.718   3.539   4.495 -0.0656  0.1244  0.1458
20240TIP3    H182211   5.643   3.489   4.527 -1.2531  1.8817  0.2693
20240TIP3    H282212   5.756   3.578   4.574  0.2052  0.2366 -0.0397
20241TIP3   OH282213   1.241   3.683   5.552  0.0895 -0.1147  0.1960
20241TIP3    H182214   1.291   3.765   5.551  1.2095 -0.7736 -0.7597
20241TIP3    H282215   1.246   3.653   5.643  0.3878  0.4430  0.3688
20242TIP3   OH282216   6.488   4.736   1.020 -0.2347  0.8039  0.4291
20242TIP3    H182217   6.540   4.670   0.975  1.8470  1.6218  1.5104
20242TIP3    H282218   6.461   4.797   0.951  1.1841  0.9511 -0.0099
20243TIP3   OH282219   4.214   0.277  16.016 -0.0773  0.0812 -0.3388
20243TIP3    H182220   4.281   0.309  15.955  0.7950  0.3191  0.6953
20243TIP3    H282221   4.226   0.182  16.017  0.1592  0.1111 -0.2592
20244TIP3   OH282222   0.758   6.080  12.701  0.3427 -0.1698 -0.4019
20244TIP3    H182223   0.757   6.060  12.608  1.8105  0.0895 -0.5092
20244TIP3    H282224   0.785   6.172  12.706 -0.1258 -0.0571  0.2690
20245TIP3   OH282225   4.807   2.826   4.602 -0.5178 -0.1035  0.0237
20245TIP3    H182226   4.857   2.877   4.538 -1.6349 -0.8914 -1.5658
20245TIP3    H282227   4.873   2.794   4.663  0.5593  0.9799 -0.5240
20246TIP3   OH282228   4.264   6.175  16.543 -0.2542  0.1771 -0.2860
20246TIP3    H182229   4.225   6.113  16.481  0.3884 -1.8634  1.2199
20246TIP3    H282230   4.345   6.204  16.501 -0.4520 -0.1746 -0.9227
20247TIP3   OH282231   3.778   6.066   0.842  0.2798  0.9165  0.8995
20247TIP3    H182232   3.795   5.972   0.839  1.3067  1.1002 -1.3966
20247TIP3    H282233   3.866   6.106   0.838 -0.1642  1.9760  1.3324
20248TIP3   OH282234   5.117   3.836  16.245 -0.6137 -0.2703  0.0250
20248TIP3    H182235   5.106   3.789  16.162 -0.8633  0.4019 -0.3317
20248TIP3    H282236   5.118   3.768  16.311 -1.2230 -0.7639 -0.4607
20249TIP3   OH282237   5.458   0.540   0.995  0.2633 -0.0143 -0.0837
20249TIP3    H182238   5.373   0.520   0.958 -0.3451 -0.3178  1.3999
20249TIP3    H282239   5.446   0.624   1.040  0.8731  0.1704 -0.2537
20250TIP3   OH282240   5.739   5.793   1.751  0.6278  0.0105  0.3861
20250TIP3    H182241   5.681   5.719   1.769  1.5136 -0.4662  1.4721
20250TIP3    H282242   5.781   5.771   1.668  1.0763 -0.8647  0.8223
20251TIP3   OH282243   5.241   5.755   5.032  0.2394  0.0620  0.3492
20251TIP3    H182244   5.171   5.819   5.044  1.1402  0.9566  0.9405
20251TIP3    H282245   5.204   5.691   4.971 -0.7386  1.0436 -0.1272
20252TIP3   OH282246   1.210   3.567  16.575 -0.3293 -0.1172 -0.4475
20252TIP3    H182247   1.264   3.580  16.653 -1.3384 -1.5506  0.5545
20252TIP3    H282248   1.139   3.631  16.583  1.1018  1.7361 -1.7421
20253TIP3   OH282249   6.129   6.383   6.669 -0.5839  0.2878 -0.2143
20253TIP3    H182250   6.111   6.477   6.670 -1.3836  0.1358  0.2533
20253TIP3    H282251   6.217   6.376   6.631 -0.3073  1.2605  0.2148
20254TIP3   OH282252   5.548   4.788  14.630  0.1897 -0.1916  0.0887
20254TIP3    H182253   5.500   4.714  14.667 -1.7979  1.2549  0.5851
20254TIP3    H282254   5.531   4.860  14.691 -0.4542  1.4392 -1.8948
20255TIP3   OH282255   4.116   2.986  15.747 -0.0655  0.4965 -0.6706
20255TIP3    H182256   4.155   2.915  15.798  0.3955  0.3704 -1.1851
20255TIP3    H282257   4.045   2.944  15.698 -0.3492  0.5670 -0.3185
20256TIP3   OH282258   3.966   6.389   2.163 -0.3594  0.0288  0.4837
20256TIP3    H182259   3.993   6.337   2.239  1.1715  1.3107  0.8635
20256TIP3    H282260   3.894   6.442   2.195 -0.2575 -0.0265  0.8116
20257TIP3   OH282261   1.448   2.683   1.753 -0.4382  0.0211  0.3558
20257TIP3    H182262   1.486   2.626   1.820  0.2365  0.0393  0.0035
20257TIP3    H282263   1.359   2.700   1.783 -0.0837  0.2085  1.3654
20258TIP3   OH282264   1.732   1.438   1.883 -0.8384  0.3189  0.8217
20258TIP3    H182265   1.775   1.521   1.862  0.6944 -0.7088 -0.3441
20258TIP3    H282266   1.643   1.447   1.850  0.0551  0.5925 -1.6878
20259TIP3   OH282267   3.343   5.690  16.568 -0.5823 -0.1350 -0.9655
20259TIP3    H182268   3.383   5.764  16.613  2.0022 -0.3922 -2.6360
20259TIP3    H282269   3.333   5.623  16.635 -3.2713  1.6977  0.6568
20260TIP3   OH282270   5.764   5.063  13.541 -0.3021 -0.3834  0.4248
20260TIP3    H182271   5.686   5.042  13.489  0.0612 -1.1843  0.1832
20260TIP3    H282272   5.836   5.022  13.493  0.2281  0.0800  0.8142
20261TIP3   OH282273   1.882   6.582  12.172 -0.7884  0.3260  0.0772
20261TIP3    H182274   1.841   6.657  12.216 -1.0125  1.0372 -1.2806
20261TIP3    H282275   1.884   6.514  12.239 -0.8538  1.4397  1.2675
20262TIP3   OH282276   6.188   6.670  11.652 -0.2886  0.1417  0.2282
20262TIP3    H182277   6.221   6.673  11.562  0.9810 -0.6763  0.6478
20262TIP3    H282278   6.104   6.625  11.645 -0.8678  1.2941 -0.7107
20263TIP3   OH282279   0.500   1.530  12.406 -0.2466  0.1335  0.5695
20263TIP3    H182280   0.480   1.456  12.463  0.0799  1.2723  2.2073
20263TIP3    H282281   0.468   1.606  12.454  1.7666  1.3196  0.1059
20264TIP3   OH282282   4.048   6.047   0.611 -0.1742  0.3693 -0.3258
20264TIP3    H182283   4.046   6.068   0.704  0.6663 -1.9316  0.2507
20264TIP3    H282284   4.127   6.090   0.578 -0.9702  1.9896 -0.2433
20265TIP3   OH282285   0.694   1.048   3.057  0.0675 -0.0959  0.5721
20265TIP3    H182286   0.640   1.089   3.125 -0.0957 -1.8465  1.5421
20265TIP3    H282287   0.680   0.954   3.068 -0.5226 -0.4380 -2.3556
20266TIP3   OH282288   2.209   6.443  16.359  0.0408 -0.0262 -0.2802
20266TIP3    H182289   2.159   6.382  16.304 -0.7338 -0.6769  1.0867
20266TIP3    H282290   2.143   6.499  16.398 -0.0358 -2.2691  3.2820
20267TIP3   OH282291   6.057   0.825   3.974 -0.3963 -0.1294 -0.3941
20267TIP3    H182292   6.058   0.780   4.059  2.3497 -1.0774 -0.8197
20267TIP3    H282293   6.050   0.917   3.997  1.3194 -0.2753  1.0188
20268TIP3   OH282294   4.721   3.167   4.915  0.4880 -0.0589 -0.5182
20268TIP3    H182295   4.649   3.114   4.882  1.7180 -1.1623 -1.5783
20268TIP3    H282296   4.716   3.249   4.866 -0.8030  0.4328  0.3803
20269TIP3   OH282297   4.836   2.189   0.635 -0.1632 -0.2818  0.5121
20269TIP3    H182298   4.857   2.216   0.546 -0.3665  0.8105  0.7883
20269TIP3    H282299   4.897   2.116   0.653  1.1493  0.6855  0.1380
20270TIP3   OH282300   3.384   5.819   2.121 -0.4471  0.0804 -0.5638
20270TIP3    H182301   3.454   5.816   2.187 -1.3180 -1.8550  0.3521
20270TIP3    H282302   3.407   5.893   2.065  1.5351  0.4023  0.5809
20271TIP3   OH282303   1.626   1.630  15.983  0.0313  0.0326  0.0586
20271TIP3    H182304   1.702   1.596  16.030 -0.6190 -1.5793  0.0143
20271TIP3    H282305   1.650   1.625  15.891 -0.6259 -1.9388 -0.0594
20272TIP3   OH282306   6.411   5.767  16.403 -0.4486 -0.2337  0.1193
20272TIP3    H182307   6.343   5.721  16.452 -1.1558  0.2932 -0.3464
20272TIP3    H282308   6.382   5.858  16.402  1.4726  0.4571  1.9533
20273TIP3   OH282309   5.192   0.346  15.033  0.5111  0.8930 -0.0989
20273TIP3    H182310   5.221   0.277  14.974 -1.2581  1.3958 -1.6847
20273TIP3    H282311   5.190   0.305  15.120  0.4112 -0.7526 -0.8421
20274TIP3   OH282312   6.423   6.384   5.648  0.0773 -0.2338  0.5294
20274TIP3    H182313   6.429   6.433   5.730  0.7468  0.4640  0.0787
20274TIP3    H282314   6.367   6.437   5.592  0.1186 -0.4000  0.3272
20275LIG      O82315   1.634   5.405  16.152 -0.0035 -0.3471 -0.3652
20275LIG     C182316   1.698   5.375  16.270 -0.1552 -0.4873  0.2753
20275LIG     C282317   1.592   5.332  16.375  0.0381 -0.3633 -0.1486
20275LIG     C382318   1.799   5.259  16.252 -0.4706 -0.1061  0.4431
20275LIG     H182319   1.748   5.468  16.306 -0.2054  0.0790 -1.0656
20275LIG     H282320   1.508   5.404  16.377  0.4478  0.1049  0.8400
20275LIG     H382321   1.658   5.328  16.464 -0.6909  1.0905  0.4955
20275LIG     H482322   1.561   5.229  16.347 -0.4283  0.0343 -1.1644
20275LIG     H582323   1.836   5.212  16.345  0.9518  1.6456  0.8030
20275LIG     H682324   1.897   5.293  16.212 -0.1608  0.0582  1.3218
20275LIG     H782325   1.761   5.186  16.177  1.4271 -0.8894  0.1891
20275LIG     H882326   1.545   5.372  16.169  0.1398 -0.2424  0.6487
   6.84945   6.84945  17.19861
